Title
81329
    1CHL1    C3    1   3.269   5.798  10.150 -0.4605 -0.4347  0.4846
    1CHL1    H3    2   3.319   5.897  10.143 -1.3405  0.1996  2.5650
    1CHL1    O3    3   3.277   5.768  10.288 -0.2506 -0.0803  0.3040
    1CHL1   H3'    4   3.227   5.841  10.325  2.1874  1.0603  1.6189
    1CHL1    C4    5   3.120   5.801  10.107 -0.2074 -0.5756 -0.1219
    1CHL1   H4A    6   3.066   5.717  10.156 -0.8894  0.2912  0.6267
    1CHL1   H4B    7   3.078   5.896  10.145  2.6291  0.5940  0.3395
    1CHL1    C5    8   3.081   5.797   9.954 -0.6634 -0.1316 -1.4154
    1CHL1    C6    9   2.999   5.881   9.885  0.3360  0.0662  0.3569
    1CHL1    H6   10   2.938   5.954   9.942 -1.5273  0.1786 -1.6525
    1CHL1    C7   11   2.947   5.876   9.746 -0.3539 -1.0553 -0.3342
    1CHL1   H7A   12   2.836   5.882   9.743 -0.5541 -2.0902  2.2032
    1CHL1   H7B   13   2.989   5.961   9.688  0.5844  0.3761  2.2703
    1CHL1    C8   14   2.997   5.745   9.674  0.2547 -0.2366 -0.4425
    1CHL1    H8   15   2.933   5.663   9.712  0.9742  0.1167  1.6101
    1CHL1   C14   16   2.992   5.762   9.523 -0.4723  0.4388 -0.1979
    1CHL1   H14   17   3.074   5.835   9.503  0.3328 -0.5315 -0.5384
    1CHL1   C15   18   2.869   5.820   9.457  0.2411  0.1951 -0.5899
    1CHL1  H15A   19   2.779   5.767   9.496 -0.3163  1.8719  0.5279
    1CHL1  H15B   20   2.848   5.928   9.465 -0.0815  0.0056  2.5883
    1CHL1   C16   21   2.891   5.786   9.312  0.0151  0.4897  0.3602
    1CHL1  H16A   22   2.802   5.732   9.274 -0.6642  1.3523  0.6681
    1CHL1  H16B   23   2.906   5.872   9.243  1.0400 -2.3819 -3.2832
    1CHL1   C17   24   3.024   5.708   9.300 -0.6351  0.3605  0.2572
    1CHL1   H17   25   3.109   5.779   9.302 -2.0198  2.0852  0.4030
    1CHL1   C13   26   3.041   5.647   9.438 -0.0218 -0.3098  0.3637
    1CHL1   C18   27   2.945   5.530   9.461  0.1480  0.9902  0.0383
    1CHL1  H18A   28   2.847   5.561   9.420 -0.3350  0.2954  0.6576
    1CHL1  H18B   29   2.980   5.438   9.409  0.0071 -2.2072  4.9296
    1CHL1  H18C   30   2.930   5.509   9.569  0.8203  1.7570  0.2921
    1CHL1   C12   31   3.183   5.613   9.482  0.6655  0.6487 -0.4473
    1CHL1  H12A   32   3.212   5.521   9.428  0.0058 -1.0287  1.9317
    1CHL1  H12B   33   3.255   5.695   9.456  0.6502  0.5218 -0.8950
    1CHL1   C11   34   3.187   5.586   9.639 -0.6109 -0.2517 -0.0367
    1CHL1  H11A   35   3.136   5.492   9.668  1.7827 -1.2442  1.2868
    1CHL1  H11B   36   3.293   5.560   9.660 -0.5987 -0.7761 -0.6848
    1CHL1    C9   37   3.140   5.702   9.723 -0.2812  0.3447 -0.1999
    1CHL1    H9   38   3.197   5.791   9.687 -0.6877  0.6217 -0.1594
    1CHL1   C10   39   3.158   5.691   9.874  0.1451 -0.3416  0.0086
    1CHL1   C19   40   3.113   5.554   9.920 -0.2314 -0.3528 -0.9409
    1CHL1  H19A   41   3.090   5.552  10.028  0.6024 -1.3035 -0.7635
    1CHL1  H19B   42   3.019   5.518   9.873 -0.1070 -1.4482 -0.3847
    1CHL1  H19C   43   3.195   5.479   9.911  0.6885  0.3035  1.4565
    1CHL1    C1   44   3.304   5.715   9.913  0.0070  0.1082 -0.1384
    1CHL1   H1A   45   3.363   5.639   9.857  1.1502  1.2675 -0.5660
    1CHL1   H1B   46   3.344   5.812   9.875  2.4354 -0.5480  0.5953
    1CHL1    C2   47   3.347   5.700  10.059 -0.4903 -0.3046  0.6142
    1CHL1   H2A   48   3.455   5.723  10.075 -1.0845  2.4666  1.0236
    1CHL1   H2B   49   3.339   5.597  10.100 -1.4156 -0.1793  0.7590
    1CHL1   C20   50   3.047   5.621   9.178  0.0629  0.1583 -0.6946
    1CHL1   H20   51   3.118   5.540   9.204  1.4171  0.8894 -1.9571
    1CHL1   C21   52   3.106   5.699   9.060 -0.0317 -0.0127 -0.2778
    1CHL1  H21A   53   3.036   5.778   9.024 -0.5776 -0.2527  0.2422
    1CHL1  H21B   54   3.136   5.637   8.972  0.4573 -0.8882  0.4882
    1CHL1  H21C   55   3.195   5.754   9.098  2.1393 -3.3269 -0.1465
    1CHL1   C22   56   2.918   5.556   9.119  0.3177 -0.2668 -0.2902
    1CHL1  H22A   57   2.877   5.492   9.201  0.8304 -0.7049 -0.3682
    1CHL1  H22B   58   2.851   5.636   9.081  1.9498  1.0278 -0.5398
    1CHL1   C23   59   2.933   5.445   9.012 -0.3116 -0.5722 -0.3230
    1CHL1  H23A   60   2.960   5.507   8.924 -1.0611  1.7117  0.9687
    1CHL1  H23B   61   3.015   5.377   9.043  0.7850  2.1631  3.6041
    1CHL1   C24   62   2.801   5.377   8.974 -0.7061  0.4142 -0.8491
    1CHL1  H24A   63   2.768   5.337   9.072  2.4211 -1.1529 -0.3126
    1CHL1  H24B   64   2.725   5.455   8.952 -0.6730  0.7327  0.1015
    1CHL1   C25   65   2.823   5.264   8.873 -0.5506 -0.5654 -0.1788
    1CHL1   H25   66   2.905   5.200   8.912 -0.2502 -0.5075 -0.7043
    1CHL1   C26   67   2.694   5.183   8.869  0.4398 -0.1680  0.9238
    1CHL1  H26A   68   2.663   5.157   8.973 -1.7790 -1.0349  0.1015
    1CHL1  H26B   69   2.618   5.241   8.814  0.1596  1.8392  3.2346
    1CHL1  H26C   70   2.714   5.085   8.820 -0.8860 -1.0349  2.0291
    1CHL1   C27   71   2.859   5.319   8.739 -0.6971  0.2614  0.3231
    1CHL1  H27A   72   2.789   5.400   8.710  0.7474  0.8434 -1.7981
    1CHL1  H27B   73   2.961   5.362   8.725  0.3209 -2.2787 -0.6982
    1CHL1  H27C   74   2.858   5.240   8.661 -0.8561  0.3761  0.2079
    2CHL1    C3   75   3.144   4.720  10.118 -0.1586  0.1734  0.4662
    2CHL1    H3   76   3.135   4.610  10.129 -0.7451 -0.0694 -1.8428
    2CHL1    O3   77   3.120   4.793  10.237 -0.7852  0.3627 -0.2239
    2CHL1   H3'   78   3.151   4.881  10.215 -1.4474  0.9682  1.1252
    2CHL1    C4   79   3.283   4.743  10.058  0.5805  0.0223  0.1875
    2CHL1   H4A   80   3.317   4.848  10.054  0.0167  0.1648 -1.5064
    2CHL1   H4B   81   3.347   4.691  10.133  1.5876 -0.7703 -1.1714
    2CHL1    C5   82   3.309   4.679   9.922 -0.0440  0.5116  0.2032
    2CHL1    C6   83   3.395   4.578   9.900 -0.5812 -0.8204 -0.5507
    2CHL1    H6   84   3.458   4.555   9.987  0.3595 -1.3691 -1.3529
    2CHL1    C7   85   3.404   4.503   9.768 -0.4476 -0.9013  0.0445
    2CHL1   H7A   86   3.512   4.488   9.744 -0.0868 -0.6730  1.4507
    2CHL1   H7B   87   3.354   4.405   9.784 -1.9843  0.0431  1.3501
    2CHL1    C8   88   3.342   4.589   9.653 -0.2206  1.5347  0.3769
    2CHL1    H8   89   3.413   4.674   9.649  0.4681  1.0744  1.8150
    2CHL1   C14   90   3.341   4.507   9.526  0.8535  0.0560  0.8490
    2CHL1   H14   91   3.273   4.419   9.537 -0.6137  0.7489 -1.8411
    2CHL1   C15   92   3.473   4.455   9.472 -0.2402 -0.8387  0.3186
    2CHL1  H15A   93   3.552   4.527   9.505 -0.7220 -0.5303  0.8392
    2CHL1  H15B   94   3.499   4.361   9.525  1.8074  0.6531  2.1649
    2CHL1   C16   95   3.453   4.430   9.315  0.1426  0.0984  0.1143
    2CHL1  H16A   96   3.528   4.498   9.269 -0.1863 -0.2331 -0.9446
    2CHL1  H16B   97   3.469   4.321   9.303  1.2416 -0.1363  3.0364
    2CHL1   C17   98   3.310   4.477   9.281 -0.0376  0.5983 -0.2370
    2CHL1   H17   99   3.249   4.384   9.290  0.8909 -0.6584 -4.5629
    2CHL1   C13  100   3.272   4.577   9.399  0.1570  0.7588  0.5101
    2CHL1   C18  101   3.350   4.706   9.361 -0.4418  0.3795  0.2462
    2CHL1  H18A  102   3.281   4.766   9.298 -1.1471 -2.1512 -1.5282
    2CHL1  H18B  103   3.364   4.775   9.447  1.3891  1.0400 -0.5387
    2CHL1  H18C  104   3.453   4.683   9.326  1.1636 -1.1537  5.1248
    2CHL1   C12  105   3.127   4.608   9.435  0.1145  0.0517  0.1197
    2CHL1  H12A  106   3.065   4.661   9.361 -2.1076 -0.5932  1.4312
    2CHL1  H12B  107   3.064   4.523   9.471 -1.8095  2.0279  1.6553
    2CHL1   C11  108   3.130   4.698   9.565  0.2780  0.7208  0.1986
    2CHL1  H11A  109   3.170   4.800   9.546 -0.1887  1.1671  1.5142
    2CHL1  H11B  110   3.026   4.706   9.601  0.2081  0.9963 -0.0578
    2CHL1    C9  111   3.202   4.635   9.685 -0.0121 -0.6411 -0.2814
    2CHL1    H9  112   3.143   4.544   9.708  0.7615 -0.4811  2.7621
    2CHL1   C10  113   3.198   4.714   9.816 -0.2962 -0.3317 -0.2483
    2CHL1   C19  114   3.229   4.863   9.781 -0.1940 -0.1434 -0.2032
    2CHL1  H19A  115   3.234   4.918   9.878  0.2296 -2.4416  1.1597
    2CHL1  H19B  116   3.326   4.863   9.727  0.5928  1.1305  1.1361
    2CHL1  H19C  117   3.150   4.903   9.714 -2.1366  0.3581  2.2353
    2CHL1    C1  118   3.065   4.703   9.882 -0.2989 -0.1232 -0.0628
    2CHL1   H1A  119   2.992   4.757   9.816  1.3882  1.7089 -0.5349
    2CHL1   H1B  120   3.041   4.595   9.877 -0.2915 -0.1554  0.6035
    2CHL1    C2  121   3.043   4.773  10.015 -0.1044  0.2640 -0.2938
    2CHL1   H2A  122   2.939   4.770  10.052 -0.5414 -2.7741 -1.4609
    2CHL1   H2B  123   3.073   4.876   9.987  1.0288 -0.1254 -0.5765
    2CHL1   C20  124   3.299   4.523   9.135 -0.4980 -0.0303  0.1906
    2CHL1   H20  125   3.313   4.634   9.128  0.7311 -0.0894  1.2737
    2CHL1   C21  126   3.153   4.492   9.091 -0.3125  0.5068 -0.9559
    2CHL1  H21A  127   3.078   4.504   9.172  1.2669  2.3716  0.3252
    2CHL1  H21B  128   3.146   4.381   9.087 -1.9429  0.4572  1.1153
    2CHL1  H21C  129   3.128   4.535   8.992 -1.2374 -1.5258 -1.6546
    2CHL1   C22  130   3.396   4.454   9.034  1.0089 -0.0085 -0.9952
    2CHL1  H22A  131   3.500   4.482   9.061 -0.0015  2.0764  1.2221
    2CHL1  H22B  132   3.380   4.345   9.050  3.1936 -0.4135 -1.3383
    2CHL1   C23  133   3.361   4.479   8.883 -0.3412  0.1408  0.2607
    2CHL1  H23A  134   3.270   4.422   8.857  0.2752 -1.2268  0.9788
    2CHL1  H23B  135   3.343   4.589   8.877 -0.1502  0.1779  0.3529
    2CHL1   C24  136   3.465   4.424   8.788 -0.6589 -0.0097  0.8689
    2CHL1  H24A  137   3.562   4.479   8.796 -0.3076 -0.3469 -0.8221
    2CHL1  H24B  138   3.486   4.318   8.813 -1.7814 -0.2844  0.6973
    2CHL1   C25  139   3.424   4.442   8.640  0.3219  0.0401 -0.4864
    2CHL1   H25  140   3.339   4.378   8.608  0.4808 -0.3723 -0.0845
    2CHL1   C26  141   3.386   4.588   8.602 -0.4901 -0.4871 -0.1276
    2CHL1  H26A  142   3.332   4.584   8.505 -1.4630  3.2067  0.1311
    2CHL1  H26B  143   3.308   4.639   8.663 -2.4047  3.6625 -5.3139
    2CHL1  H26C  144   3.474   4.653   8.586 -1.1193 -0.2613 -3.1846
    2CHL1   C27  145   3.537   4.399   8.547 -0.1274  0.2853  0.4265
    2CHL1  H27A  146   3.551   4.290   8.569 -0.4877  0.4812  1.7249
    2CHL1  H27B  147   3.516   4.411   8.439  0.4913  0.2819  0.3012
    2CHL1  H27C  148   3.631   4.455   8.565  0.8705 -0.9180 -0.7519
    3CHL1    C3  149   5.894   5.397  10.024 -0.4851  0.0127 -0.2797
    3CHL1    H3  150   5.784   5.408  10.029 -0.5492 -0.1173 -1.2648
    3CHL1    O3  151   5.919   5.398  10.162 -0.4621 -0.0502 -0.0621
    3CHL1   H3'  152   5.924   5.307  10.194  2.2445  0.0023 -0.0872
    3CHL1    C4  153   5.934   5.271   9.959 -0.3139 -0.1666 -0.4388
    3CHL1   H4A  154   6.044   5.258   9.958 -0.3776 -1.0947  1.1007
    3CHL1   H4B  155   5.900   5.189  10.026  4.3114  0.1719  2.7463
    3CHL1    C5  156   5.890   5.275   9.816  0.3734  0.3374  1.1714
    3CHL1    C6  157   5.817   5.175   9.764 -0.3901  0.1494  0.5021
    3CHL1    H6  158   5.783   5.095   9.832  0.8774  1.2011  2.4939
    3CHL1    C7  159   5.773   5.164   9.615 -0.4004 -0.0226  0.3641
    3CHL1   H7A  160   5.791   5.060   9.582  0.0159  0.2466 -0.2933
    3CHL1   H7B  161   5.664   5.183   9.620 -0.0799  1.7752  1.8350
    3CHL1    C8  162   5.858   5.258   9.522  0.0279 -0.2397 -0.2812
    3CHL1    H8  163   5.955   5.210   9.497  0.3439 -0.1458  0.7259
    3CHL1   C14  164   5.792   5.273   9.388 -0.7710  0.2877 -0.2680
    3CHL1   H14  165   5.690   5.314   9.403 -1.6048 -1.3231 -1.2743
    3CHL1   C15  166   5.772   5.144   9.307  0.1054 -0.3438 -0.6747
    3CHL1  H15A  167   5.875   5.104   9.294  0.5162  0.6206 -0.5401
    3CHL1  H15B  168   5.694   5.075   9.345 -0.2592  0.0228 -0.7555
    3CHL1   C16  169   5.735   5.200   9.168 -0.4636  0.2852  0.7634
    3CHL1  H16A  170   5.791   5.140   9.093 -0.3756  2.4662 -1.0440
    3CHL1  H16B  171   5.628   5.178   9.149 -1.0112  2.6527  0.7505
    3CHL1   C17  172   5.749   5.353   9.171 -0.7006 -0.0960  0.3619
    3CHL1   H17  173   5.647   5.385   9.203 -0.4369  2.3036 -0.9317
    3CHL1   C13  174   5.849   5.374   9.288 -0.4499 -0.1009  0.5668
    3CHL1   C18  175   5.987   5.338   9.238  0.2251 -0.1296 -0.1007
    3CHL1  H18A  176   6.031   5.416   9.171 -1.6619  2.0905  1.0874
    3CHL1  H18B  177   6.058   5.336   9.323  1.7849 -1.7035 -1.3597
    3CHL1  H18C  178   5.994   5.240   9.187 -0.5810 -0.9443  1.3109
    3CHL1   C12  179   5.858   5.514   9.363  0.1021  0.6424  0.8347
    3CHL1  H12A  180   5.905   5.597   9.307 -0.9498  1.2154  0.7898
    3CHL1  H12B  181   5.754   5.539   9.392 -0.4016 -0.6464  0.2078
    3CHL1   C11  182   5.931   5.514   9.497  0.6129  0.7302  0.0790
    3CHL1  H11A  183   6.039   5.497   9.481  0.7062  1.2889  0.0978
    3CHL1  H11B  184   5.919   5.614   9.545 -0.1349 -0.5579  2.8063
    3CHL1    C9  185   5.872   5.394   9.594  0.1881 -0.2540  0.2968
    3CHL1    H9  186   5.766   5.421   9.612  0.2229  0.8244 -0.9158
    3CHL1   C10  187   5.942   5.394   9.731 -0.2369  0.9535  0.5325
    3CHL1   C19  188   6.095   5.377   9.712 -0.6563 -0.0128  0.0840
    3CHL1  H19A  189   6.108   5.295   9.638  0.8959  0.5413 -0.2919
    3CHL1  H19B  190   6.140   5.469   9.668  0.0319 -0.3462  0.0827
    3CHL1  H19C  191   6.156   5.365   9.804 -0.1410 -1.8689 -0.4646
    3CHL1    C1  192   5.900   5.528   9.810  0.1461  0.7340  0.6976
    3CHL1   H1A  193   5.938   5.616   9.754 -0.7592 -1.1886 -3.3458
    3CHL1   H1B  194   5.789   5.529   9.807  0.1053 -0.3348  1.2109
    3CHL1    C2  195   5.953   5.515   9.952  0.2341 -0.2642 -0.0095
    3CHL1   H2A  196   5.924   5.609  10.004  0.0870 -0.2246 -0.1623
    3CHL1   H2B  197   6.062   5.495   9.951 -0.1049 -2.3218 -0.7257
    3CHL1   C20  198   5.780   5.423   9.042  0.1563  0.5231 -0.2547
    3CHL1   H20  199   5.887   5.403   9.019 -0.2385 -2.1344 -0.0048
    3CHL1   C21  200   5.769   5.579   9.043  0.7773 -0.7273 -0.1818
    3CHL1  H21A  201   5.801   5.634   8.952 -1.9315  2.0064  0.3319
    3CHL1  H21B  202   5.822   5.624   9.129 -1.4929  0.9462  0.4495
    3CHL1  H21C  203   5.662   5.600   9.068  1.0416 -1.1474  1.4196
    3CHL1   C22  204   5.689   5.370   8.926  0.0109  0.3440 -0.5403
    3CHL1  H22A  205   5.715   5.263   8.914 -0.8106  0.2808 -2.0004
    3CHL1  H22B  206   5.585   5.395   8.955  1.1056  2.9530  1.5955
    3CHL1   C23  207   5.707   5.431   8.785  0.0977 -0.0646 -0.6069
    3CHL1  H23A  208   5.695   5.541   8.788 -0.8570 -0.1851  0.9778
    3CHL1  H23B  209   5.805   5.400   8.741  0.5729 -1.1115  1.1221
    3CHL1   C24  210   5.591   5.387   8.684 -0.0606 -0.4736 -0.6871
    3CHL1  H24A  211   5.507   5.347   8.745 -1.1276 -2.5914 -3.3602
    3CHL1  H24B  212   5.563   5.469   8.615 -0.5207  0.0694  0.1193
    3CHL1   C25  213   5.639   5.263   8.594  0.0423 -0.4729 -0.4439
    3CHL1   H25  214   5.700   5.193   8.654 -0.1868  0.3194  0.7503
    3CHL1   C26  215   5.526   5.182   8.538 -0.2431 -0.5714 -0.9898
    3CHL1  H26A  216   5.464   5.147   8.623  1.0301 -0.0399  0.1964
    3CHL1  H26B  217   5.461   5.237   8.466 -1.2334 -2.2608 -1.4540
    3CHL1  H26C  218   5.580   5.101   8.485  2.0781 -0.4775  1.0527
    3CHL1   C27  219   5.733   5.299   8.476  0.2802 -0.3154  0.6369
    3CHL1  H27A  220   5.830   5.333   8.517  1.1633  0.4616 -1.9200
    3CHL1  H27B  221   5.763   5.213   8.414  1.1273  0.9755 -0.8229
    3CHL1  H27C  222   5.700   5.377   8.404  3.2416 -0.0833 -0.5961
    4CHL1    C3  223   3.838   6.517  10.520  0.5634  0.9190 -0.1051
    4CHL1    H3  224   3.927   6.576  10.491  0.7621  0.1301 -1.1308
    4CHL1    O3  225   3.837   6.488  10.664  0.2329  0.6712  0.6073
    4CHL1   H3'  226   3.904   6.423  10.683 -0.8643 -0.1297  1.8637
    4CHL1    C4  227   3.707   6.583  10.477  0.0884  0.7776 -0.3856
    4CHL1   H4A  228   3.619   6.525  10.512 -0.0642  1.5055  0.4636
    4CHL1   H4B  229   3.683   6.674  10.537 -3.6339  0.3582 -0.9834
    4CHL1    C5  230   3.696   6.608  10.327  0.1343 -0.4820 -0.3587
    4CHL1    C6  231   3.676   6.730  10.269 -0.4055  0.3982  0.0587
    4CHL1    H6  232   3.659   6.822  10.326  0.2706 -0.1818  1.2372
    4CHL1    C7  233   3.657   6.742  10.118 -0.4789 -0.2953 -0.1254
    4CHL1   H7A  234   3.567   6.807  10.106 -0.2756  0.1062  0.4999
    4CHL1   H7B  235   3.738   6.803  10.073 -0.6576 -0.8746 -1.2855
    4CHL1    C8  236   3.641   6.608  10.035  0.1617 -0.6928  0.1760
    4CHL1    H8  237   3.537   6.574  10.052  0.5331 -1.7356  0.4594
    4CHL1   C14  238   3.653   6.623   9.886  0.4872  0.1568  0.1684
    4CHL1   H14  239   3.755   6.664   9.868  0.6396  0.2856  1.2352
    4CHL1   C15  240   3.557   6.727   9.822 -0.4064 -0.0594  0.3916
    4CHL1  H15A  241   3.456   6.704   9.861 -0.0416  0.6575  1.8214
    4CHL1  H15B  242   3.580   6.831   9.853 -0.3483  0.5729 -1.5912
    4CHL1   C16  243   3.566   6.693   9.671  0.3183 -0.2050  0.1011
    4CHL1  H16A  244   3.462   6.691   9.631 -0.2678  0.1164  1.5490
    4CHL1  H16B  245   3.605   6.780   9.615  0.1677  0.1665  0.5645
    4CHL1   C17  246   3.645   6.561   9.664 -0.2882  0.5474  0.2750
    4CHL1   H17  247   3.749   6.599   9.660 -0.0016  0.0735  2.1429
    4CHL1   C13  248   3.643   6.496   9.807 -0.6871  0.5556  0.7256
    4CHL1   C18  249   3.495   6.437   9.828 -0.0402 -1.0115  0.6582
    4CHL1  H18A  250   3.468   6.433   9.936 -1.3941  2.1246  0.5688
    4CHL1  H18B  251   3.413   6.491   9.776 -0.6454 -2.3729  0.1460
    4CHL1  H18C  252   3.488   6.335   9.785 -0.1019 -1.2010  1.1138
    4CHL1   C12  253   3.758   6.406   9.858 -0.6712  0.2513  0.2719
    4CHL1  H12A  254   3.756   6.308   9.805  0.1235 -0.3038  1.2137
    4CHL1  H12B  255   3.859   6.451   9.843 -0.2823 -0.1384  1.5753
    4CHL1   C11  256   3.740   6.371  10.007  0.0810 -0.3366  0.1977
    4CHL1  H11A  257   3.650   6.306  10.016  0.1641 -0.8275 -1.8506
    4CHL1  H11B  258   3.820   6.302  10.042 -0.7559 -0.5898  1.7159
    4CHL1    C9  259   3.728   6.499  10.097  0.5707  0.4022  0.1954
    4CHL1    H9  260   3.827   6.549  10.092  0.1610  1.1037 -2.6162
    4CHL1   C10  261   3.714   6.478  10.249 -1.0180  0.3039  0.0941
    4CHL1   C19  262   3.596   6.392  10.279  0.1289 -0.1059 -0.3842
    4CHL1  H19A  263   3.602   6.294  10.226  1.6554  0.3609 -1.1124
    4CHL1  H19B  264   3.587   6.365  10.386 -0.3129 -0.5137 -0.5166
    4CHL1  H19C  265   3.500   6.434  10.242 -0.6444 -1.5111 -0.0479
    4CHL1    C1  266   3.843   6.403  10.302  0.2023 -0.1152  0.1908
    4CHL1   H1A  267   3.849   6.308  10.244  0.5972 -0.2161  0.3967
    4CHL1   H1B  268   3.928   6.461  10.261 -0.8898 -0.3997 -2.7042
    4CHL1    C2  269   3.846   6.378  10.453  0.1303 -0.0912 -0.5668
    4CHL1   H2A  270   3.938   6.321  10.478  0.9860  0.9339 -1.2446
    4CHL1   H2B  271   3.760   6.317  10.489  2.3008 -2.9246  0.1908
    4CHL1   C20  272   3.618   6.476   9.543  0.5765 -0.0282 -0.2203
    4CHL1   H20  273   3.528   6.413   9.556 -0.3546  1.5223  1.3485
    4CHL1   C21  274   3.740   6.386   9.511  0.4531  0.2077 -0.3974
    4CHL1  H21A  275   3.824   6.456   9.491  0.7768 -0.2368 -0.6122
    4CHL1  H21B  276   3.731   6.328   9.417 -0.2616  0.6513 -0.6067
    4CHL1  H21C  277   3.756   6.325   9.603 -2.5130 -0.1590 -0.0189
    4CHL1   C22  278   3.590   6.570   9.426 -0.0172  0.2009 -0.5213
    4CHL1  H22A  279   3.487   6.608   9.439 -0.8312 -1.6120 -1.3075
    4CHL1  H22B  280   3.654   6.660   9.415 -1.3404  1.6375  2.4716
    4CHL1   C23  281   3.612   6.514   9.284  0.1898 -0.4432  0.8280
    4CHL1  H23A  282   3.591   6.595   9.211  0.2846  0.4839  1.8092
    4CHL1  H23B  283   3.718   6.484   9.269  0.6234  0.5345  1.7989
    4CHL1   C24  284   3.520   6.394   9.257 -0.0951  0.4187 -0.4427
    4CHL1  H24A  285   3.510   6.329   9.346  0.9051  1.0676  0.1573
    4CHL1  H24B  286   3.416   6.425   9.234  0.3601  2.1841 -0.2842
    4CHL1   C25  287   3.567   6.314   9.136 -0.1674 -0.5280 -0.1950
    4CHL1   H25  288   3.617   6.393   9.074  1.1677  0.6400  2.2374
    4CHL1   C26  289   3.686   6.219   9.162 -0.1702 -0.1561 -0.4243
    4CHL1  H26A  290   3.660   6.134   9.227 -1.3751  1.0599  0.7458
    4CHL1  H26B  291   3.725   6.181   9.065 -3.1393  1.1841 -2.2608
    4CHL1  H26C  292   3.767   6.274   9.214 -1.7189  1.1984  0.6487
    4CHL1   C27  293   3.450   6.241   9.071 -0.2879  0.1224  0.3412
    4CHL1  H27A  294   3.489   6.162   9.002  2.5851  1.8933 -0.2501
    4CHL1  H27B  295   3.385   6.189   9.145 -0.5172 -2.3930 -1.4890
    4CHL1  H27C  296   3.389   6.314   9.015  0.0490  1.4691  1.6674
    5CHL1    C3  297   4.198   2.646  10.208  0.0158 -0.3725  0.0686
    5CHL1    H3  298   4.188   2.537  10.228  0.7283 -0.3969  0.3319
    5CHL1    O3  299   4.236   2.704  10.330  0.1268 -0.4930  0.0256
    5CHL1   H3'  300   4.255   2.795  10.306  1.4320 -0.3587  1.4302
    5CHL1    C4  301   4.325   2.664  10.110 -0.0660 -0.3671 -0.1097
    5CHL1   H4A  302   4.356   2.771  10.110 -0.1901 -0.2943  1.8308
    5CHL1   H4B  303   4.398   2.605  10.169 -0.5312  0.6446  1.5658
    5CHL1    C5  304   4.295   2.615   9.976 -0.5058 -0.3564 -0.4552
    5CHL1    C6  305   4.374   2.525   9.921 -0.0688  0.6026  0.1901
    5CHL1    H6  306   4.472   2.504   9.967  1.2674  2.5107 -1.5977
    5CHL1    C7  307   4.348   2.462   9.787 -0.8762 -0.4226 -0.1294
    5CHL1   H7A  308   4.441   2.454   9.725 -0.2874 -1.5879  0.8474
    5CHL1   H7B  309   4.301   2.361   9.784  0.8145 -1.2284 -1.9761
    5CHL1    C8  310   4.258   2.559   9.703  0.3991 -0.0349  0.3026
    5CHL1    H8  311   4.308   2.658   9.701  0.7794 -0.1918  1.3690
    5CHL1   C14  312   4.225   2.507   9.565 -0.4700  0.1665  0.5954
    5CHL1   H14  313   4.173   2.412   9.591  1.6210 -0.9666  0.8912
    5CHL1   C15  314   4.341   2.474   9.473  0.0275  0.8481 -0.4632
    5CHL1  H15A  315   4.412   2.558   9.459  0.4791  0.5251 -0.1198
    5CHL1  H15B  316   4.410   2.400   9.518 -1.8164  0.1493  1.3856
    5CHL1   C16  317   4.274   2.446   9.337  0.5109  0.4534 -0.1603
    5CHL1  H16A  318   4.336   2.486   9.253 -0.9148  1.1389 -0.9264
    5CHL1  H16B  319   4.265   2.336   9.322  0.7726  0.1484  1.6502
    5CHL1   C17  320   4.136   2.505   9.348  0.6148  0.8190  0.4474
    5CHL1   H17  321   4.064   2.421   9.364  2.0299 -1.2108 -2.8686
    5CHL1   C13  322   4.127   2.591   9.480 -0.0608  0.9630  0.2562
    5CHL1   C18  323   4.198   2.735   9.460 -0.7872  0.0761  0.0478
    5CHL1  H18A  324   4.125   2.787   9.394 -0.1491  1.1252  0.1491
    5CHL1  H18B  325   4.211   2.782   9.560 -0.9430 -1.3985  0.7806
    5CHL1  H18C  326   4.293   2.740   9.403 -0.2535  0.8173  0.9668
    5CHL1   C12  327   3.998   2.591   9.556 -0.1927 -0.6063  0.1349
    5CHL1  H12A  328   3.914   2.638   9.502 -0.0935 -0.2487  0.2931
    5CHL1  H12B  329   3.963   2.486   9.566  0.8408 -1.0234 -0.3893
    5CHL1   C11  330   4.015   2.655   9.698  0.6992 -0.0582 -0.1506
    5CHL1  H11A  331   4.028   2.762   9.672  1.6420  0.2497  1.4232
    5CHL1  H11B  332   3.918   2.640   9.749  1.2708 -0.9127  0.7329
    5CHL1    C9  333   4.128   2.595   9.779  0.2050 -0.0956  0.1982
    5CHL1    H9  334   4.091   2.495   9.810 -2.6577  1.2836  1.6395
    5CHL1   C10  335   4.166   2.667   9.912  0.1206 -0.2253 -0.7047
    5CHL1   C19  336   4.191   2.824   9.879 -0.7476 -0.0970 -0.6982
    5CHL1  H19A  337   4.235   2.879   9.965 -3.4633  0.5350  0.3842
    5CHL1  H19B  338   4.263   2.828   9.795 -0.5898 -1.6675 -0.6764
    5CHL1  H19C  339   4.092   2.867   9.850 -1.2135 -0.5289  0.1930
    5CHL1    C1  340   4.048   2.645  10.011  0.0945  0.1674 -0.3574
    5CHL1   H1A  341   3.962   2.690   9.958 -1.6324 -3.1506 -0.6101
    5CHL1   H1B  342   4.030   2.536  10.022 -2.5512  0.5489 -0.2681
    5CHL1    C2  343   4.070   2.701  10.149  0.6503  0.3618 -0.4422
    5CHL1   H2A  344   3.986   2.667  10.214  0.8762  2.2152  0.9225
    5CHL1   H2B  345   4.071   2.812  10.146 -1.9523  0.5445  1.5139
    5CHL1   C20  346   4.080   2.564   9.215 -0.7790 -0.7519  0.1857
    5CHL1   H20  347   4.149   2.645   9.180 -1.5254 -1.1131 -2.2731
    5CHL1   C21  348   3.940   2.629   9.243  0.6403 -0.6204  0.0112
    5CHL1  H21A  349   3.968   2.718   9.303  1.3068  0.0555 -1.2684
    5CHL1  H21B  350   3.870   2.565   9.301 -0.3586 -0.2042 -0.7223
    5CHL1  H21C  351   3.880   2.666   9.157  0.3010 -2.4894 -0.6141
    5CHL1   C22  352   4.073   2.458   9.102 -0.0942  0.3130  0.0907
    5CHL1  H22A  353   4.176   2.423   9.082  0.3596  1.0326  1.0931
    5CHL1  H22B  354   4.008   2.374   9.136  1.1829 -0.3461  0.9835
    5CHL1   C23  355   4.016   2.521   8.970  0.7033  0.4627 -0.6362
    5CHL1  H23A  356   3.908   2.547   8.979  0.7315  1.0019 -1.6771
    5CHL1  H23B  357   4.078   2.611   8.954  2.6395 -0.6345  0.3223
    5CHL1   C24  358   4.037   2.424   8.856  0.5305 -0.2401 -0.0714
    5CHL1  H24A  359   4.141   2.386   8.859  0.5466 -0.4838 -2.1916
    5CHL1  H24B  360   3.970   2.337   8.872  0.3999 -0.0323  0.5371
    5CHL1   C25  361   4.018   2.492   8.723  0.8205  0.1858  0.4776
    5CHL1   H25  362   4.086   2.579   8.710  2.3957 -0.9640  0.6627
    5CHL1   C26  363   4.047   2.392   8.610  0.5469 -0.1424 -0.1236
    5CHL1  H26A  364   4.146   2.341   8.620  1.5720  1.9966  1.6523
    5CHL1  H26B  365   3.969   2.316   8.590 -0.0887  0.7189 -0.9893
    5CHL1  H26C  366   4.046   2.453   8.517 -0.6564  0.6739  0.4039
    5CHL1   C27  367   3.878   2.551   8.703  0.4143 -0.2331 -0.8203
    5CHL1  H27A  368   3.847   2.553   8.596 -0.9682 -0.8546 -0.4542
    5CHL1  H27B  369   3.802   2.493   8.759  0.9160  0.3276  0.4683
    5CHL1  H27C  370   3.887   2.656   8.740 -0.1122 -0.6245  0.4664
    6CHL1    C3  371   2.926   2.773  10.159  0.5169 -0.0184 -0.3422
    6CHL1    H3  372   2.875   2.862  10.116 -0.6954 -0.5201  0.0447
    6CHL1    O3  373   2.906   2.790  10.300 -0.1625  0.1252 -0.3150
    6CHL1   H3'  374   2.940   2.708  10.337 -0.4671 -0.2147 -0.7690
    6CHL1    C4  375   2.863   2.646  10.119  0.0862  0.4896  0.0939
    6CHL1   H4A  376   2.918   2.563  10.168 -0.8689  0.2869  0.8462
    6CHL1   H4B  377   2.761   2.645  10.162  0.2239 -2.2924  0.5643
    6CHL1    C5  378   2.857   2.623   9.970 -0.2163 -0.3320  0.1295
    6CHL1    C6  379   2.743   2.593   9.907 -0.1802 -0.0931 -0.0804
    6CHL1    H6  380   2.654   2.568   9.967 -0.2776  0.2900 -0.0615
    6CHL1    C7  381   2.742   2.563   9.759 -0.4482  0.2622  0.7932
    6CHL1   H7A  382   2.676   2.478   9.730 -0.9610  1.1736 -0.7800
    6CHL1   H7B  383   2.693   2.644   9.701  0.0472 -0.7098 -1.0634
    6CHL1    C8  384   2.882   2.545   9.687 -0.0301  0.2461 -0.3994
    6CHL1    H8  385   2.921   2.443   9.707  0.4343  0.4260 -0.3684
    6CHL1   C14  386   2.873   2.561   9.534  0.0348 -0.1582  0.2471
    6CHL1   H14  387   2.848   2.668   9.515 -2.5023 -0.9383 -1.3585
    6CHL1   C15  388   2.759   2.496   9.458 -0.2965  0.7445 -0.8966
    6CHL1  H15A  389   2.750   2.395   9.504  0.0807  0.7661 -0.7805
    6CHL1  H15B  390   2.664   2.554   9.460 -1.0849 -0.5176  0.1354
    6CHL1   C16  391   2.810   2.494   9.314 -1.0140 -0.5759 -0.3645
    6CHL1  H16A  392   2.814   2.386   9.289  1.6281 -0.8251  0.8258
    6CHL1  H16B  393   2.742   2.559   9.255 -2.2142 -0.4018  1.1637
    6CHL1   C17  394   2.951   2.565   9.313  0.0902  0.8635 -0.8517
    6CHL1   H17  395   2.919   2.670   9.296 -0.9298  0.7307  0.1327
    6CHL1   C13  396   3.004   2.551   9.453  0.3711  0.3603 -0.5217
    6CHL1   C18  397   3.068   2.407   9.468  0.1070  0.4449 -0.1624
    6CHL1  H18A  398   3.087   2.389   9.576  1.0588 -0.0525 -0.4029
    6CHL1  H18B  399   2.999   2.330   9.430 -0.0143  0.8891 -0.8557
    6CHL1  H18C  400   3.167   2.403   9.416 -0.4301 -0.8057 -1.1413
    6CHL1   C12  401   3.097   2.654   9.516 -0.1358  0.9203 -0.3426
    6CHL1  H12A  402   3.195   2.633   9.468  0.2949  1.8444  0.0993
    6CHL1  H12B  403   3.070   2.758   9.487  3.0533  2.0479  0.2822
    6CHL1   C11  404   3.107   2.648   9.668 -0.0476 -0.2625  0.2953
    6CHL1  H11A  405   3.170   2.559   9.688 -0.9118 -0.8446  0.4234
    6CHL1  H11B  406   3.162   2.738   9.704 -0.7126 -0.1190  0.9789
    6CHL1    C9  407   2.980   2.644   9.750  1.1574 -0.7409 -0.7289
    6CHL1    H9  408   2.933   2.744   9.734 -1.5750 -1.2330  2.9369
    6CHL1   C10  409   2.994   2.636   9.901  0.3062  0.4023 -0.7604
    6CHL1   C19  410   3.074   2.510   9.928 -0.2298  0.1192  0.1187
    6CHL1  H19A  411   3.014   2.425   9.890 -2.3673  2.5053 -2.2562
    6CHL1  H19B  412   3.173   2.526   9.881  1.1022  2.5083  3.3133
    6CHL1  H19C  413   3.100   2.491  10.035  0.6719 -0.7416 -0.2404
    6CHL1    C1  414   3.067   2.759   9.957  0.3133  0.4709  0.5816
    6CHL1   H1A  415   3.173   2.763   9.922  0.2441 -0.3498  0.2695
    6CHL1   H1B  416   3.028   2.855   9.915  2.3699  1.5281  0.9259
    6CHL1    C2  417   3.070   2.777  10.112 -0.4323  0.6482  0.0954
    6CHL1   H2A  418   3.120   2.872  10.141 -0.0155 -0.3678  3.0629
    6CHL1   H2B  419   3.129   2.690  10.148  0.7229  0.7489 -1.4253
    6CHL1   C20  420   3.032   2.518   9.191  0.1771 -0.1894 -0.3886
    6CHL1   H20  421   3.071   2.414   9.191 -1.9769 -1.0715  1.3272
    6CHL1   C21  422   3.148   2.611   9.174 -0.4276 -0.9128  0.6198
    6CHL1  H21A  423   3.209   2.613   9.267  0.2271 -1.1415  0.2033
    6CHL1  H21B  424   3.118   2.713   9.140  0.8116 -1.3126 -1.8825
    6CHL1  H21C  425   3.220   2.572   9.099 -0.8365 -0.3767 -0.0646
    6CHL1   C22  426   2.946   2.517   9.062 -0.0657  0.0738  0.7329
    6CHL1  H22A  427   2.850   2.460   9.064  1.1196 -2.0983 -0.6240
    6CHL1  H22B  428   2.908   2.618   9.036 -0.2432 -0.3194 -0.6340
    6CHL1   C23  429   3.027   2.477   8.934 -0.0018 -0.7035  0.4243
    6CHL1  H23A  430   3.086   2.568   8.908  0.3117 -0.6858  1.1566
    6CHL1  H23B  431   3.100   2.400   8.967  1.4175 -0.2065 -1.3826
    6CHL1   C24  432   2.945   2.446   8.810 -0.2845 -0.4307 -0.4014
    6CHL1  H24A  433   2.891   2.348   8.812 -0.2018 -0.4740 -0.2958
    6CHL1  H24B  434   2.870   2.528   8.799  1.2614  1.1327  0.3099
    6CHL1   C25  435   3.020   2.435   8.681  0.9207 -0.0271  0.4611
    6CHL1   H25  436   3.083   2.526   8.672  1.0688 -0.1726  0.0333
    6CHL1   C26  437   3.109   2.314   8.661  0.3370  0.3435  0.4134
    6CHL1  H26A  438   3.137   2.309   8.554 -1.1247 -0.6089  0.0454
    6CHL1  H26B  439   3.202   2.335   8.719  1.1325  0.9246 -1.0337
    6CHL1  H26C  440   3.053   2.226   8.699  1.0549  0.5411  2.0436
    6CHL1   C27  441   2.907   2.437   8.577 -0.6688  0.7240  0.5045
    6CHL1  H27A  442   2.866   2.540   8.575 -1.4196  0.4265 -1.1239
    6CHL1  H27B  443   2.948   2.407   8.477 -0.4601 -1.4136  1.1762
    6CHL1  H27C  444   2.826   2.365   8.598  0.4166 -0.3161  1.2319
    7CHL1    C3  445   6.183   4.170  10.094  0.0377 -0.0402 -0.0305
    7CHL1    H3  446   6.218   4.065  10.089  1.6740  0.5409 -3.4589
    7CHL1    O3  447   6.175   4.198  10.231 -0.0894 -0.2640  0.3355
    7CHL1   H3'  448   6.147   4.290  10.230  0.6364 -0.0389 -0.9969
    7CHL1    C4  449   6.277   4.265  10.020 -0.2537 -0.2951  0.8599
    7CHL1   H4A  450   6.237   4.368  10.034 -2.4741 -1.2508  1.9101
    7CHL1   H4B  451   6.376   4.244  10.066  0.3024 -1.0907 -0.6439
    7CHL1    C5  452   6.292   4.215   9.876 -0.2016  0.5395 -0.0543
    7CHL1    C6  453   6.414   4.178   9.826  0.2839 -0.5572  0.1987
    7CHL1    H6  454   6.506   4.179   9.885 -1.5988 -1.7950  3.4109
    7CHL1    C7  455   6.433   4.118   9.690 -0.6938 -0.1245  0.3588
    7CHL1   H7A  456   6.527   4.160   9.648  0.3799  0.2421  2.9632
    7CHL1   H7B  457   6.456   4.009   9.692  1.9559  0.3713  1.5516
    7CHL1    C8  458   6.314   4.158   9.598 -0.7701 -0.7418  0.1453
    7CHL1    H8  459   6.318   4.266   9.569 -0.7223 -1.2301 -1.7837
    7CHL1   C14  460   6.329   4.082   9.468  0.2470  0.1419  0.4112
    7CHL1   H14  461   6.311   3.976   9.494  1.1412 -0.2455 -0.4526
    7CHL1   C15  462   6.463   4.079   9.388 -0.5485 -0.0745 -1.2624
    7CHL1  H15A  463   6.519   4.175   9.392 -0.7012 -0.0314  1.1512
    7CHL1  H15B  464   6.528   3.997   9.425 -1.5008 -1.0107 -1.6222
    7CHL1   C16  465   6.418   4.036   9.249 -0.0935 -0.3779 -0.0736
    7CHL1  H16A  466   6.442   4.115   9.175 -1.1859 -0.3198 -0.3808
    7CHL1  H16B  467   6.481   3.950   9.217 -0.0378 -0.0029 -1.0097
    7CHL1   C17  468   6.263   4.028   9.243  0.6157  0.0536 -0.1912
    7CHL1   H17  469   6.246   3.923   9.277 -0.3316  0.4586  0.6457
    7CHL1   C13  470   6.214   4.108   9.363  0.6023  0.0925  0.4907
    7CHL1   C18  471   6.198   4.256   9.316 -0.0519  0.0524 -0.2257
    7CHL1  H18A  472   6.204   4.325   9.402  0.9308 -1.4594  0.9752
    7CHL1  H18B  473   6.268   4.292   9.237 -1.2798 -0.0497 -1.4086
    7CHL1  H18C  474   6.096   4.263   9.271 -0.0279 -0.4591 -0.3690
    7CHL1   C12  475   6.085   4.053   9.425  0.0092 -0.4335  0.0412
    7CHL1  H12A  476   5.987   4.070   9.375  0.7538 -0.0102 -1.3331
    7CHL1  H12B  477   6.100   3.946   9.451  0.6260 -0.2531  0.4476
    7CHL1   C11  478   6.053   4.132   9.561 -0.4695 -0.6074 -0.6246
    7CHL1  H11A  479   6.025   4.238   9.543  5.5902  1.5315  0.3807
    7CHL1  H11B  480   5.968   4.080   9.611  1.0900 -1.6352  1.0586
    7CHL1    C9  481   6.176   4.132   9.656  1.2175 -0.1957  0.7379
    7CHL1    H9  482   6.182   4.026   9.688 -3.3276 -0.8166  0.2112
    7CHL1   C10  483   6.171   4.202   9.797  0.5858 -0.5474 -0.6659
    7CHL1   C19  484   6.133   4.355   9.774  0.8754  0.2119 -0.2194
    7CHL1  H19A  485   6.215   4.403   9.716 -0.1545  0.8402 -1.2065
    7CHL1  H19B  486   6.041   4.368   9.714  0.3875  1.4618  0.7563
    7CHL1  H19C  487   6.115   4.411   9.868 -1.8286 -0.5024 -0.2370
    7CHL1    C1  488   6.054   4.141   9.878 -0.1036 -0.5869 -0.1090
    7CHL1   H1A  489   5.962   4.174   9.826  0.2422 -0.9323 -0.9567
    7CHL1   H1B  490   6.075   4.032   9.869  0.7216 -0.3273 -1.4787
    7CHL1    C2  491   6.047   4.183  10.025 -0.3174  0.3027 -0.0002
    7CHL1   H2A  492   5.971   4.129  10.086 -2.0088  0.6525 -1.6979
    7CHL1   H2B  493   6.020   4.290  10.032  2.5532  1.0975  0.1121
    7CHL1   C20  494   6.203   4.039   9.102 -0.0846  0.0586  0.0813
    7CHL1   H20  495   6.230   4.145   9.083 -0.0038  0.4151  1.9643
    7CHL1   C21  496   6.042   4.025   9.093 -0.0309 -0.1829 -0.3423
    7CHL1  H21A  497   6.003   4.095   9.170  1.0149  1.2632 -1.0642
    7CHL1  H21B  498   6.018   3.920   9.118  0.0443  0.4627  2.8365
    7CHL1  H21C  499   6.002   4.056   8.994  2.0721  0.1567 -1.1347
    7CHL1   C22  500   6.266   3.953   8.993 -0.9139 -0.6614 -0.5825
    7CHL1  H22A  501   6.367   3.917   9.022 -0.0694  1.7266 -0.3416
    7CHL1  H22B  502   6.196   3.868   8.974 -1.4768 -0.5518  0.8572
    7CHL1   C23  503   6.287   4.019   8.859  0.1995  0.4874 -0.6454
    7CHL1  H23A  504   6.203   4.089   8.841 -1.2713 -0.3002  2.5104
    7CHL1  H23B  505   6.384   4.073   8.850 -0.3909  1.6609 -0.1669
    7CHL1   C24  506   6.286   3.926   8.738  0.3402 -0.4715  0.2083
    7CHL1  H24A  507   6.341   3.834   8.770  1.9571 -0.4297 -2.1564
    7CHL1  H24B  508   6.183   3.898   8.708 -0.5409  2.7044 -0.0305
    7CHL1   C25  509   6.346   3.982   8.614 -0.9760  0.5583 -0.6519
    7CHL1   H25  510   6.325   4.091   8.603  2.0761  1.4298  0.9024
    7CHL1   C26  511   6.500   3.957   8.619 -0.2120 -0.2195 -0.2794
    7CHL1  H26A  512   6.533   4.002   8.715 -1.8990 -0.2972  0.3671
    7CHL1  H26B  513   6.524   3.848   8.616 -0.1464 -0.1963 -0.6773
    7CHL1  H26C  514   6.554   4.008   8.537 -0.5951 -1.2879 -1.2201
    7CHL1   C27  515   6.286   3.920   8.490 -0.7057 -1.0318  0.1303
    7CHL1  H27A  516   6.271   3.810   8.491  0.4502 -1.2338 -1.1456
    7CHL1  H27B  517   6.191   3.974   8.472  1.7544  2.9959 -2.6603
    7CHL1  H27C  518   6.347   3.953   8.403 -1.2656 -0.8042 -0.1767
    8CHL1    C3  519   5.640   6.690  10.287  0.8360 -0.2077 -0.4193
    8CHL1    H3  520   5.550   6.745  10.253  0.8838  0.3888  0.3856
    8CHL1    O3  521   5.654   6.706  10.430 -0.2291  0.0621  0.3368
    8CHL1   H3'  522   5.734   6.662  10.459  0.1364  1.0378  0.8586
    8CHL1    C4  523   5.631   6.544  10.255  0.6356  0.2734 -0.0821
    8CHL1   H4A  524   5.708   6.471  10.286 -0.6651 -0.8247  0.6843
    8CHL1   H4B  525   5.545   6.505  10.314  0.3673 -2.4397 -2.0339
    8CHL1    C5  526   5.604   6.522  10.103 -0.2504  0.3408 -0.9048
    8CHL1    C6  527   5.490   6.472  10.053 -0.6651  0.2858  0.2291
    8CHL1    H6  528   5.409   6.434  10.117 -1.9835 -2.2605 -2.7075
    8CHL1    C7  529   5.461   6.449   9.909 -0.5873  0.1081  0.2083
    8CHL1   H7A  530   5.414   6.350   9.891 -0.1263 -0.0709 -0.0284
    8CHL1   H7B  531   5.392   6.535   9.889 -0.6056  0.0464  0.0079
    8CHL1    C8  532   5.584   6.470   9.819  0.4188 -0.7356 -0.0620
    8CHL1    H8  533   5.647   6.379   9.818 -0.1809 -1.1628 -1.1558
    8CHL1   C14  534   5.542   6.480   9.678  0.1243  0.0004  1.2459
    8CHL1   H14  535   5.459   6.555   9.681 -0.9129 -0.6676 -3.2166
    8CHL1   C15  536   5.468   6.364   9.614  0.9304  0.3805 -1.0883
    8CHL1  H15A  537   5.523   6.274   9.650 -1.9661 -0.6404  1.1418
    8CHL1  H15B  538   5.367   6.355   9.657  1.6926  1.9731  1.2046
    8CHL1   C16  539   5.472   6.393   9.465  0.0695  0.6943  0.2982
    8CHL1  H16A  540   5.511   6.309   9.403  1.9912  1.4731  0.3744
    8CHL1  H16B  541   5.369   6.404   9.426  0.3104  2.0539 -0.0057
    8CHL1   C17  542   5.556   6.518   9.449  0.3979  0.3378  0.7516
    8CHL1   H17  543   5.485   6.601   9.463  0.7964  0.9090 -0.4363
    8CHL1   C13  544   5.647   6.516   9.573  0.0235 -0.3590  0.1888
    8CHL1   C18  545   5.756   6.408   9.562 -0.1421  0.2674  0.1912
    8CHL1  H18A  546   5.777   6.372   9.665 -3.0558  0.9539  1.1098
    8CHL1  H18B  547   5.721   6.324   9.498 -1.1760  1.1233 -0.3841
    8CHL1  H18C  548   5.845   6.451   9.511 -0.8452  1.1500 -0.3193
    8CHL1   C12  549   5.715   6.647   9.617 -0.3682  0.2692 -0.4251
    8CHL1  H12A  550   5.794   6.678   9.545  0.5365 -1.6449 -0.2985
    8CHL1  H12B  551   5.643   6.727   9.643 -0.8043 -1.2908  3.8800
    8CHL1   C11  552   5.772   6.630   9.762 -0.6354  0.4070 -0.2881
    8CHL1  H11A  553   5.854   6.555   9.767 -0.9478  0.1397  1.8805
    8CHL1  H11B  554   5.813   6.725   9.801 -1.5355  0.9090 -0.5402
    8CHL1    C9  555   5.662   6.593   9.863  0.9468  1.0508  0.2241
    8CHL1    H9  556   5.597   6.682   9.847  3.7827  2.9813 -1.4513
    8CHL1   C10  557   5.701   6.587  10.013  0.4482 -0.7297  0.0657
    8CHL1   C19  558   5.832   6.501  10.015 -0.6880 -0.3401 -0.0205
    8CHL1  H19A  559   5.832   6.413   9.947  1.5422 -0.7811  0.4933
    8CHL1  H19B  560   5.917   6.564   9.982 -1.0025 -0.3502 -0.8724
    8CHL1  H19C  561   5.850   6.466  10.119 -2.3030  0.2269  0.4811
    8CHL1    C1  562   5.726   6.728  10.055  0.3040  0.0480 -0.0274
    8CHL1   H1A  563   5.805   6.780   9.996 -0.2893  0.3520 -0.5763
    8CHL1   H1B  564   5.640   6.796  10.038  2.0802  2.5140  0.2171
    8CHL1    C2  565   5.751   6.748  10.210 -0.2752  0.6324  0.3826
    8CHL1   H2A  566   5.784   6.853  10.224 -0.0153  0.8112 -1.3016
    8CHL1   H2B  567   5.839   6.683  10.230 -0.3228  0.7825  1.1015
    8CHL1   C20  568   5.617   6.548   9.308  0.6359  0.2047 -0.1375
    8CHL1   H20  569   5.708   6.484   9.297 -0.3573 -1.1869 -0.5035
    8CHL1   C21  570   5.638   6.699   9.291 -0.0573  0.2416 -1.1782
    8CHL1  H21A  571   5.697   6.737   9.377  0.3301 -1.8863 -0.4606
    8CHL1  H21B  572   5.545   6.760   9.296  0.3740  0.8278  0.4203
    8CHL1  H21C  573   5.692   6.714   9.195  3.0666 -2.9208 -0.1070
    8CHL1   C22  574   5.522   6.494   9.198 -0.4732 -0.0382  0.5178
    8CHL1  H22A  575   5.537   6.384   9.196 -0.9531 -0.1741  2.3557
    8CHL1  H22B  576   5.418   6.517   9.228 -0.6833 -0.2991 -0.0101
    8CHL1   C23  577   5.548   6.545   9.057 -0.1602  0.8904  0.9806
    8CHL1  H23A  578   5.523   6.652   9.041 -2.2840  0.0525 -2.2349
    8CHL1  H23B  579   5.658   6.534   9.044 -0.1090  1.8238  0.5265
    8CHL1   C24  580   5.484   6.457   8.948  0.4797 -0.7415  0.0605
    8CHL1  H24A  581   5.527   6.475   8.847 -0.5439  1.9617  0.0377
    8CHL1  H24B  582   5.491   6.350   8.976 -0.6198 -1.2722 -1.5817
    8CHL1   C25  583   5.335   6.483   8.931 -0.5499  0.2459 -0.2897
    8CHL1   H25  584   5.289   6.499   9.031 -0.2857 -0.7550  0.0048
    8CHL1   C26  585   5.305   6.610   8.842 -0.6219  1.0202 -0.5058
    8CHL1  H26A  586   5.367   6.697   8.872 -2.4959  2.4908 -0.6879
    8CHL1  H26B  587   5.318   6.577   8.737  2.4682 -1.5539  0.5162
    8CHL1  H26C  588   5.199   6.643   8.852 -0.4873  1.5994 -0.9236
    8CHL1   C27  589   5.273   6.345   8.884  0.2153  0.0105  0.0703
    8CHL1  H27A  590   5.260   6.280   8.973  1.7601  2.4210  2.2215
    8CHL1  H27B  591   5.172   6.356   8.841  0.6854 -0.0947 -1.0904
    8CHL1  H27C  592   5.338   6.296   8.808  1.6221  1.0107  0.5798
    9CHL1    C3  593   3.273   3.264   9.923 -0.1509  0.3659 -0.7290
    9CHL1    H3  594   3.181   3.325   9.910 -0.3531  0.3371  0.4550
    9CHL1    O3  595   3.306   3.276  10.065 -0.2411  0.2788  0.3247
    9CHL1   H3'  596   3.335   3.187  10.086 -0.1722  0.2005 -0.0935
    9CHL1    C4  597   3.236   3.111   9.891 -0.5447 -0.3300  0.1642
    9CHL1   H4A  598   3.330   3.054   9.903  0.0688  0.5777 -0.2401
    9CHL1   H4B  599   3.157   3.091   9.966 -0.6081  0.7405  0.3967
    9CHL1    C5  600   3.191   3.103   9.747 -0.6564 -0.2811  0.3589
    9CHL1    C6  601   3.074   3.059   9.711  0.1931 -0.3177  0.6192
    9CHL1    H6  602   3.008   3.017   9.789 -1.3057 -1.1131 -0.9945
    9CHL1    C7  603   3.028   3.047   9.569  0.0804 -0.5571  0.2485
    9CHL1   H7A  604   2.992   2.942   9.562  1.3212 -1.0168  0.3979
    9CHL1   H7B  605   2.944   3.118   9.555  0.7757  0.2694  0.0996
    9CHL1    C8  606   3.134   3.072   9.474 -0.8147  0.2925 -0.0538
    9CHL1    H8  607   3.205   2.986   9.464 -0.4263  0.5988  0.0637
    9CHL1   C14  608   3.070   3.089   9.334 -0.3797 -0.3146 -0.9681
    9CHL1   H14  609   3.016   3.185   9.348 -0.6266 -0.6422  0.5403
    9CHL1   C15  610   2.944   3.004   9.286 -0.6452 -0.2689 -0.3835
    9CHL1  H15A  611   2.964   2.897   9.309 -1.2105 -0.4107 -0.5451
    9CHL1  H15B  612   2.850   3.030   9.338 -1.2546  0.8518 -1.9626
    9CHL1   C16  613   2.938   3.033   9.134  0.0972  0.5626  0.2969
    9CHL1  H16A  614   2.964   2.939   9.079 -1.3404  0.4912 -0.2942
    9CHL1  H16B  615   2.845   3.080   9.097  1.0341  2.4670  0.2447
    9CHL1   C17  616   3.063   3.119   9.096  0.1778 -0.4363  0.1992
    9CHL1   H17  617   3.025   3.223   9.106 -1.1805 -0.9997  1.1317
    9CHL1   C13  618   3.163   3.105   9.216 -0.4918 -0.2640  0.3047
    9CHL1   C18  619   3.239   2.973   9.206  0.2208  0.6296  0.1426
    9CHL1  H18A  620   3.168   2.890   9.182  0.0382  0.8329 -0.0212
    9CHL1  H18B  621   3.327   2.969   9.139  1.9076 -0.7179  2.3123
    9CHL1  H18C  622   3.291   2.938   9.298  1.1208  1.4032 -0.0614
    9CHL1   C12  623   3.257   3.223   9.249 -0.5801 -0.3423  0.2813
    9CHL1  H12A  624   3.330   3.246   9.169 -1.5865 -1.6208 -1.0494
    9CHL1  H12B  625   3.192   3.314   9.256 -0.2407  0.0251 -1.0542
    9CHL1   C11  626   3.322   3.215   9.390 -0.7737  0.2664 -0.2404
    9CHL1  H11A  627   3.382   3.122   9.385 -0.5833  0.4349 -1.8625
    9CHL1  H11B  628   3.395   3.295   9.415  1.5629 -1.7294 -0.3184
    9CHL1    C9  629   3.222   3.188   9.508  0.4071  0.6690  0.0341
    9CHL1    H9  630   3.157   3.276   9.527 -0.2891  0.3154 -0.6515
    9CHL1   C10  631   3.303   3.159   9.643  0.7429  0.1640 -0.2101
    9CHL1   C19  632   3.405   3.040   9.624 -0.7894 -0.2283  0.5264
    9CHL1  H19A  633   3.359   2.951   9.576  0.4614 -0.5744 -0.0805
    9CHL1  H19B  634   3.490   3.073   9.560 -0.5982 -0.2741  0.7560
    9CHL1  H19C  635   3.450   3.000   9.717 -0.8345 -0.7536  0.3218
    9CHL1    C1  636   3.352   3.295   9.697  0.8003  0.0875 -0.0746
    9CHL1   H1A  637   3.452   3.321   9.655  1.4253  0.5649  1.6401
    9CHL1   H1B  638   3.279   3.369   9.658  1.8797 -0.1167 -2.7160
    9CHL1    C2  639   3.388   3.313   9.841 -0.0297  0.2512 -0.0452
    9CHL1   H2A  640   3.425   3.417   9.857  1.4163 -0.0290 -1.2969
    9CHL1   H2B  641   3.474   3.246   9.863  1.4600  1.3342 -2.2306
    9CHL1   C20  642   3.128   3.088   8.964  0.3357  0.0120  0.3240
    9CHL1   H20  643   3.162   2.982   8.962  0.8121  0.1714 -0.1427
    9CHL1   C21  644   3.255   3.175   8.931 -0.2354 -0.1976  0.4140
    9CHL1  H21A  645   3.344   3.158   8.996  1.2750  2.2009 -0.9088
    9CHL1  H21B  646   3.218   3.278   8.948  1.9997  0.7902 -0.4324
    9CHL1  H21C  647   3.277   3.160   8.824 -0.3380  0.4945  0.2893
    9CHL1   C22  648   3.022   3.103   8.852  0.2317  0.5956 -0.1437
    9CHL1  H22A  649   2.918   3.075   8.881  0.0429  1.8665  0.4598
    9CHL1  H22B  650   3.019   3.208   8.817 -0.0684 -0.3147 -3.2005
    9CHL1   C23  651   3.051   3.023   8.723  0.0057  0.1791  0.5922
    9CHL1  H23A  652   3.160   3.029   8.703  0.1226  3.3853  1.5949
    9CHL1  H23B  653   3.027   2.916   8.741 -1.6021  0.4143  0.0233
    9CHL1   C24  654   2.970   3.061   8.599 -0.6442 -1.0363 -0.0315
    9CHL1  H24A  655   2.864   3.048   8.629  0.0540 -1.9656  2.1953
    9CHL1  H24B  656   2.984   3.166   8.564 -0.6094 -0.8241  0.6147
    9CHL1   C25  657   3.005   2.964   8.478 -0.4667 -0.0143 -0.2744
    9CHL1   H25  658   2.986   2.857   8.501  0.5630 -0.2621 -0.5298
    9CHL1   C26  659   2.918   3.008   8.357 -0.4396 -0.9068  0.4484
    9CHL1  H26A  660   2.810   3.010   8.384 -0.5363  0.3998  0.0263
    9CHL1  H26B  661   2.957   3.108   8.329  1.3404 -1.6228  0.1977
    9CHL1  H26C  662   2.946   2.935   8.277  2.1376 -0.0843  0.5285
    9CHL1   C27  663   3.156   2.967   8.440 -0.6338 -0.1090  0.7218
    9CHL1  H27A  664   3.186   3.074   8.431  3.2652 -1.1177 -0.2531
    9CHL1  H27B  665   3.215   2.914   8.517  2.7414  0.5790 -1.1777
    9CHL1  H27C  666   3.187   2.910   8.350 -0.7537 -0.5553  0.9590
   10CHL1    C3  667   1.522   6.504  10.190  0.0870 -0.0820  0.2801
   10CHL1    H3  668   1.475   6.603  10.177  0.5478  0.4175  2.1717
   10CHL1    O3  669   1.590   6.518  10.311 -0.2819  0.4130 -0.2582
   10CHL1   H3'  670   1.599   6.429  10.345  0.2813  0.6332  0.1922
   10CHL1    C4  671   1.408   6.405  10.201 -0.7899  0.2392 -0.1852
   10CHL1   H4A  672   1.451   6.309  10.235 -1.3586  1.0691  3.2552
   10CHL1   H4B  673   1.353   6.441  10.291  3.3872 -0.4779  2.9641
   10CHL1    C5  674   1.328   6.388  10.074 -0.3145  0.4391 -0.5914
   10CHL1    C6  675   1.194   6.406  10.062 -0.5362 -0.5198  0.3619
   10CHL1    H6  676   1.135   6.433  10.151 -2.1005  5.0832 -1.9015
   10CHL1    C7  677   1.110   6.366   9.949  0.0735 -0.0417  0.0620
   10CHL1   H7A  678   1.043   6.292   9.996 -1.3731  0.3801 -1.2496
   10CHL1   H7B  679   1.050   6.450   9.909  0.4410 -0.3096 -1.0951
   10CHL1    C8  680   1.195   6.294   9.840 -0.1088 -0.3924  0.5343
   10CHL1    H8  681   1.189   6.186   9.866 -2.0004 -1.2390 -2.8214
   10CHL1   C14  682   1.127   6.319   9.703 -0.1569  0.0798  0.2390
   10CHL1   H14  683   1.144   6.423   9.668  1.5405 -0.3379 -0.3113
   10CHL1   C15  684   0.974   6.295   9.693  0.0453  0.9498  0.4585
   10CHL1  H15A  685   0.931   6.233   9.775  0.4030  1.2746  0.9021
   10CHL1  H15B  686   0.922   6.393   9.696 -2.9083 -0.4824 -0.5115
   10CHL1   C16  687   0.954   6.250   9.550  0.1967  0.2725 -0.1941
   10CHL1  H16A  688   0.898   6.155   9.545  0.2131  0.3396 -3.1210
   10CHL1  H16B  689   0.898   6.324   9.488  0.4869  0.3269 -0.3892
   10CHL1   C17  690   1.093   6.257   9.475  0.3455 -0.1568  0.3503
   10CHL1   H17  691   1.110   6.363   9.445  0.4535 -0.7528 -1.8555
   10CHL1   C13  692   1.194   6.233   9.591  0.1596 -0.0280  0.2588
   10CHL1   C18  693   1.200   6.090   9.627  0.0659  0.8450 -0.5599
   10CHL1  H18A  694   1.102   6.045   9.655 -0.8590  1.2532 -2.9088
   10CHL1  H18B  695   1.243   6.028   9.546  0.3569 -2.8083  2.1388
   10CHL1  H18C  696   1.277   6.079   9.706 -1.4753  1.3800  1.0813
   10CHL1   C12  697   1.334   6.299   9.572 -0.0164 -1.0024  0.1426
   10CHL1  H12A  698   1.385   6.232   9.499 -0.9706 -2.3586  0.6700
   10CHL1  H12B  699   1.324   6.406   9.545 -0.1105 -1.0654 -0.0789
   10CHL1   C11  700   1.414   6.301   9.700  0.2993  1.1377  0.2040
   10CHL1  H11A  701   1.455   6.199   9.713  1.0645  1.4416  0.2298
   10CHL1  H11B  702   1.506   6.363   9.691 -0.1384  1.6897 -0.7022
   10CHL1    C9  703   1.339   6.353   9.828 -0.0784  0.7207  0.0236
   10CHL1    H9  704   1.330   6.460   9.798  1.5630  0.4903 -1.4536
   10CHL1   C10  705   1.412   6.340   9.955 -0.8298 -0.2816 -0.3440
   10CHL1   C19  706   1.465   6.196   9.976  0.3225 -0.8011  0.2651
   10CHL1  H19A  707   1.387   6.125   9.941 -0.6182  1.9056 -3.9320
   10CHL1  H19B  708   1.555   6.189   9.911  0.9948  2.4442  0.6351
   10CHL1  H19C  709   1.488   6.178  10.084 -1.0240  3.5353  1.5091
   10CHL1    C1  710   1.539   6.433   9.950 -0.0180 -0.1099 -0.4497
   10CHL1   H1A  711   1.614   6.394   9.878  0.5770 -1.6354  0.9494
   10CHL1   H1B  712   1.500   6.531   9.913 -1.5825 -0.3971  0.3201
   10CHL1    C2  713   1.621   6.463  10.079  1.0169  0.6103 -0.3715
   10CHL1   H2A  714   1.689   6.549  10.062  3.0726 -0.6444  1.0279
   10CHL1   H2B  715   1.687   6.375  10.097 -1.1156 -0.5542  2.4696
   10CHL1   C20  716   1.088   6.164   9.349  0.6919 -0.5297 -0.0290
   10CHL1   H20  717   1.058   6.060   9.371 -3.0601  0.2027 -1.0715
   10CHL1   C21  718   1.229   6.158   9.292 -0.7820 -0.5174 -0.0367
   10CHL1  H21A  719   1.249   6.107   9.195 -1.6539 -0.6071 -0.1714
   10CHL1  H21B  720   1.292   6.098   9.361  0.8602  0.8314 -0.2915
   10CHL1  H21C  721   1.279   6.257   9.290  1.0147 -1.3294  1.5458
   10CHL1   C22  722   0.989   6.216   9.245 -0.0124  1.1800 -0.2560
   10CHL1  H22A  723   0.892   6.242   9.290  0.6049 -0.4626  2.2150
   10CHL1  H22B  724   1.046   6.302   9.205 -0.9126  1.8133 -0.1857
   10CHL1   C23  725   0.955   6.119   9.133  0.2751  0.6789  0.1640
   10CHL1  H23A  726   1.051   6.080   9.095 -0.5433 -1.5720  0.2497
   10CHL1  H23B  727   0.911   6.027   9.180  1.7905 -0.1603 -0.0171
   10CHL1   C24  728   0.863   6.180   9.031 -0.1154 -0.2221 -0.0046
   10CHL1  H24A  729   0.772   6.194   9.094  0.5183 -0.4875  0.9999
   10CHL1  H24B  730   0.908   6.278   9.006  2.3690 -0.2129  3.7109
   10CHL1   C25  731   0.844   6.096   8.901 -0.7528  0.2211  0.1078
   10CHL1   H25  732   0.821   5.992   8.932  2.2624 -0.9655 -1.1984
   10CHL1   C26  733   0.738   6.157   8.811  0.3686  0.4193  1.2996
   10CHL1  H26A  734   0.774   6.255   8.773 -0.6631  0.2403 -0.1961
   10CHL1  H26B  735   0.708   6.105   8.718  0.6817  1.8833  0.3340
   10CHL1  H26C  736   0.649   6.175   8.874 -0.8150  1.2466 -0.5213
   10CHL1   C27  737   0.985   6.093   8.824  1.0454  0.0105 -0.3899
   10CHL1  H27A  738   1.024   6.194   8.801 -1.4137  1.0539 -0.2438
   10CHL1  H27B  739   1.055   6.047   8.896  0.7664 -0.9260 -0.7008
   10CHL1  H27C  740   0.983   6.028   8.733 -2.0233  0.1958 -0.5719
   11CHL1    C3  741   4.843   5.771  10.033 -0.7559  0.7788 -0.4752
   11CHL1    H3  742   4.922   5.845  10.007  1.4993 -1.7545 -1.2016
   11CHL1    O3  743   4.855   5.738  10.168  0.1203  0.3206 -0.2580
   11CHL1   H3'  744   4.788   5.672  10.188  1.4683 -0.7616  0.8858
   11CHL1    C4  745   4.703   5.815   9.988 -0.9190 -0.8072  0.0919
   11CHL1   H4A  746   4.643   5.728  10.021 -0.5740  0.1262  3.5949
   11CHL1   H4B  747   4.657   5.895  10.050 -0.7835 -2.5349  2.5670
   11CHL1    C5  748   4.703   5.835   9.833 -0.1033 -0.8429 -0.9115
   11CHL1    C6  749   4.660   5.957   9.784 -0.7170 -0.6046 -0.1489
   11CHL1    H6  750   4.635   6.044   9.847 -0.5758  0.0528 -0.9878
   11CHL1    C7  751   4.637   5.989   9.641  0.1546 -0.0695  0.1213
   11CHL1   H7A  752   4.534   6.024   9.618  0.0645 -1.5944 -2.0044
   11CHL1   H7B  753   4.711   6.064   9.607  0.5300 -0.7115 -0.5073
   11CHL1    C8  754   4.657   5.859   9.555  0.5003  0.7418 -0.2100
   11CHL1    H8  755   4.562   5.807   9.580 -0.2544  2.2574  0.2158
   11CHL1   C14  756   4.673   5.898   9.407  0.2852 -0.1550 -0.2905
   11CHL1   H14  757   4.766   5.960   9.409 -1.1573  2.1083  0.3674
   11CHL1   C15  758   4.566   5.992   9.348  0.3642  0.3467 -0.1795
   11CHL1  H15A  759   4.464   5.947   9.356  1.5493 -2.3169  1.2498
   11CHL1  H15B  760   4.576   6.098   9.378  2.3228  1.6549 -4.5760
   11CHL1   C16  761   4.610   5.990   9.203 -0.0664  0.0410 -0.1961
   11CHL1  H16A  762   4.518   5.982   9.140 -0.2370  0.6242 -0.0291
   11CHL1  H16B  763   4.672   6.081   9.184 -0.6593  0.5972  0.4460
   11CHL1   C17  764   4.701   5.863   9.174 -0.2391  0.5502 -0.7495
   11CHL1   H17  765   4.801   5.907   9.156 -0.2254  0.6502 -0.4458
   11CHL1   C13  766   4.699   5.782   9.304  0.4706  0.0540 -0.0929
   11CHL1   C18  767   4.574   5.689   9.296  0.0259 -0.0763  0.4598
   11CHL1  H18A  768   4.483   5.750   9.276  0.6139  0.4886 -0.5858
   11CHL1  H18B  769   4.591   5.608   9.222  0.3833 -1.2937  1.8450
   11CHL1  H18C  770   4.556   5.632   9.390 -0.6475  0.2506  0.5392
   11CHL1   C12  771   4.827   5.707   9.354 -0.3795  0.2499  0.7703
   11CHL1  H12A  772   4.849   5.621   9.288 -1.4015  2.0544 -2.1019
   11CHL1  H12B  773   4.906   5.785   9.354  2.1425 -2.1755 -0.2929
   11CHL1   C11  774   4.819   5.662   9.499  0.2442 -0.1045  0.2282
   11CHL1  H11A  775   4.749   5.576   9.503 -0.1163  0.1896  0.3761
   11CHL1  H11B  776   4.922   5.638   9.534  0.1959  0.8467  1.0829
   11CHL1    C9  777   4.779   5.773   9.600 -0.1967  0.5942 -0.1178
   11CHL1    H9  778   4.873   5.832   9.605  1.0708 -1.1790 -1.5902
   11CHL1   C10  779   4.755   5.717   9.750  0.2828 -0.0966  0.3753
   11CHL1   C19  780   4.644   5.604   9.752 -0.3028  0.2031  0.0131
   11CHL1  H19A  781   4.679   5.515   9.695 -0.2700 -0.0508  0.4269
   11CHL1  H19B  782   4.620   5.566   9.853 -2.7439  2.0412  0.2097
   11CHL1  H19C  783   4.550   5.646   9.710 -0.7238 -1.6979 -1.0544
   11CHL1    C1  784   4.886   5.663   9.807 -0.3114 -0.1067 -0.0322
   11CHL1   H1A  785   4.917   5.568   9.760 -1.8506 -0.5944 -0.1013
   11CHL1   H1B  786   4.956   5.749   9.799  0.4978 -0.6639  0.8503
   11CHL1    C2  787   4.877   5.639   9.955  0.2959  0.7063  0.3990
   11CHL1   H2A  788   4.975   5.595   9.983 -1.6356 -4.4759  0.0370
   11CHL1   H2B  789   4.811   5.555   9.984  0.7221  0.3706  0.4047
   11CHL1   C20  790   4.669   5.794   9.045  0.6286 -0.2432  0.3035
   11CHL1   H20  791   4.579   5.729   9.052  1.8941 -2.0287  0.7166
   11CHL1   C21  792   4.769   5.683   9.010 -0.4422  0.0008  0.2798
   11CHL1  H21A  793   4.873   5.720   8.993 -0.5794 -0.0220 -0.6459
   11CHL1  H21B  794   4.727   5.634   8.920 -3.4706  0.0075  1.5865
   11CHL1  H21C  795   4.762   5.598   9.081  0.7803 -0.6904 -0.3891
   11CHL1   C22  796   4.663   5.889   8.924  0.5807 -0.3229 -0.4156
   11CHL1  H22A  797   4.595   5.975   8.945 -0.0747 -0.1955 -2.7187
   11CHL1  H22B  798   4.765   5.922   8.896  0.3939  0.8348  0.2182
   11CHL1   C23  799   4.599   5.838   8.788  0.5507 -0.1193 -0.2745
   11CHL1  H23A  800   4.629   5.737   8.753 -1.7922 -0.8526 -0.2964
   11CHL1  H23B  801   4.488   5.840   8.794  0.6162 -0.5583  1.7273
   11CHL1   C24  802   4.635   5.941   8.674 -0.3204  0.1710 -0.1762
   11CHL1  H24A  803   4.582   6.036   8.695 -0.2732  0.0395  0.5735
   11CHL1  H24B  804   4.743   5.958   8.688 -0.5166  3.0032 -1.4722
   11CHL1   C25  805   4.593   5.901   8.530  0.5755 -0.1388 -0.4062
   11CHL1   H25  806   4.665   5.820   8.508  0.0457 -0.6541 -0.2646
   11CHL1   C26  807   4.451   5.843   8.505 -0.3138  0.2394  0.4116
   11CHL1  H26A  808   4.443   5.792   8.406  0.6306 -0.2888  0.6002
   11CHL1  H26B  809   4.428   5.778   8.592 -0.6065  1.9210  1.6415
   11CHL1  H26C  810   4.373   5.921   8.495  0.7170  1.1661 -0.6624
   11CHL1   C27  811   4.632   6.011   8.429  0.4723 -0.1937 -0.5666
   11CHL1  H27A  812   4.732   6.052   8.453  0.1043 -0.1805  1.0404
   11CHL1  H27B  813   4.634   5.982   8.322  0.9843 -0.2550 -0.5456
   11CHL1  H27C  814   4.561   6.096   8.432 -0.8037 -1.2110 -0.7604
   12CHL1    C3  815   5.765   0.381  10.085 -0.3768  0.1681  0.3586
   12CHL1    H3  816   5.826   0.289  10.096  0.0905  0.2868 -1.0176
   12CHL1    O3  817   5.703   0.436  10.205  0.3308  0.3201 -0.2965
   12CHL1   H3'  818   5.716   0.364  10.267 -0.2024  0.1480 -0.3794
   12CHL1    C4  819   5.848   0.488  10.008 -0.6960  0.7091 -0.1541
   12CHL1   H4A  820   5.784   0.578  10.003 -0.6361  0.7130 -1.2035
   12CHL1   H4B  821   5.938   0.512  10.069 -0.9423 -0.2675  0.6241
   12CHL1    C5  822   5.888   0.440   9.875 -0.3135 -0.1716  0.5527
   12CHL1    C6  823   6.018   0.426   9.844  0.1306 -0.2599  0.1240
   12CHL1    H6  824   6.086   0.464   9.922 -2.7720  1.5432  2.0051
   12CHL1    C7  825   6.056   0.368   9.713 -0.8897 -0.9589  0.7358
   12CHL1   H7A  826   6.153   0.415   9.688 -1.6189 -0.5435 -1.5800
   12CHL1   H7B  827   6.081   0.260   9.720  0.4239 -0.7527 -0.3542
   12CHL1    C8  828   5.960   0.375   9.601 -0.0291  0.2072  0.0536
   12CHL1    H8  829   5.939   0.482   9.582  2.0768  0.6036 -0.2706
   12CHL1   C14  830   5.999   0.301   9.476  0.5645  0.5856  0.5835
   12CHL1   H14  831   6.011   0.193   9.496  5.1427  0.8925  0.6581
   12CHL1   C15  832   6.139   0.334   9.416 -0.5427 -0.2618  0.7330
   12CHL1  H15A  833   6.148   0.445   9.408  1.4322 -0.3402  1.4348
   12CHL1  H15B  834   6.223   0.296   9.478 -0.0822  1.4431  1.2183
   12CHL1   C16  835   6.136   0.289   9.269  0.3560  0.2160  0.1992
   12CHL1  H16A  836   6.167   0.365   9.194  0.2390 -2.8712 -3.2715
   12CHL1  H16B  837   6.200   0.200   9.253 -0.5677 -0.2849 -0.8081
   12CHL1   C17  838   5.991   0.250   9.250 -0.1462 -1.0481  0.5194
   12CHL1   H17  839   5.983   0.140   9.261 -0.1913 -1.1794 -0.7476
   12CHL1   C13  840   5.906   0.309   9.360  0.4030 -0.2786  0.5522
   12CHL1   C18  841   5.878   0.461   9.331  0.0882  0.9050 -0.4458
   12CHL1  H18A  842   5.854   0.521   9.421 -2.7354 -0.1409 -0.3966
   12CHL1  H18B  843   5.975   0.496   9.289  2.5331 -3.1906  1.1604
   12CHL1  H18C  844   5.788   0.465   9.265  0.0951  1.0433 -0.4463
   12CHL1   C12  845   5.778   0.234   9.411  0.1869  0.5241 -0.0360
   12CHL1  H12A  846   5.703   0.234   9.330 -1.6110  0.8674  1.5586
   12CHL1  H12B  847   5.808   0.128   9.429  0.6857  0.7240  0.3448
   12CHL1   C11  848   5.722   0.282   9.550 -0.7891 -1.0940 -0.2089
   12CHL1  H11A  849   5.681   0.380   9.519  2.7927  0.1732 -1.3511
   12CHL1  H11B  850   5.646   0.205   9.576 -0.9897 -0.6231  0.6485
   12CHL1    C9  851   5.832   0.313   9.655  0.2239  0.0202 -0.3537
   12CHL1    H9  852   5.845   0.209   9.690 -0.5802  0.1615  0.4185
   12CHL1   C10  853   5.777   0.386   9.792  0.1775 -0.0016  0.6711
   12CHL1   C19  854   5.691   0.515   9.756 -0.1595  0.0133 -0.4972
   12CHL1  H19A  855   5.589   0.481   9.728 -0.1200  0.9197 -1.8521
   12CHL1  H19B  856   5.676   0.594   9.833 -1.3169 -0.9382  0.2882
   12CHL1  H19C  857   5.734   0.563   9.666  1.1601 -0.8068 -0.3370
   12CHL1    C1  858   5.683   0.290   9.867  0.2848  0.5938 -0.5605
   12CHL1   H1A  859   5.590   0.269   9.811  0.9990 -2.4819 -0.7762
   12CHL1   H1B  860   5.734   0.192   9.877 -0.0115  0.3893 -1.0107
   12CHL1    C2  861   5.639   0.344  10.002  0.2629 -0.9004  0.6160
   12CHL1   H2A  862   5.579   0.275  10.064  0.9912  1.1547  3.8173
   12CHL1   H2B  863   5.579   0.437   9.986  1.4990 -0.1613  0.1627
   12CHL1   C20  864   5.938   0.266   9.103 -0.1401 -0.0654 -0.0328
   12CHL1   H20  865   5.829   0.282   9.119 -0.2377 -0.9509  0.2510
   12CHL1   C21  866   5.957   0.133   9.030 -0.3624  0.3715 -0.1420
   12CHL1  H21A  867   5.904   0.050   9.081 -1.0596 -0.8386 -2.6594
   12CHL1  H21B  868   6.064   0.104   9.030 -0.3837  0.2959  0.4321
   12CHL1  H21C  869   5.924   0.142   8.924 -1.7004  0.6505  0.2701
   12CHL1   C22  870   5.991   0.389   9.023 -0.8432  0.1446  0.2104
   12CHL1  H22A  871   5.965   0.483   9.076  1.3536  0.8731  0.1137
   12CHL1  H22B  872   6.102   0.397   9.012 -0.5606 -0.1815  2.3110
   12CHL1   C23  873   5.910   0.408   8.897  0.1666 -0.6304  0.3428
   12CHL1  H23A  874   5.934   0.347   8.807 -0.6883  0.0565 -0.3594
   12CHL1  H23B  875   5.803   0.383   8.913  0.6353 -2.2067  1.3470
   12CHL1   C24  876   5.924   0.554   8.844 -0.2242  0.5083 -0.4119
   12CHL1  H24A  877   5.856   0.618   8.904 -0.9493 -1.3021  0.7929
   12CHL1  H24B  878   6.028   0.590   8.855  0.0990 -0.6529  0.6116
   12CHL1   C25  879   5.894   0.555   8.693  0.3565  1.0748  0.2875
   12CHL1   H25  880   5.974   0.504   8.635 -1.7628 -2.3770  0.1364
   12CHL1   C26  881   5.758   0.490   8.656  0.1419 -0.0246 -0.6070
   12CHL1  H26A  882   5.732   0.522   8.553  1.3698 -0.9629 -1.2468
   12CHL1  H26B  883   5.768   0.380   8.673  0.6512  0.0190 -0.5893
   12CHL1  H26C  884   5.684   0.521   8.732 -0.1492 -2.3822  0.1710
   12CHL1   C27  885   5.894   0.700   8.644  0.1568  0.0257 -0.2230
   12CHL1  H27A  886   5.965   0.759   8.706 -0.3390 -1.2474  1.6350
   12CHL1  H27B  887   5.935   0.704   8.541  1.2498 -1.2993  0.1264
   12CHL1  H27C  888   5.792   0.744   8.650  0.3484  0.6304 -1.2557
   13CHL1    C3  889   5.571   2.278  10.045 -0.0734 -0.7464 -0.3997
   13CHL1    H3  890   5.634   2.361  10.084  0.9669 -1.7392  0.1007
   13CHL1    O3  891   5.504   2.222  10.158 -0.0837 -0.0532 -0.1544
   13CHL1   H3'  892   5.459   2.151  10.113  1.4131 -1.0569 -0.1384
   13CHL1    C4  893   5.469   2.332   9.950  0.1442  0.1163  0.2463
   13CHL1   H4A  894   5.401   2.253   9.912  0.9661 -0.1326 -0.7527
   13CHL1   H4B  895   5.402   2.404  10.003  1.2577  1.9409 -0.7092
   13CHL1    C5  896   5.526   2.395   9.826 -0.4089  0.5949 -0.1343
   13CHL1    C6  897   5.506   2.521   9.791 -0.8226  0.2939 -0.2943
   13CHL1    H6  898   5.451   2.598   9.848  0.3868  2.4159 -1.8292
   13CHL1    C7  899   5.551   2.571   9.657  0.8541  0.6020 -0.0329
   13CHL1   H7A  900   5.466   2.625   9.611  0.0999 -0.0094  0.6345
   13CHL1   H7B  901   5.628   2.649   9.678  0.8253  0.8037 -0.6581
   13CHL1    C8  902   5.612   2.468   9.558 -0.0199  0.2824 -0.3427
   13CHL1    H8  903   5.531   2.406   9.514 -0.4121 -0.2606  1.0760
   13CHL1   C14  904   5.691   2.536   9.454 -0.1750 -0.5231  0.3746
   13CHL1   H14  905   5.766   2.590   9.516 -1.2601 -1.5555  2.7122
   13CHL1   C15  906   5.624   2.647   9.372 -0.3952  0.0609  0.3396
   13CHL1  H15A  907   5.522   2.608   9.356  0.5342 -2.9998  1.1376
   13CHL1  H15B  908   5.634   2.746   9.422 -0.9175  0.7127 -0.8274
   13CHL1   C16  909   5.705   2.649   9.242 -0.2924 -0.3707 -1.0781
   13CHL1  H16A  910   5.630   2.620   9.165 -1.3838  0.3812 -0.3234
   13CHL1  H16B  911   5.753   2.747   9.222 -0.6980  0.3914  1.3831
   13CHL1   C17  912   5.820   2.540   9.251  0.2823  0.3671 -0.1234
   13CHL1   H17  913   5.902   2.594   9.303  0.9176 -2.1323  1.6733
   13CHL1   C13  914   5.760   2.442   9.350 -0.1742 -0.2942 -0.5371
   13CHL1   C18  915   5.646   2.365   9.286  0.5440  1.2361  0.3225
   13CHL1  H18A  916   5.575   2.434   9.235 -0.0394  1.9139  1.9802
   13CHL1  H18B  917   5.685   2.303   9.202 -2.1260 -1.7595  1.0915
   13CHL1  H18C  918   5.577   2.303   9.348 -1.5336  1.6934 -1.4453
   13CHL1   C12  919   5.850   2.335   9.430 -0.7808 -0.0426  0.4190
   13CHL1  H12A  920   5.890   2.264   9.354  0.6327  0.4149  0.7011
   13CHL1  H12B  921   5.937   2.386   9.478  0.6506 -1.4615 -0.5454
   13CHL1   C11  922   5.765   2.271   9.534 -0.1020  0.1086 -0.0719
   13CHL1  H11A  923   5.689   2.214   9.477  1.0186  0.1322 -1.6924
   13CHL1  H11B  924   5.827   2.208   9.602  1.3507 -0.0900 -1.5014
   13CHL1    C9  925   5.700   2.370   9.635 -0.6888 -0.6338  0.1467
   13CHL1    H9  926   5.785   2.429   9.675  1.3875 -1.9345 -2.0286
   13CHL1   C10  927   5.618   2.292   9.749  0.5249 -0.0754  0.8906
   13CHL1   C19  928   5.526   2.189   9.686 -0.0050 -1.1550  0.0434
   13CHL1  H19A  929   5.585   2.103   9.646 -2.2699 -2.4078 -0.7553
   13CHL1  H19B  930   5.447   2.144   9.750 -1.1859  1.9983  0.9672
   13CHL1  H19C  931   5.466   2.232   9.604  1.2991 -0.1210 -0.4059
   13CHL1    C1  932   5.714   2.231   9.852 -0.1571  0.6209 -0.1953
   13CHL1   H1A  933   5.780   2.156   9.804  2.1826  1.0785  2.0896
   13CHL1   H1B  934   5.786   2.302   9.897  1.1596 -1.2071  0.7255
   13CHL1    C2  935   5.653   2.167   9.978  0.0716 -0.6167  0.0672
   13CHL1   H2A  936   5.732   2.130  10.046  0.2388 -1.7408 -0.7160
   13CHL1   H2B  937   5.586   2.084   9.947  0.3212 -0.1444 -1.8712
   13CHL1   C20  938   5.878   2.492   9.117  0.3443 -0.4040  0.2479
   13CHL1   H20  939   5.803   2.418   9.082  0.1380  0.6075 -1.6192
   13CHL1   C21  940   6.009   2.426   9.138 -0.0807  0.3449 -0.3274
   13CHL1  H21A  941   6.088   2.503   9.154  0.9748 -0.7667 -0.0488
   13CHL1  H21B  942   6.050   2.365   9.055  1.8816  0.2911  0.6246
   13CHL1  H21C  943   6.003   2.357   9.225  0.9450 -1.2401 -1.4531
   13CHL1   C22  944   5.883   2.599   9.010  0.7394  0.4605 -0.1128
   13CHL1  H22A  945   5.778   2.636   9.004  0.1204 -1.1023  0.5182
   13CHL1  H22B  946   5.955   2.677   9.042  0.6761 -0.2364  1.8186
   13CHL1   C23  947   5.924   2.545   8.879 -0.9291  0.4657  0.0192
   13CHL1  H23A  948   6.021   2.491   8.883 -1.0883  0.1398 -0.4315
   13CHL1  H23B  949   5.857   2.462   8.849  0.4490  0.0237 -2.1005
   13CHL1   C24  950   5.931   2.636   8.755  0.1380 -0.2812  0.1313
   13CHL1  H24A  951   6.002   2.718   8.778 -0.4656  1.2791 -3.0900
   13CHL1  H24B  952   5.970   2.575   8.671 -0.5291 -1.2588  0.5048
   13CHL1   C25  953   5.803   2.708   8.708  0.2279  0.4380 -0.0434
   13CHL1   H25  954   5.764   2.764   8.795 -1.8821 -0.8823 -0.0628
   13CHL1   C26  955   5.807   2.800   8.583 -0.0594  0.2859 -0.1738
   13CHL1  H26A  956   5.829   2.741   8.492 -2.5353 -0.1157 -0.6032
   13CHL1  H26B  957   5.711   2.857   8.581 -0.6552 -0.7164 -0.3720
   13CHL1  H26C  958   5.885   2.878   8.599  2.9156 -2.8077  1.6771
   13CHL1   C27  959   5.698   2.602   8.676 -0.3970 -0.0074 -0.4096
   13CHL1  H27A  960   5.716   2.515   8.609 -3.2983 -0.5689 -0.5966
   13CHL1  H27B  961   5.669   2.547   8.767  3.8633 -4.0127 -1.0976
   13CHL1  H27C  962   5.606   2.651   8.635 -0.8097  0.1632  0.6956
   14CHL1    C3  963   4.514   4.246  10.048  0.5849 -0.0772  0.6296
   14CHL1    H3  964   4.451   4.156  10.033 -0.4444  0.8391 -0.8118
   14CHL1    O3  965   4.559   4.273  10.182 -0.8823  0.7299  0.9453
   14CHL1   H3'  966   4.634   4.334  10.181  1.2738 -1.7450  0.6944
   14CHL1    C4  967   4.642   4.236   9.951  0.2714 -0.4503  0.6158
   14CHL1   H4A  968   4.695   4.331   9.972 -0.1934  0.0902 -0.5428
   14CHL1   H4B  969   4.703   4.152   9.989  0.8818  1.1934  3.6488
   14CHL1    C5  970   4.606   4.229   9.802  0.5290  0.6646 -0.2303
   14CHL1    C6  971   4.654   4.126   9.722 -0.2380  0.3496  0.5314
   14CHL1    H6  972   4.707   4.046   9.777  2.0829  0.4181 -1.4595
   14CHL1    C7  973   4.604   4.102   9.586 -0.8596  0.2434 -0.5819
   14CHL1   H7A  974   4.683   4.046   9.532  0.4882  0.3110  1.2195
   14CHL1   H7B  975   4.510   4.042   9.583 -0.7569  0.0800 -0.4978
   14CHL1    C8  976   4.555   4.242   9.526 -0.4387  0.5762  0.2031
   14CHL1    H8  977   4.641   4.312   9.520 -0.1349  0.3236  1.2637
   14CHL1   C14  978   4.495   4.207   9.385  0.2938 -0.0806  0.1313
   14CHL1   H14  979   4.419   4.128   9.402  0.0381  0.3175  0.8691
   14CHL1   C15  980   4.581   4.144   9.278 -0.1005 -0.3326 -0.0824
   14CHL1  H15A  981   4.687   4.174   9.269  0.1758 -0.7548  1.4514
   14CHL1  H15B  982   4.577   4.036   9.305 -0.5870  0.3901  3.1588
   14CHL1   C16  983   4.517   4.178   9.149 -0.0882 -0.1239 -0.4245
   14CHL1  H16A  984   4.594   4.228   9.087 -1.4579  0.1870 -1.9280
   14CHL1  H16B  985   4.489   4.085   9.095 -0.0636  1.4318 -3.3030
   14CHL1   C17  986   4.392   4.263   9.177 -0.7506 -0.0307  0.4092
   14CHL1   H17  987   4.311   4.188   9.189 -1.5440  0.5246 -1.2438
   14CHL1   C13  988   4.428   4.322   9.315 -0.0833  0.1590 -0.3989
   14CHL1   C18  989   4.529   4.439   9.288  0.1207  0.4748  0.7764
   14CHL1  H18A  990   4.610   4.407   9.218 -1.0079 -0.4926 -0.1331
   14CHL1  H18B  991   4.480   4.528   9.242  1.1772  0.6986  0.0516
   14CHL1  H18C  992   4.586   4.458   9.381 -0.9536  0.1802  1.5121
   14CHL1   C12  993   4.320   4.373   9.406  0.7922 -0.0488 -0.5034
   14CHL1  H12A  994   4.278   4.460   9.350  0.7885  0.3565  0.1188
   14CHL1  H12B  995   4.240   4.297   9.422 -0.5933  1.6586  1.1464
   14CHL1   C11  996   4.373   4.419   9.546  0.5245 -0.7384  0.1717
   14CHL1  H11A  997   4.433   4.512   9.538 -0.2596 -0.3521 -1.6699
   14CHL1  H11B  998   4.290   4.451   9.613  1.5801 -2.1695  2.2567
   14CHL1    C9  999   4.450   4.301   9.616 -0.4393 -0.0750  0.6643
   14CHL1    H9 1000   4.384   4.213   9.631  1.5540 -1.7824 -0.0930
   14CHL1   C10 1001   4.500   4.331   9.758  0.3406 -0.0443  0.8082
   14CHL1   C19 1002   4.572   4.467   9.757 -0.3330  0.4795 -0.0746
   14CHL1  H19A 1003   4.499   4.543   9.721 -1.4718 -0.5936 -0.0989
   14CHL1  H19B 1004   4.597   4.490   9.863 -1.8569 -2.7614  1.1310
   14CHL1  H19C 1005   4.666   4.472   9.698  0.7639  0.7418  1.6444
   14CHL1    C1 1006   4.376   4.347   9.849 -0.2176  0.9126 -0.3416
   14CHL1   H1A 1007   4.320   4.437   9.816 -0.5252  0.7466 -0.2844
   14CHL1   H1B 1008   4.304   4.262   9.841  0.1058  0.6292 -0.2832
   14CHL1    C2 1009   4.414   4.358  10.001 -0.2350  0.6275 -0.3387
   14CHL1   H2A 1010   4.322   4.368  10.063 -0.3553  0.3147 -0.4635
   14CHL1   H2B 1011   4.471   4.451  10.017 -3.4614  2.1885  3.7221
   14CHL1   C20 1012   4.350   4.353   9.054 -0.2321 -0.4772 -0.1412
   14CHL1   H20 1013   4.413   4.444   9.041  0.4925 -0.5508  2.2004
   14CHL1   C21 1014   4.201   4.408   9.078 -0.9003 -0.2480 -0.1773
   14CHL1  H21A 1015   4.206   4.477   9.165 -0.1404 -0.6012  0.0648
   14CHL1  H21B 1016   4.128   4.327   9.100 -1.1512 -0.4635 -1.7280
   14CHL1  H21C 1017   4.174   4.463   8.985  0.5287 -1.1805 -1.1761
   14CHL1   C22 1018   4.347   4.271   8.923 -0.3486 -0.1854  0.0557
   14CHL1  H22A 1019   4.452   4.258   8.888 -0.1250 -2.9846  1.5201
   14CHL1  H22B 1020   4.314   4.168   8.949 -1.5459  0.1063 -0.2337
   14CHL1   C23 1021   4.263   4.316   8.804 -0.0052  0.3378 -0.6995
   14CHL1  H23A 1022   4.265   4.230   8.734 -3.7920  1.1465 -2.0036
   14CHL1  H23B 1023   4.155   4.340   8.815  0.2027  0.3656  1.8192
   14CHL1   C24 1024   4.332   4.426   8.719 -0.3747 -0.0577 -0.4173
   14CHL1  H24A 1025   4.374   4.498   8.791 -0.2553 -1.0996  0.5830
   14CHL1  H24B 1026   4.422   4.381   8.670 -1.3010 -1.7914 -0.6222
   14CHL1   C25 1027   4.239   4.488   8.618 -0.9910 -0.1026  0.1887
   14CHL1   H25 1028   4.154   4.534   8.675  0.9608  1.2053  2.2078
   14CHL1   C26 1029   4.321   4.591   8.540  0.2288  1.0029 -0.3711
   14CHL1  H26A 1030   4.405   4.544   8.485  0.1894  0.4795  0.0049
   14CHL1  H26B 1031   4.251   4.630   8.464 -3.1196 -0.9758  1.4280
   14CHL1  H26C 1032   4.351   4.673   8.609  1.5314  0.5894 -0.4122
   14CHL1   C27 1033   4.183   4.382   8.532 -0.4329  0.1630 -0.3320
   14CHL1  H27A 1034   4.266   4.310   8.516  1.1430  0.8976  3.4431
   14CHL1  H27B 1035   4.102   4.334   8.592 -0.5237  0.4412 -0.2289
   14CHL1  H27C 1036   4.133   4.423   8.441  0.2164  0.8118 -0.4011
   15CHL1    C3 1037   5.463   4.530  10.253 -0.0779 -0.4117  0.5560
   15CHL1    H3 1038   5.472   4.420  10.266 -0.0087 -0.4900 -0.1175
   15CHL1    O3 1039   5.441   4.590  10.377 -0.2355  0.2009 -0.0383
   15CHL1   H3' 1040   5.394   4.527  10.432 -0.8702 -0.2209 -1.0387
   15CHL1    C4 1041   5.594   4.576  10.201 -0.8490 -0.0319 -0.3122
   15CHL1   H4A 1042   5.609   4.686  10.206  3.2969 -0.4753  0.1923
   15CHL1   H4B 1043   5.673   4.534  10.266  0.6078  1.1075 -1.2912
   15CHL1    C5 1044   5.615   4.531  10.056 -0.1616  0.3004 -0.0094
   15CHL1    C6 1045   5.727   4.468  10.022  0.3522 -0.3166 -0.2656
   15CHL1    H6 1046   5.811   4.451  10.092 -1.5222 -1.2223  1.8877
   15CHL1    C7 1047   5.741   4.421   9.876  0.2650 -0.8249 -0.5803
   15CHL1   H7A 1048   5.846   4.442   9.846  0.9032 -2.2893  0.5039
   15CHL1   H7B 1049   5.724   4.312   9.889 -2.1185 -0.3613  1.0035
   15CHL1    C8 1050   5.651   4.477   9.767  0.7472 -0.1820 -0.7148
   15CHL1    H8 1051   5.686   4.578   9.737 -1.2547  0.7566 -0.0582
   15CHL1   C14 1052   5.651   4.392   9.636 -0.2068  0.3139  0.0429
   15CHL1   H14 1053   5.610   4.291   9.658 -1.0637  0.6186 -0.1224
   15CHL1   C15 1054   5.790   4.349   9.591  0.1855  0.7221  0.4979
   15CHL1  H15A 1055   5.858   4.436   9.582  0.6499  0.7370  3.3360
   15CHL1  H15B 1056   5.830   4.275   9.663  2.5170  0.6085 -0.8199
   15CHL1   C16 1057   5.768   4.289   9.451 -0.4687 -0.0170  0.5320
   15CHL1  H16A 1058   5.832   4.345   9.379 -1.0204  0.5140  0.4391
   15CHL1  H16B 1059   5.788   4.180   9.450 -0.2361  0.0114 -1.2678
   15CHL1   C17 1060   5.619   4.329   9.423 -0.2522  0.0272 -0.4705
   15CHL1   H17 1061   5.554   4.247   9.460 -0.2837  0.6471  0.8890
   15CHL1   C13 1062   5.579   4.444   9.520  0.4932 -0.8397  0.9867
   15CHL1   C18 1063   5.635   4.577   9.464  0.9220  0.5279 -0.0238
   15CHL1  H18A 1064   5.739   4.552   9.437  1.1081  0.5534  0.6461
   15CHL1  H18B 1065   5.569   4.605   9.380  0.3426 -0.7120 -0.0047
   15CHL1  H18C 1066   5.641   4.651   9.547  0.3028  0.5217  0.0363
   15CHL1   C12 1067   5.436   4.470   9.562 -0.4383 -0.8536 -0.1764
   15CHL1  H12A 1068   5.378   4.523   9.484 -0.8981  1.7687  1.7770
   15CHL1  H12B 1069   5.387   4.375   9.593 -0.9552  0.2732  2.7940
   15CHL1   C11 1070   5.422   4.551   9.699  0.3042  0.1944  0.0357
   15CHL1  H11A 1071   5.458   4.655   9.679 -2.0799  0.9660 -0.6061
   15CHL1  H11B 1072   5.316   4.561   9.731  0.5393  0.3888  0.7707
   15CHL1    C9 1073   5.506   4.491   9.814 -0.6500  0.1878 -0.0986
   15CHL1    H9 1074   5.472   4.388   9.836 -1.5795  0.7438  1.1210
   15CHL1   C10 1075   5.500   4.559   9.955 -0.1358  0.2465  0.2005
   15CHL1   C19 1076   5.501   4.717   9.935 -0.0989  0.5719  0.0396
   15CHL1  H19A 1077   5.409   4.763   9.893  0.8602  2.2651 -0.3163
   15CHL1  H19B 1078   5.504   4.768  10.034  0.8635  0.2894  0.1590
   15CHL1  H19C 1079   5.586   4.742   9.869 -1.1607 -0.6338 -1.8626
   15CHL1    C1 1080   5.371   4.514  10.028 -0.6487  0.7144 -0.4313
   15CHL1   H1A 1081   5.283   4.545   9.967 -1.3882 -1.3029 -0.4922
   15CHL1   H1B 1082   5.369   4.403  10.032  1.8532  0.6340  0.6915
   15CHL1    C2 1083   5.344   4.575  10.161 -0.3061 -0.1424 -0.2327
   15CHL1   H2A 1084   5.251   4.545  10.214 -0.4661  1.2496  0.3282
   15CHL1   H2B 1085   5.329   4.684  10.145  0.2025 -0.3984 -3.0844
   15CHL1   C20 1086   5.592   4.355   9.272 -0.4661 -0.0386 -0.6224
   15CHL1   H20 1087   5.641   4.449   9.239 -2.5736  0.9565 -1.0655
   15CHL1   C21 1088   5.448   4.373   9.241  0.0070  0.2475  0.7758
   15CHL1  H21A 1089   5.444   4.411   9.137 -1.7772  1.6067  1.2916
   15CHL1  H21B 1090   5.393   4.447   9.302 -1.8048  0.6306 -1.1891
   15CHL1  H21C 1091   5.388   4.280   9.256  0.2486  0.1560  1.1729
   15CHL1   C22 1092   5.653   4.250   9.188  0.0590  0.4994  0.4526
   15CHL1  H22A 1093   5.763   4.258   9.202  0.2590 -1.9451  0.7153
   15CHL1  H22B 1094   5.625   4.150   9.226 -3.3373  1.6229  1.2114
   15CHL1   C23 1095   5.634   4.262   9.037 -0.2204  0.5586  0.3939
   15CHL1  H23A 1096   5.552   4.197   9.001  0.9738 -0.7128 -0.1263
   15CHL1  H23B 1097   5.622   4.365   8.997  0.9563  1.6125  2.5598
   15CHL1   C24 1098   5.756   4.200   8.966 -0.1205 -0.8775  0.1955
   15CHL1  H24A 1099   5.847   4.244   9.012 -0.4623 -0.4874  0.5055
   15CHL1  H24B 1100   5.749   4.090   8.979  0.5056 -0.9976 -0.4067
   15CHL1   C25 1101   5.753   4.224   8.809 -0.1613 -0.0607  0.1912
   15CHL1   H25 1102   5.648   4.192   8.790  0.0371 -0.1140 -0.8714
   15CHL1   C26 1103   5.785   4.368   8.775  0.0444  0.6279 -0.1433
   15CHL1  H26A 1104   5.895   4.384   8.771  0.1731 -0.2859 -0.6364
   15CHL1  H26B 1105   5.751   4.375   8.669 -1.3025 -1.4760  0.0896
   15CHL1  H26C 1106   5.733   4.441   8.840  2.4884  2.9259 -0.5927
   15CHL1   C27 1107   5.849   4.137   8.732  0.1242  0.7297 -0.3315
   15CHL1  H27A 1108   5.836   4.161   8.624 -1.6888  0.3710 -0.2315
   15CHL1  H27B 1109   5.948   4.179   8.759  0.0752  1.5070 -1.2914
   15CHL1  H27C 1110   5.841   4.028   8.753  2.1516  0.7433  0.7792
   16CHL1    C3 1111   5.577   4.157  10.300  0.4474 -0.5867 -0.0895
   16CHL1    H3 1112   5.602   4.254  10.251 -0.9175 -1.1359 -1.9934
   16CHL1    O3 1113   5.550   4.181  10.439 -0.2102 -0.2399 -0.2197
   16CHL1   H3' 1114   5.474   4.129  10.464  0.3120 -0.1362  1.7603
   16CHL1    C4 1115   5.454   4.092  10.229 -0.4198 -0.1394 -0.2536
   16CHL1   H4A 1116   5.431   3.997  10.281  2.1481 -1.8066 -1.9075
   16CHL1   H4B 1117   5.364   4.156  10.243 -0.0602  0.5662 -1.0347
   16CHL1    C5 1118   5.480   4.067  10.083 -0.6275 -0.0282 -0.2046
   16CHL1    C6 1119   5.394   4.110   9.990 -0.1164  0.4958 -0.6836
   16CHL1    H6 1120   5.311   4.165  10.038  1.0225 -0.1482  2.2587
   16CHL1    C7 1121   5.403   4.091   9.838  0.5542 -0.2472  0.2888
   16CHL1   H7A 1122   5.308   4.064   9.787  0.5413 -0.6519  0.5175
   16CHL1   H7B 1123   5.438   4.182   9.786  0.5876 -1.6993 -2.3863
   16CHL1    C8 1124   5.498   3.969   9.811 -0.5623  0.5905  0.0023
   16CHL1    H8 1125   5.441   3.876   9.832  1.1317 -0.6917 -0.8047
   16CHL1   C14 1126   5.539   3.974   9.666 -0.0968 -0.2092  0.5526
   16CHL1   H14 1127   5.596   4.067   9.646 -1.2515  0.3304 -0.3389
   16CHL1   C15 1128   5.422   3.975   9.568 -0.5525  0.7104  0.5676
   16CHL1  H15A 1129   5.331   3.914   9.588 -0.0040 -0.8806 -1.4927
   16CHL1  H15B 1130   5.384   4.079   9.553  1.8222  1.6358  0.6465
   16CHL1   C16 1131   5.492   3.927   9.437  0.6553 -0.5996  0.1490
   16CHL1  H16A 1132   5.440   3.837   9.397  0.9600 -1.0481  0.7372
   16CHL1  H16B 1133   5.484   4.011   9.365 -0.6386 -0.0622  0.8892
   16CHL1   C17 1134   5.642   3.896   9.474 -0.3435 -0.2491  0.3439
   16CHL1   H17 1135   5.692   3.993   9.452 -0.8009  0.1172  0.8871
   16CHL1   C13 1136   5.643   3.871   9.620 -0.3848  0.2194 -0.0643
   16CHL1   C18 1137   5.587   3.729   9.636 -0.2332 -0.4005  0.7230
   16CHL1  H18A 1138   5.663   3.653   9.608 -0.7521 -0.7248  0.1775
   16CHL1  H18B 1139   5.555   3.696   9.738 -0.8368  1.6710  1.2389
   16CHL1  H18C 1140   5.501   3.715   9.568 -0.6685 -0.8413  1.3534
   16CHL1   C12 1141   5.771   3.899   9.697 -0.2226  1.2148 -0.7267
   16CHL1  H12A 1142   5.859   3.832   9.687  0.6940  2.1851  0.4036
   16CHL1  H12B 1143   5.809   4.002   9.677  0.8141  0.8322 -0.8384
   16CHL1   C11 1144   5.740   3.888   9.848 -0.0747  0.3853 -0.0315
   16CHL1  H11A 1145   5.711   3.784   9.873 -0.7218  0.5759  0.0308
   16CHL1  H11B 1146   5.827   3.918   9.909  0.0144  2.9407 -1.2778
   16CHL1    C9 1147   5.625   3.981   9.900  0.7699  0.6778  0.1164
   16CHL1    H9 1148   5.654   4.084   9.869 -0.1553  1.2683  1.1232
   16CHL1   C10 1149   5.596   3.983  10.052  0.4915  0.7543  0.5203
   16CHL1   C19 1150   5.574   3.829  10.098  0.5935  0.1139 -0.5236
   16CHL1  H19A 1151   5.509   3.785  10.019  0.3420 -0.5590  0.0470
   16CHL1  H19B 1152   5.676   3.787  10.112  0.1528 -0.4185  1.3073
   16CHL1  H19C 1153   5.520   3.826  10.195 -0.8044  5.6869 -0.8102
   16CHL1    C1 1154   5.724   4.035  10.136  0.2547 -0.0535 -1.0750
   16CHL1   H1A 1155   5.805   3.959  10.130 -0.3707 -0.9772  1.1126
   16CHL1   H1B 1156   5.756   4.131  10.090  1.6460  0.8373  1.5438
   16CHL1    C2 1157   5.696   4.067  10.283  0.2520 -0.3113  0.6211
   16CHL1   H2A 1158   5.779   4.112  10.342 -0.5379 -0.0763  1.5807
   16CHL1   H2B 1159   5.664   3.968  10.320  0.8740 -1.0243 -0.6862
   16CHL1   C20 1160   5.717   3.801   9.376 -0.1762  0.4046  0.4604
   16CHL1   H20 1161   5.677   3.698   9.384  2.6166 -0.9912 -1.5998
   16CHL1   C21 1162   5.866   3.772   9.410  0.0680 -0.3597 -0.0670
   16CHL1  H21A 1163   5.925   3.706   9.342  2.2455  1.5883 -0.1777
   16CHL1  H21B 1164   5.886   3.738   9.514  0.6587  0.8345  0.2153
   16CHL1  H21C 1165   5.914   3.871   9.399 -2.6700  1.0287 -0.3517
   16CHL1   C22 1166   5.704   3.836   9.230 -0.3120  0.5964 -0.5857
   16CHL1  H22A 1167   5.597   3.829   9.201 -0.2831 -1.9860 -0.3612
   16CHL1  H22B 1168   5.742   3.939   9.212 -0.3985  0.6809 -0.2833
   16CHL1   C23 1169   5.764   3.732   9.127  0.8885 -0.6129 -0.0356
   16CHL1  H23A 1170   5.874   3.723   9.137  1.2830  0.0736 -3.0118
   16CHL1  H23B 1171   5.717   3.634   9.148  1.0035 -0.6822 -0.0999
   16CHL1   C24 1172   5.747   3.780   8.982 -1.0459  1.1249 -1.0723
   16CHL1  H24A 1173   5.642   3.807   8.956 -2.5446 -2.2498  0.8468
   16CHL1  H24B 1174   5.821   3.863   8.981  2.2009 -1.5727 -1.3753
   16CHL1   C25 1175   5.797   3.686   8.868 -0.5995  0.0014 -0.1947
   16CHL1   H25 1176   5.750   3.735   8.780  2.0787  0.0104 -1.7027
   16CHL1   C26 1177   5.951   3.709   8.849 -0.1528  0.2403  0.3228
   16CHL1  H26A 1178   5.972   3.815   8.823 -0.4072  0.2015 -0.0472
   16CHL1  H26B 1179   6.010   3.686   8.941 -0.0676  1.5961  0.6305
   16CHL1  H26C 1180   5.993   3.647   8.767 -0.6307 -0.6525  0.7422
   16CHL1   C27 1181   5.771   3.536   8.888 -0.2385 -0.5882  0.7223
   16CHL1  H27A 1182   5.663   3.518   8.909 -0.8088  0.3729 -1.2194
   16CHL1  H27B 1183   5.801   3.492   8.791  2.5647  2.2329  0.1681
   16CHL1  H27C 1184   5.838   3.482   8.959  1.8362 -0.4011 -0.9738
   17CHL1    C3 1185   2.768   5.104  10.369  0.6294  0.0855  1.1359
   17CHL1    H3 1186   2.858   5.039  10.369  1.5493  1.2815  3.0175
   17CHL1    O3 1187   2.761   5.134  10.505 -0.5784  0.0982 -0.2673
   17CHL1   H3' 1188   2.667   5.150  10.515 -0.9114 -1.5382 -0.5019
   17CHL1    C4 1189   2.774   5.227  10.272 -0.4884 -0.4943  0.4538
   17CHL1   H4A 1190   2.670   5.266  10.281 -0.8335 -1.0655 -0.7351
   17CHL1   H4B 1191   2.857   5.292  10.307 -0.1099  0.5088 -2.0797
   17CHL1    C5 1192   2.782   5.177  10.130 -0.0632  0.0692  0.3454
   17CHL1    C6 1193   2.886   5.209  10.056 -0.2148 -0.2717 -0.0379
   17CHL1    H6 1194   2.953   5.285  10.099 -1.2052  0.6166 -0.0468
   17CHL1    C7 1195   2.902   5.174   9.911 -0.3037  0.2895  0.5808
   17CHL1   H7A 1196   2.908   5.262   9.844  2.0673 -0.1756  0.1235
   17CHL1   H7B 1197   2.992   5.110   9.899  1.1992  2.2380  1.0937
   17CHL1    C8 1198   2.765   5.104   9.846 -0.1423 -1.0069 -0.1006
   17CHL1    H8 1199   2.685   5.177   9.822 -1.4573 -3.2603 -3.0979
   17CHL1   C14 1200   2.797   5.028   9.711  0.3868 -0.1175  0.3410
   17CHL1   H14 1201   2.867   4.948   9.745 -0.3102 -1.2263 -0.7096
   17CHL1   C15 1202   2.874   5.112   9.611  0.7527  1.0573  0.7347
   17CHL1  H15A 1203   2.828   5.211   9.595 -0.9412 -0.0666 -2.4158
   17CHL1  H15B 1204   2.982   5.128   9.634  0.7027  1.4028  0.7195
   17CHL1   C16 1205   2.860   5.031   9.480 -0.2096  0.0115 -0.1040
   17CHL1  H16A 1206   2.840   5.099   9.395  1.6351  2.3106  1.1873
   17CHL1  H16B 1207   2.956   4.979   9.460 -0.9312 -1.3593 -0.1580
   17CHL1   C17 1208   2.747   4.924   9.510  0.8712 -0.1557  0.4337
   17CHL1   H17 1209   2.791   4.828   9.544 -1.6895 -1.2779  0.7615
   17CHL1   C13 1210   2.675   4.971   9.643  0.1993 -0.5403  0.2229
   17CHL1   C18 1211   2.569   5.085   9.606 -0.4985  0.6971  0.1834
   17CHL1  H18A 1212   2.480   5.048   9.552 -0.9239 -0.4826  1.5988
   17CHL1  H18B 1213   2.531   5.132   9.699 -2.2260  0.5203 -0.4125
   17CHL1  H18C 1214   2.619   5.164   9.547  1.7156 -0.1662  0.7735
   17CHL1   C12 1215   2.620   4.856   9.736  0.4575 -0.6257 -0.0710
   17CHL1  H12A 1216   2.531   4.805   9.695 -0.0265 -0.2403  0.4832
   17CHL1  H12B 1217   2.703   4.783   9.745 -0.3088 -1.7333 -1.5846
   17CHL1   C11 1218   2.590   4.922   9.878 -0.1096  0.2575 -0.4625
   17CHL1  H11A 1219   2.512   5.001   9.866  0.0607  0.2542 -1.6828
   17CHL1  H11B 1220   2.568   4.837   9.946  1.0464  0.2285 -0.1170
   17CHL1    C9 1221   2.707   5.001   9.942  0.1178 -0.7378  0.3055
   17CHL1    H9 1222   2.783   4.925   9.972 -1.4423 -1.6731  2.0727
   17CHL1   C10 1223   2.665   5.082  10.071 -0.4324  0.4111 -0.8906
   17CHL1   C19 1224   2.529   5.165  10.065 -0.1664 -0.3296  0.1803
   17CHL1  H19A 1225   2.444   5.107  10.024 -0.1417 -1.4991  1.6863
   17CHL1  H19B 1226   2.507   5.211  10.164  1.1540  1.0178 -0.1082
   17CHL1  H19C 1227   2.536   5.254   9.998 -2.3623  0.0473  0.3688
   17CHL1    C1 1228   2.652   4.966  10.181  0.4049  0.1215 -0.4220
   17CHL1   H1A 1229   2.581   4.884  10.157  1.4994 -0.7063 -0.9285
   17CHL1   H1B 1230   2.752   4.917  10.175  1.1780  1.6060 -0.2395
   17CHL1    C2 1231   2.648   5.013  10.329  0.6957  0.5541 -0.3679
   17CHL1   H2A 1232   2.632   4.926  10.396  0.8501  0.6101 -0.2581
   17CHL1   H2B 1233   2.555   5.071  10.351 -0.6717 -2.3577  2.2944
   17CHL1   C20 1234   2.660   4.894   9.384 -0.8032  0.1951 -0.5508
   17CHL1   H20 1235   2.605   4.986   9.355 -2.6779 -1.0461 -1.0906
   17CHL1   C21 1236   2.547   4.787   9.416 -0.1422  0.4929 -0.5265
   17CHL1  H21A 1237   2.471   4.784   9.335 -1.1036 -1.5062  0.3827
   17CHL1  H21B 1238   2.485   4.816   9.503  1.0613 -1.1909  0.9569
   17CHL1  H21C 1239   2.599   4.691   9.435 -0.0282  0.8803  1.3512
   17CHL1   C22 1240   2.744   4.857   9.253 -0.2567  0.4868 -0.0689
   17CHL1  H22A 1241   2.810   4.945   9.239 -1.9794  1.7057 -0.9437
   17CHL1  H22B 1242   2.805   4.767   9.276 -1.0220 -0.0632 -0.1497
   17CHL1   C23 1243   2.657   4.827   9.131  0.2827  0.2481 -0.5121
   17CHL1  H23A 1244   2.595   4.739   9.158 -0.8678  0.7884 -1.3037
   17CHL1  H23B 1245   2.580   4.906   9.136 -0.0600 -0.1475  2.2080
   17CHL1   C24 1246   2.736   4.814   8.996  0.4118  0.0149  0.2187
   17CHL1  H24A 1247   2.794   4.906   8.975  2.8855 -1.5247 -0.0851
   17CHL1  H24B 1248   2.816   4.738   9.004  0.7785  0.1493 -1.7442
   17CHL1   C25 1249   2.651   4.788   8.863 -0.3401 -0.2360 -0.1916
   17CHL1   H25 1250   2.590   4.880   8.847  3.3489  2.0921 -2.3398
   17CHL1   C26 1251   2.738   4.782   8.738  0.2377 -0.0303 -0.1649
   17CHL1  H26A 1252   2.808   4.696   8.733  1.0262  0.6384 -1.0894
   17CHL1  H26B 1253   2.668   4.763   8.653  0.1056  0.2594 -0.1209
   17CHL1  H26C 1254   2.793   4.877   8.722  0.1906 -0.1195 -0.9115
   17CHL1   C27 1255   2.556   4.665   8.865  0.3110  0.5923  0.5369
   17CHL1  H27A 1256   2.620   4.583   8.902 -0.3970 -0.2238 -0.0113
   17CHL1  H27B 1257   2.476   4.662   8.943 -0.3560  0.8049 -0.1300
   17CHL1  H27C 1258   2.524   4.656   8.759  0.8699  2.3602  0.1857
   18CHL1    C3 1259   0.797   5.837  10.145  0.5194 -0.7075 -0.3742
   18CHL1    H3 1260   0.711   5.908  10.143  0.0513 -1.2810 -0.8072
   18CHL1    O3 1261   0.840   5.833  10.284  0.7586  0.4024  0.0235
   18CHL1   H3' 1262   0.890   5.915  10.296 -1.2774  1.4688  1.7835
   18CHL1    C4 1263   0.752   5.702  10.090 -0.1170 -0.4615 -0.0472
   18CHL1   H4A 1264   0.833   5.628  10.113 -0.8521 -0.7740  1.7259
   18CHL1   H4B 1265   0.662   5.685  10.153  0.3743 -0.5753  0.6498
   18CHL1    C5 1266   0.730   5.714   9.940  0.6381 -0.2278  0.4010
   18CHL1    C6 1267   0.611   5.674   9.886 -0.5375 -0.3619 -0.2254
   18CHL1    H6 1268   0.533   5.625   9.948  1.7467 -1.8395  1.6561
   18CHL1    C7 1269   0.584   5.681   9.740 -0.7244 -0.3108  0.6213
   18CHL1   H7A 1270   0.519   5.593   9.721 -0.6851 -0.2888  0.3794
   18CHL1   H7B 1271   0.520   5.766   9.706  1.1073  0.5355 -0.8617
   18CHL1    C8 1272   0.707   5.675   9.656 -0.6061 -0.5406 -0.3123
   18CHL1    H8 1273   0.749   5.573   9.662 -1.0361 -0.6860  0.2751
   18CHL1   C14 1274   0.664   5.695   9.511  0.6120 -0.2196 -0.0219
   18CHL1   H14 1275   0.622   5.796   9.489  1.1208 -0.5803 -3.2272
   18CHL1   C15 1276   0.557   5.596   9.451 -0.5892 -0.4332  0.3050
   18CHL1  H15A 1277   0.579   5.495   9.490  2.9229 -0.3108 -1.0385
   18CHL1  H15B 1278   0.454   5.619   9.487 -0.5336 -2.2261  1.7466
   18CHL1   C16 1279   0.574   5.604   9.298  0.4906  0.4259  0.3405
   18CHL1  H16A 1280   0.584   5.501   9.258 -0.7197  0.8870 -1.2456
   18CHL1  H16B 1281   0.490   5.662   9.253 -1.2182 -0.3452  2.3693
   18CHL1   C17 1282   0.710   5.679   9.273  0.5650  0.2605  0.1232
   18CHL1   H17 1283   0.676   5.781   9.248 -0.8196  0.0008  0.8312
   18CHL1   C13 1284   0.777   5.685   9.413 -0.4741  0.4632  0.7608
   18CHL1   C18 1285   0.843   5.549   9.422  0.4537 -0.0620  0.2721
   18CHL1  H18A 1286   0.775   5.462   9.414 -0.8871  0.9706  0.2174
   18CHL1  H18B 1287   0.928   5.548   9.349  0.1248  2.1365 -0.2129
   18CHL1  H18C 1288   0.888   5.526   9.521 -2.2126 -1.1015  1.3402
   18CHL1   C12 1289   0.867   5.793   9.451 -0.1416 -0.4426  0.3053
   18CHL1  H12A 1290   0.941   5.814   9.371  0.8014 -0.7803  1.0803
   18CHL1  H12B 1291   0.803   5.884   9.448 -0.2915 -0.1072  5.2138
   18CHL1   C11 1292   0.933   5.784   9.585  0.2385 -0.1619 -0.3723
   18CHL1  H11A 1293   1.002   5.698   9.601  0.1992 -0.0502  0.4619
   18CHL1  H11B 1294   0.988   5.880   9.598 -0.8725  0.7354 -1.9981
   18CHL1    C9 1295   0.819   5.772   9.699 -0.5282 -0.2827 -0.3233
   18CHL1    H9 1296   0.768   5.870   9.685 -1.1706 -0.5345  0.2322
   18CHL1   C10 1297   0.850   5.753   9.848  0.0841 -0.4052  0.0887
   18CHL1   C19 1298   0.962   5.650   9.859  0.6549  0.7528 -0.4104
   18CHL1  H19A 1299   0.931   5.559   9.803  1.1635  0.1106  0.3366
   18CHL1  H19B 1300   1.061   5.683   9.820  1.7231 -1.3859  0.3206
   18CHL1  H19C 1301   0.980   5.628   9.966 -0.2572  0.6189 -0.2786
   18CHL1    C1 1302   0.893   5.886   9.908  0.1286 -0.4725  0.2519
   18CHL1   H1A 1303   0.996   5.896   9.869 -0.1569  2.3943  0.0567
   18CHL1   H1B 1304   0.826   5.966   9.870  2.7558  0.7787 -2.0953
   18CHL1    C2 1305   0.912   5.889  10.058 -0.1223  0.4075  0.5315
   18CHL1   H2A 1306   0.941   5.989  10.097 -0.1979  1.1268 -1.1495
   18CHL1   H2B 1307   0.996   5.820  10.080 -0.5626  0.0468  1.1100
   18CHL1   C20 1308   0.793   5.625   9.154 -0.5115  0.6094  0.1751
   18CHL1   H20 1309   0.829   5.524   9.180 -3.2812 -0.2716  1.0150
   18CHL1   C21 1310   0.905   5.723   9.119  0.3057  0.2457 -0.5511
   18CHL1  H21A 1311   0.944   5.693   9.020  1.5926  2.2349 -0.7160
   18CHL1  H21B 1312   0.993   5.725   9.188  0.0429  3.7285 -0.1289
   18CHL1  H21C 1313   0.860   5.824   9.103  0.7196  1.0268  2.5322
   18CHL1   C22 1314   0.707   5.597   9.026  0.5044  0.4243 -0.6439
   18CHL1  H22A 1315   0.760   5.547   8.942 -1.5445 -1.5202 -0.8854
   18CHL1  H22B 1316   0.623   5.528   9.051  1.9154 -1.1527 -0.0397
   18CHL1   C23 1317   0.657   5.732   8.960  0.4222  1.0424 -0.0710
   18CHL1  H23A 1318   0.613   5.809   9.028 -2.5433 -0.6665  0.1415
   18CHL1  H23B 1319   0.746   5.763   8.901  0.3660 -0.1716 -0.8369
   18CHL1   C24 1320   0.543   5.700   8.863 -0.3258 -0.7330  0.1974
   18CHL1  H24A 1321   0.584   5.616   8.802  2.1830 -0.2185  1.0653
   18CHL1  H24B 1322   0.445   5.674   8.910 -2.1541  4.4609 -0.1119
   18CHL1   C25 1323   0.533   5.813   8.749  0.9898  0.2383  0.1235
   18CHL1   H25 1324   0.635   5.847   8.722  1.1130  0.7008  1.1209
   18CHL1   C26 1325   0.489   5.747   8.613 -0.0126  0.0071 -0.2462
   18CHL1  H26A 1326   0.561   5.668   8.586 -0.4906 -1.2520  1.8898
   18CHL1  H26B 1327   0.385   5.712   8.630  0.4517 -0.2695  2.5821
   18CHL1  H26C 1328   0.497   5.821   8.531  0.4358  2.6211  2.0103
   18CHL1   C27 1329   0.444   5.934   8.784 -0.6342 -0.5954 -0.2376
   18CHL1  H27A 1330   0.432   5.997   8.693  0.8886  1.2240  0.7608
   18CHL1  H27B 1331   0.345   5.887   8.803 -0.4463 -0.9865 -0.2160
   18CHL1  H27C 1332   0.482   5.992   8.871 -1.4882 -1.3432  0.6526
   19CHL1    C3 1333   4.947   1.502  10.305 -0.5710  0.3215  0.0099
   19CHL1    H3 1334   4.932   1.605  10.343  0.4059  0.1298  0.9712
   19CHL1    O3 1335   5.045   1.443  10.390  0.7202  0.2639  0.1133
   19CHL1   H3' 1336   5.126   1.468  10.346  0.8695 -2.0992 -1.1133
   19CHL1    C4 1337   4.812   1.431  10.317  0.6735 -0.2155  0.8754
   19CHL1   H4A 1338   4.817   1.320  10.308  0.4084 -0.2182  0.7408
   19CHL1   H4B 1339   4.771   1.454  10.417  0.2454 -0.0290  0.6602
   19CHL1    C5 1340   4.711   1.479  10.210  0.3268  0.7560  0.1403
   19CHL1    C6 1341   4.581   1.519  10.242  0.3043  0.0955 -0.3287
   19CHL1    H6 1342   4.549   1.532  10.346  0.7240 -0.0524 -0.1768
   19CHL1    C7 1343   4.471   1.558  10.139  0.8307  0.4260  0.3779
   19CHL1   H7A 1344   4.375   1.514  10.173  1.1062 -1.6542 -1.3652
   19CHL1   H7B 1345   4.456   1.668  10.138 -1.3676  0.1853  1.8419
   19CHL1    C8 1346   4.512   1.508   9.997  0.0022 -0.5249 -0.6034
   19CHL1    H8 1347   4.496   1.398   9.998 -0.0002 -0.5512  1.8233
   19CHL1   C14 1348   4.417   1.570   9.897 -0.0808  0.2137  0.2218
   19CHL1   H14 1349   4.430   1.680   9.910  1.4356  0.0211  0.6003
   19CHL1   C15 1350   4.269   1.548   9.915 -0.2152  0.1484  0.4213
   19CHL1  H15A 1351   4.246   1.444   9.946 -2.1709  0.8833  1.6285
   19CHL1  H15B 1352   4.222   1.615   9.990 -1.1805 -0.4413  0.3637
   19CHL1   C16 1353   4.215   1.580   9.774  0.0923  0.4222  0.4375
   19CHL1  H16A 1354   4.140   1.504   9.746 -1.8062  2.1755  0.5204
   19CHL1  H16B 1355   4.169   1.681   9.775 -0.1146  0.3263  0.9142
   19CHL1   C17 1356   4.337   1.583   9.675  0.3990 -0.2319 -0.8443
   19CHL1   H17 1357   4.348   1.692   9.659  0.0379 -0.4343 -2.6450
   19CHL1   C13 1358   4.461   1.536   9.754  0.1221  0.1531 -0.3181
   19CHL1   C18 1359   4.470   1.379   9.726 -0.2550  0.7260  0.2680
   19CHL1  H18A 1360   4.546   1.331   9.791 -0.2302  0.4905  0.0671
   19CHL1  H18B 1361   4.381   1.328   9.768  1.2654  0.1442  3.0922
   19CHL1  H18C 1362   4.488   1.345   9.622 -1.4481  0.3255  0.1767
   19CHL1   C12 1363   4.595   1.600   9.726 -1.0533  0.5435  0.1451
   19CHL1  H12A 1364   4.644   1.570   9.631  0.3955 -0.5866  1.1923
   19CHL1  H12B 1365   4.587   1.709   9.747 -1.6681  0.8137 -1.3786
   19CHL1   C11 1366   4.707   1.546   9.825 -0.4143  0.6411 -0.1776
   19CHL1  H11A 1367   4.737   1.448   9.783 -1.7066  0.9157 -1.8485
   19CHL1  H11B 1368   4.798   1.610   9.828  0.5812 -0.7543  0.4753
   19CHL1    C9 1369   4.661   1.549   9.976  0.0626 -0.0773  0.3596
   19CHL1    H9 1370   4.670   1.655  10.008 -0.0466  0.0676 -0.0785
   19CHL1   C10 1371   4.763   1.473  10.064  0.1136 -0.4013 -0.2581
   19CHL1   C19 1372   4.772   1.327  10.030 -0.6208  0.4054  0.7515
   19CHL1  H19A 1373   4.793   1.309   9.923 -0.3696 -0.1029  0.8846
   19CHL1  H19B 1374   4.840   1.262  10.089 -0.5772  0.1067  0.3753
   19CHL1  H19C 1375   4.673   1.281  10.048 -1.4451  1.4767 -0.8182
   19CHL1    C1 1376   4.899   1.542  10.059  0.0425 -0.2442 -0.3982
   19CHL1   H1A 1377   4.950   1.503   9.969 -0.9491 -1.9265 -0.2710
   19CHL1   H1B 1378   4.888   1.652  10.045  0.1482 -0.1190  0.4184
   19CHL1    C2 1379   5.008   1.505  10.166  0.0844 -1.1198  0.2700
   19CHL1   H2A 1380   5.090   1.578  10.149 -0.6925 -0.0283  1.0587
   19CHL1   H2B 1381   5.052   1.407  10.139  1.1236 -0.9615  1.3576
   19CHL1   C20 1382   4.294   1.532   9.531  0.2540 -0.3743 -0.5894
   19CHL1   H20 1383   4.265   1.425   9.534 -3.5722  0.5040 -0.4002
   19CHL1   C21 1384   4.418   1.559   9.449 -0.7703  0.9345  0.0990
   19CHL1  H21A 1385   4.466   1.659   9.453  0.3672  0.4655 -1.0540
   19CHL1  H21B 1386   4.402   1.544   9.340  1.8366 -0.0512 -0.2260
   19CHL1  H21C 1387   4.499   1.489   9.481 -1.9623 -0.5067  0.0395
   19CHL1   C22 1388   4.176   1.611   9.465  0.4960  0.3134 -0.1029
   19CHL1  H22A 1389   4.096   1.633   9.539 -1.2812 -0.0052 -1.8670
   19CHL1  H22B 1390   4.222   1.707   9.433 -1.4316  0.9959 -0.9466
   19CHL1   C23 1391   4.114   1.547   9.340 -0.3724 -0.7573  0.2927
   19CHL1  H23A 1392   4.201   1.526   9.273  2.1017  1.7719  2.4727
   19CHL1  H23B 1393   4.069   1.445   9.350  1.7958 -1.8572 -0.5394
   19CHL1   C24 1394   4.006   1.640   9.272 -0.1372 -0.0057  0.3396
   19CHL1  H24A 1395   3.915   1.647   9.337 -0.5590 -0.6114 -0.1748
   19CHL1  H24B 1396   4.043   1.744   9.267  0.2659 -0.0489  1.8804
   19CHL1   C25 1397   3.956   1.574   9.137 -0.3057  0.1593 -0.0496
   19CHL1   H25 1398   3.947   1.468   9.169 -2.0032 -0.0938 -1.2232
   19CHL1   C26 1399   3.814   1.619   9.093 -0.2101  0.1493 -0.2771
   19CHL1  H26A 1400   3.752   1.552   9.029  0.6716  0.0197 -1.0058
   19CHL1  H26B 1401   3.755   1.626   9.187 -1.5215 -0.0453 -1.0620
   19CHL1  H26C 1402   3.810   1.717   9.042 -1.3502 -0.1327 -0.7618
   19CHL1   C27 1403   4.069   1.589   9.039  0.1194  0.3688  0.3493
   19CHL1  H27A 1404   4.107   1.693   9.053 -1.9325  1.0582  1.0734
   19CHL1  H27B 1405   4.155   1.520   9.057 -0.7762 -0.6994  0.5883
   19CHL1  H27C 1406   4.032   1.572   8.936 -1.4713  0.6943  0.8495
   20CHL1    C3 1407   0.652   3.236  10.127  0.1118 -0.1242  0.1675
   20CHL1    H3 1408   0.555   3.192  10.159 -0.5104  0.7785 -0.4356
   20CHL1    O3 1409   0.722   3.280  10.240 -0.0996 -0.3628  0.0816
   20CHL1   H3' 1410   0.798   3.330  10.209  0.5191 -0.4743  1.3704
   20CHL1    C4 1411   0.733   3.125  10.056 -0.1542  0.0190  0.2119
   20CHL1   H4A 1412   0.837   3.160  10.069  0.1432 -0.4466 -0.8161
   20CHL1   H4B 1413   0.731   3.035  10.121  2.9667 -0.5548 -0.3073
   20CHL1    C5 1414   0.701   3.095   9.912  0.0544  0.0490 -0.1481
   20CHL1    C6 1415   0.701   2.965   9.869  0.2482  0.1804  0.6315
   20CHL1    H6 1416   0.734   2.886   9.939 -0.5584 -1.3591 -0.6530
   20CHL1    C7 1417   0.660   2.923   9.731 -0.2793 -0.3786  0.1974
   20CHL1   H7A 1418   0.744   2.872   9.679 -0.7370  0.2092 -1.1644
   20CHL1   H7B 1419   0.575   2.852   9.731  0.0067 -0.7307 -0.1609
   20CHL1    C8 1420   0.638   3.042   9.635 -0.2754  0.2005  0.7317
   20CHL1    H8 1421   0.740   3.057   9.596  0.4990  0.2838  2.6853
   20CHL1   C14 1422   0.554   3.000   9.518 -0.3138 -0.5293  0.3828
   20CHL1   H14 1423   0.451   2.986   9.557 -0.1927 -1.6491  0.3123
   20CHL1   C15 1424   0.589   2.877   9.434 -1.0040  0.3195 -0.0099
   20CHL1  H15A 1425   0.699   2.878   9.416 -1.2379  0.3922 -1.5760
   20CHL1  H15B 1426   0.569   2.783   9.489 -1.2123  0.2571 -0.1893
   20CHL1   C16 1427   0.529   2.896   9.296 -0.3642  0.4250  0.1890
   20CHL1  H16A 1428   0.607   2.886   9.217 -1.0696  0.2968 -0.5003
   20CHL1  H16B 1429   0.448   2.821   9.284  0.8166 -1.1364  1.3428
   20CHL1   C17 1430   0.469   3.037   9.301  0.1092 -1.3488  0.1103
   20CHL1   H17 1431   0.363   3.036   9.335 -0.7685 -2.7093 -2.3917
   20CHL1   C13 1432   0.543   3.110   9.416 -0.4588 -0.7014  0.1460
   20CHL1   C18 1433   0.675   3.163   9.361 -0.2481 -0.1391 -0.3710
   20CHL1  H18A 1434   0.732   3.084   9.308  1.1197  1.3556 -1.2199
   20CHL1  H18B 1435   0.649   3.245   9.292 -0.4894  0.3351  0.2739
   20CHL1  H18C 1436   0.742   3.202   9.441 -0.8370 -0.4070  0.2656
   20CHL1   C12 1437   0.470   3.231   9.476  0.0101  0.5852 -0.0504
   20CHL1  H12A 1438   0.459   3.327   9.421 -1.3500  0.8629  0.6707
   20CHL1  H12B 1439   0.371   3.195   9.508  1.1978 -1.5605  1.4285
   20CHL1   C11 1440   0.538   3.282   9.598  0.1930  0.1270 -0.0588
   20CHL1  H11A 1441   0.634   3.330   9.570  1.1720  0.0567  2.8391
   20CHL1  H11B 1442   0.476   3.357   9.652 -2.4674 -1.3613 -0.8819
   20CHL1    C9 1443   0.574   3.167   9.702 -0.2816 -0.4018 -0.1087
   20CHL1    H9 1444   0.472   3.135   9.729 -1.3879  2.4423 -0.6056
   20CHL1   C10 1445   0.654   3.212   9.826  0.1132  0.1273  0.1030
   20CHL1   C19 1446   0.774   3.300   9.780 -0.2601 -0.3153 -0.1636
   20CHL1  H19A 1447   0.851   3.323   9.857 -0.4166  0.2217 -0.1703
   20CHL1  H19B 1448   0.830   3.251   9.697  0.7932 -0.9891  0.9052
   20CHL1  H19C 1449   0.732   3.396   9.745  0.0253 -0.7169 -1.7217
   20CHL1    C1 1450   0.561   3.304   9.912 -0.5457 -0.5068  0.1451
   20CHL1   H1A 1451   0.532   3.389   9.848 -1.2272 -1.1340 -0.3994
   20CHL1   H1B 1452   0.475   3.247   9.955 -0.3534 -2.1804 -1.5716
   20CHL1    C2 1453   0.625   3.360  10.046  0.6104 -0.1792 -0.2140
   20CHL1   H2A 1454   0.541   3.418  10.091  0.3838  0.4023 -1.3350
   20CHL1   H2B 1455   0.714   3.424  10.029  0.7520  0.7519  3.3187
   20CHL1   C20 1456   0.480   3.098   9.156  0.4535 -0.4315  0.2369
   20CHL1   H20 1457   0.586   3.127   9.138  0.7706 -0.2104  2.1754
   20CHL1   C21 1458   0.396   3.228   9.144 -0.5339  0.1502 -0.4431
   20CHL1  H21A 1459   0.399   3.261   9.038  3.4199  1.0303 -0.2004
   20CHL1  H21B 1460   0.448   3.305   9.205  0.4850 -0.4381 -0.5527
   20CHL1  H21C 1461   0.290   3.229   9.178 -1.5835  1.7605 -3.3600
   20CHL1   C22 1462   0.423   3.011   9.048 -0.3158 -0.3392 -0.1580
   20CHL1  H22A 1463   0.461   2.907   9.058  2.4131  0.6583  0.5379
   20CHL1  H22B 1464   0.313   3.011   9.063 -0.1214  1.5522  1.7866
   20CHL1   C23 1465   0.456   3.065   8.902  0.2870  0.2561 -0.5220
   20CHL1  H23A 1466   0.370   3.123   8.865  0.2249 -1.5441 -3.5527
   20CHL1  H23B 1467   0.541   3.137   8.909 -0.6319  1.4595 -1.3083
   20CHL1   C24 1468   0.470   2.946   8.808 -0.0624 -0.2897 -0.4457
   20CHL1  H24A 1469   0.552   2.886   8.851  0.3761  2.0729  2.2792
   20CHL1  H24B 1470   0.375   2.889   8.821 -1.6039  1.6498 -2.3341
   20CHL1   C25 1471   0.506   2.978   8.663  0.3147 -0.0826 -0.0336
   20CHL1   H25 1472   0.518   2.875   8.623  1.1426  0.3548 -0.9547
   20CHL1   C26 1473   0.398   3.046   8.580  0.1743 -0.0231  0.4862
   20CHL1  H26A 1474   0.303   2.996   8.610 -0.2589  0.7173  0.3755
   20CHL1  H26B 1475   0.417   3.155   8.584  0.8760  0.0277 -2.2062
   20CHL1  H26C 1476   0.411   3.021   8.472  0.8148  3.0499 -0.2200
   20CHL1   C27 1477   0.631   3.068   8.656 -0.1658  0.8305  0.1245
   20CHL1  H27A 1478   0.606   3.171   8.690 -1.4370  0.0820  1.5783
   20CHL1  H27B 1479   0.712   3.017   8.713 -1.9177 -1.2092  0.9110
   20CHL1  H27C 1480   0.671   3.079   8.552 -1.5182  2.3906 -0.2802
   21CHL1    C3 1481   6.090   2.344  10.164 -0.5079  0.3536  0.9158
   21CHL1    H3 1482   6.004   2.388  10.108 -0.5035 -0.9112 -0.1339
   21CHL1    O3 1483   6.064   2.316  10.297  0.5253 -0.4795 -0.2892
   21CHL1   H3' 1484   6.135   2.253  10.311  0.7016 -0.1756  0.2223
   21CHL1    C4 1485   6.122   2.209  10.100 -0.0471  0.0069  0.5736
   21CHL1   H4A 1486   6.203   2.154  10.152 -0.4256 -2.4472 -1.2791
   21CHL1   H4B 1487   6.038   2.137  10.105  0.7648 -0.9456  0.8421
   21CHL1    C5 1488   6.155   2.236   9.957 -0.0069  0.5391  0.1883
   21CHL1    C6 1489   6.085   2.183   9.852 -0.1393  0.6918 -0.3769
   21CHL1    H6 1490   5.992   2.130   9.878  0.6195 -0.7415 -0.4556
   21CHL1    C7 1491   6.125   2.201   9.706  0.2836  0.3906  0.5616
   21CHL1   H7A 1492   6.133   2.106   9.648 -0.8722 -0.7491  2.1812
   21CHL1   H7B 1493   6.039   2.260   9.667  0.8934  0.6752 -0.3873
   21CHL1    C8 1494   6.267   2.258   9.687  0.1631  0.3137 -0.5670
   21CHL1    H8 1495   6.349   2.188   9.709  0.3169  0.1996 -1.4702
   21CHL1   C14 1496   6.286   2.306   9.539  0.6903 -0.2076 -0.0523
   21CHL1   H14 1497   6.212   2.388   9.528  2.7806  1.9582  1.0961
   21CHL1   C15 1498   6.238   2.212   9.433 -0.0928 -0.3271 -0.3145
   21CHL1  H15A 1499   6.264   2.105   9.447 -0.0176 -0.4578 -1.3381
   21CHL1  H15B 1500   6.128   2.213   9.418 -0.1662 -2.0943 -0.0507
   21CHL1   C16 1501   6.308   2.271   9.312 -0.4910  0.4181  0.4797
   21CHL1  H16A 1502   6.388   2.209   9.267 -3.2489 -2.2580 -1.1211
   21CHL1  H16B 1503   6.236   2.288   9.229  1.3388 -1.4842 -1.6497
   21CHL1   C17 1504   6.393   2.395   9.355  0.1701  0.4536 -0.0972
   21CHL1   H17 1505   6.315   2.474   9.344 -0.3714 -0.3310 -2.6919
   21CHL1   C13 1506   6.420   2.369   9.500  0.7704  0.1075 -0.2995
   21CHL1   C18 1507   6.520   2.258   9.522  0.1934 -0.1600 -0.2139
   21CHL1  H18A 1508   6.618   2.291   9.483  0.8503 -1.2720  0.4268
   21CHL1  H18B 1509   6.533   2.217   9.625  0.7504 -0.8914 -0.5643
   21CHL1  H18C 1510   6.484   2.165   9.474 -1.6561 -0.2513  1.2470
   21CHL1   C12 1511   6.442   2.488   9.596 -0.2695  0.3584  0.4521
   21CHL1  H12A 1512   6.547   2.524   9.588  0.2586 -1.2858 -0.7891
   21CHL1  H12B 1513   6.372   2.569   9.567 -0.2126  0.3803  0.3750
   21CHL1   C11 1514   6.415   2.453   9.748  0.0969 -0.0486 -0.6056
   21CHL1  H11A 1515   6.508   2.400   9.777  0.5343  2.2537  2.6924
   21CHL1  H11B 1516   6.414   2.541   9.815 -1.7108 -2.8980  3.5771
   21CHL1    C9 1517   6.293   2.374   9.783  0.6479 -0.1706 -0.2404
   21CHL1    H9 1518   6.198   2.428   9.762 -0.3856  0.3713  4.5357
   21CHL1   C10 1519   6.273   2.332   9.933  0.2063  0.5161  0.1854
   21CHL1   C19 1520   6.400   2.255   9.972 -0.3086 -0.2131  1.0560
   21CHL1  H19A 1521   6.417   2.214  10.074  0.5779 -1.0141  0.6023
   21CHL1  H19B 1522   6.416   2.162   9.913 -0.2996 -0.2569  1.1272
   21CHL1  H19C 1523   6.485   2.324   9.951 -1.8926  1.2373 -0.9974
   21CHL1    C1 1524   6.244   2.463  10.017  0.5443 -0.6638 -0.1449
   21CHL1   H1A 1525   6.335   2.526  10.023  1.2832 -1.6970 -0.1170
   21CHL1   H1B 1526   6.168   2.530   9.974  3.2598  0.6602 -3.3245
   21CHL1    C2 1527   6.210   2.424  10.162  0.1651 -0.4899  0.3482
   21CHL1   H2A 1528   6.192   2.516  10.222  1.7300 -0.3449  0.6443
   21CHL1   H2B 1529   6.302   2.381  10.207  1.6888  1.0760 -1.0717
   21CHL1   C20 1530   6.502   2.437   9.261 -0.0972  0.7386  0.0493
   21CHL1   H20 1531   6.585   2.364   9.269 -1.0540 -0.5877 -1.4494
   21CHL1   C21 1532   6.559   2.574   9.311  0.1028  0.4141 -0.0528
   21CHL1  H21A 1533   6.481   2.643   9.349 -0.3293  0.8904 -1.7022
   21CHL1  H21B 1534   6.631   2.611   9.236 -0.1491  1.2763  0.1212
   21CHL1  H21C 1535   6.617   2.544   9.401  4.1015 -0.8925 -2.7769
   21CHL1   C22 1536   6.456   2.435   9.112  0.2270 -0.3529 -0.7032
   21CHL1  H22A 1537   6.411   2.336   9.088  1.3747 -1.1090  0.1421
   21CHL1  H22B 1538   6.364   2.494   9.094 -0.6972 -1.3006  0.7181
   21CHL1   C23 1539   6.560   2.455   9.005 -0.4355  0.3065 -0.2327
   21CHL1  H23A 1540   6.586   2.563   9.001  1.0685 -0.0530 -0.7839
   21CHL1  H23B 1541   6.644   2.398   9.050 -1.6898 -0.1037  1.7059
   21CHL1   C24 1542   6.525   2.408   8.863  0.1108 -0.6528 -1.1753
   21CHL1  H24A 1543   6.614   2.429   8.801  2.1511 -0.8890  1.4784
   21CHL1  H24B 1544   6.509   2.298   8.861 -0.6363 -0.5912  0.1990
   21CHL1   C25 1545   6.409   2.488   8.806  0.5222 -0.7955 -0.5472
   21CHL1   H25 1546   6.334   2.498   8.887 -1.0269 -0.5508 -1.9491
   21CHL1   C26 1547   6.463   2.615   8.748 -0.3192  0.5557  0.4847
   21CHL1  H26A 1548   6.381   2.663   8.691 -0.2913 -0.9395 -0.8877
   21CHL1  H26B 1549   6.488   2.678   8.836  1.5348  1.5471 -0.7073
   21CHL1  H26C 1550   6.557   2.600   8.691 -1.4074  1.4619 -1.6861
   21CHL1   C27 1551   6.330   2.412   8.705 -0.5477 -0.3449 -0.1833
   21CHL1  H27A 1552   6.242   2.472   8.674 -0.5371  0.8601  1.9329
   21CHL1  H27B 1553   6.403   2.404   8.621 -0.3301 -0.9022  0.0539
   21CHL1  H27C 1554   6.285   2.314   8.732  1.1722 -0.9869  0.5176
   22CHL1    C3 1555   5.146   0.021  10.278 -0.4568 -0.2438  0.0808
   22CHL1    H3 1556   5.041   0.050  10.257 -0.3343  1.1110  1.2122
   22CHL1    O3 1557   5.140   0.003  10.418 -0.0281 -0.7993  0.1299
   22CHL1   H3' 1558   5.233   0.001  10.443  0.4000  2.1749 -0.7766
   22CHL1    C4 1559   5.190  -0.101  10.196  0.3917 -0.4557  0.6747
   22CHL1   H4A 1560   5.296  -0.126  10.216  0.7777 -1.6649 -2.3779
   22CHL1   H4B 1561   5.140  -0.193  10.235 -0.1044  0.6723  2.8887
   22CHL1    C5 1562   5.182  -0.068  10.049  0.4804 -0.7275  0.7954
   22CHL1    C6 1563   5.097  -0.138   9.974 -0.1218 -0.1283  0.3974
   22CHL1    H6 1564   5.037  -0.216  10.023  0.7594 -1.3662 -0.4342
   22CHL1    C7 1565   5.080  -0.119   9.829  0.4862  0.2021 -0.1699
   22CHL1   H7A 1566   5.081  -0.216   9.775 -1.1465  0.1958 -0.2419
   22CHL1   H7B 1567   4.981  -0.072   9.812  0.7242  0.2123 -1.6660
   22CHL1    C8 1568   5.187  -0.024   9.769 -0.0154  0.1043  0.4184
   22CHL1    H8 1569   5.284  -0.079   9.773 -0.4517 -0.6313  1.4480
   22CHL1   C14 1570   5.152   0.008   9.620  0.2733 -0.2074  0.3783
   22CHL1   H14 1571   5.046   0.041   9.622 -0.6268 -2.6923 -1.0000
   22CHL1   C15 1572   5.153  -0.099   9.512 -0.5074 -0.2909  0.0324
   22CHL1  H15A 1573   5.236  -0.172   9.514  0.3297  0.6668  0.6066
   22CHL1  H15B 1574   5.057  -0.153   9.525 -1.9135  1.9366 -0.4672
   22CHL1   C16 1575   5.164  -0.026   9.378 -0.0140  0.1269 -0.6923
   22CHL1  H16A 1576   5.249  -0.048   9.311  0.5721  0.7882 -0.1799
   22CHL1  H16B 1577   5.072  -0.042   9.317 -1.0135 -2.4376  1.2775
   22CHL1   C17 1578   5.174   0.123   9.422  0.3948  0.5214 -0.8637
   22CHL1   H17 1579   5.071   0.151   9.452  0.6924 -1.0246  1.9947
   22CHL1   C13 1580   5.231   0.123   9.568  0.5169  0.7195  0.4877
   22CHL1   C18 1581   5.384   0.085   9.564  0.3377 -0.0855 -0.3129
   22CHL1  H18A 1582   5.397   0.002   9.492 -1.4856 -0.2036 -0.5584
   22CHL1  H18B 1583   5.437   0.177   9.532 -1.0391  0.6799 -0.5051
   22CHL1  H18C 1584   5.434   0.068   9.662  1.7244  1.7656 -0.6406
   22CHL1   C12 1585   5.202   0.246   9.650 -0.4271 -0.4212 -0.3159
   22CHL1  H12A 1586   5.248   0.335   9.602 -2.0994 -0.6067 -2.4237
   22CHL1  H12B 1587   5.093   0.267   9.646 -0.2156  0.8356  0.1859
   22CHL1   C11 1588   5.258   0.226   9.798 -0.8056 -0.4914 -0.4812
   22CHL1  H11A 1589   5.369   0.222   9.788 -0.7662 -0.0926 -0.1978
   22CHL1  H11B 1590   5.240   0.308   9.870  2.3219  0.1209 -0.2720
   22CHL1    C9 1591   5.187   0.099   9.859  0.0876  0.8859  0.3386
   22CHL1    H9 1592   5.086   0.143   9.870  0.5003  2.4475 -1.4790
   22CHL1   C10 1593   5.245   0.066  10.000 -0.0611 -0.5628  0.7327
   22CHL1   C19 1594   5.398   0.033   9.989 -0.8510 -0.3472  0.4020
   22CHL1  H19A 1595   5.416  -0.021   9.893 -1.1463 -0.4372  0.3946
   22CHL1  H19B 1596   5.462   0.124   9.983 -1.9861  0.3927 -1.3410
   22CHL1  H19C 1597   5.439  -0.033  10.069  0.7605  2.1730  1.7857
   22CHL1    C1 1598   5.225   0.181  10.105  0.3093 -0.6882  0.3197
   22CHL1   H1A 1599   5.300   0.260  10.081  0.6503 -1.8534 -2.9074
   22CHL1   H1B 1600   5.131   0.234  10.075  2.3543  1.9107 -2.0770
   22CHL1    C2 1601   5.240   0.137  10.252  0.5284 -0.1600  0.7976
   22CHL1   H2A 1602   5.222   0.219  10.325 -0.6605 -0.1561  0.5249
   22CHL1   H2B 1603   5.345   0.106  10.269  0.0548 -2.6216 -0.3499
   22CHL1   C20 1604   5.232   0.230   9.329 -0.1162  0.5107 -0.5706
   22CHL1   H20 1605   5.279   0.303   9.398  1.0411 -0.3364 -0.4196
   22CHL1   C21 1606   5.116   0.303   9.256 -0.4238 -0.2287 -0.4332
   22CHL1  H21A 1607   5.152   0.385   9.190  0.6890  0.0129  0.4373
   22CHL1  H21B 1608   5.049   0.336   9.338 -0.1878 -0.1848 -0.2558
   22CHL1  H21C 1609   5.072   0.222   9.194 -0.7646  1.0057 -1.8609
   22CHL1   C22 1610   5.346   0.187   9.241 -0.0952  0.0899  0.0749
   22CHL1  H22A 1611   5.429   0.137   9.297 -0.9809 -2.4672 -0.7610
   22CHL1  H22B 1612   5.320   0.113   9.162  0.4647 -2.3795  2.0589
   22CHL1   C23 1613   5.423   0.309   9.184  0.1848 -0.4460  0.2781
   22CHL1  H23A 1614   5.359   0.380   9.127  2.1264 -0.4212 -1.9879
   22CHL1  H23B 1615   5.454   0.360   9.278  0.3520  0.2056 -0.1245
   22CHL1   C24 1616   5.532   0.275   9.081 -0.1546 -0.7151  0.1714
   22CHL1  H24A 1617   5.573   0.374   9.053 -1.3879 -0.5412 -1.1286
   22CHL1  H24B 1618   5.605   0.207   9.129  0.6374  1.3343  2.0493
   22CHL1   C25 1619   5.474   0.218   8.950 -0.0624 -0.2619 -0.0795
   22CHL1   H25 1620   5.393   0.146   8.977 -1.6718  0.8636 -1.6223
   22CHL1   C26 1621   5.401   0.315   8.863  0.6951 -0.4264  0.5645
   22CHL1  H26A 1622   5.302   0.346   8.902  0.2015 -2.2794  0.8901
   22CHL1  H26B 1623   5.454   0.412   8.858  3.1715 -1.4415  3.8265
   22CHL1  H26C 1624   5.385   0.280   8.758 -0.6389 -0.7535  0.8579
   22CHL1   C27 1625   5.585   0.153   8.866  0.4864  0.6795 -0.1978
   22CHL1  H27A 1626   5.540   0.097   8.782  0.9395 -0.5205  0.3314
   22CHL1  H27B 1627   5.659   0.219   8.815 -0.1192  0.4388 -1.4329
   22CHL1  H27C 1628   5.641   0.076   8.923 -0.1781  0.6550  0.4251
   23CHL1    C3 1629   2.383   3.983  10.153 -0.0314 -0.3002  0.3060
   23CHL1    H3 1630   2.438   3.888  10.170  0.5285 -0.8565 -3.6565
   23CHL1    O3 1631   2.359   4.042  10.277 -0.0191 -0.0905  0.1742
   23CHL1   H3' 1632   2.446   4.069  10.308  1.8563 -3.3121 -1.7806
   23CHL1    C4 1633   2.481   4.074  10.073 -0.1320  0.3189  0.3135
   23CHL1   H4A 1634   2.417   4.165  10.065 -0.5735  0.0930  1.1418
   23CHL1   H4B 1635   2.571   4.102  10.132  1.5337 -0.1137 -1.8943
   23CHL1    C5 1636   2.512   4.028   9.935 -0.0769 -0.2037 -0.5829
   23CHL1    C6 1637   2.639   4.015   9.889 -0.3139  0.6988 -0.5583
   23CHL1    H6 1638   2.722   4.047   9.954 -0.8884  3.2231 -0.9855
   23CHL1    C7 1639   2.675   3.975   9.747 -0.2485 -0.8303 -0.3076
   23CHL1   H7A 1640   2.762   4.038   9.715 -0.2661  0.6535  2.2935
   23CHL1   H7B 1641   2.712   3.870   9.745  0.8020 -0.4658 -1.7514
   23CHL1    C8 1642   2.552   3.990   9.656  0.4599 -0.4301  0.2441
   23CHL1    H8 1643   2.547   4.100   9.641 -1.9066 -0.5858 -0.4540
   23CHL1   C14 1644   2.586   3.915   9.529 -0.9410  0.1300 -0.1854
   23CHL1   H14 1645   2.605   3.808   9.554  1.6098  0.5928  0.1139
   23CHL1   C15 1646   2.724   3.950   9.463 -0.0929  0.3124  0.3568
   23CHL1  H15A 1647   2.741   4.060   9.472 -0.5468  0.3362  0.9646
   23CHL1  H15B 1648   2.805   3.889   9.510  1.5997  2.6111  0.6181
   23CHL1   C16 1649   2.709   3.922   9.317  0.2789 -0.5319 -0.8656
   23CHL1  H16A 1650   2.719   4.014   9.256  3.6222 -0.5453 -0.5293
   23CHL1  H16B 1651   2.775   3.840   9.284  2.1860 -0.5019  2.4611
   23CHL1   C17 1652   2.559   3.877   9.297 -0.0382  0.5729 -0.3550
   23CHL1   H17 1653   2.563   3.767   9.317  0.0075  0.3827 -1.3377
   23CHL1   C13 1654   2.481   3.927   9.427 -0.1039 -0.4743  0.4078
   23CHL1   C18 1655   2.450   4.067   9.392 -0.3302  0.1865 -1.1020
   23CHL1  H18A 1656   2.390   4.116   9.471  1.6806 -0.3398  0.8280
   23CHL1  H18B 1657   2.544   4.125   9.376  0.8816 -1.3338  0.2808
   23CHL1  H18C 1658   2.393   4.086   9.298  1.1667 -0.5744 -2.1963
   23CHL1   C12 1659   2.350   3.859   9.478 -0.0246 -0.0411 -0.1828
   23CHL1  H12A 1660   2.278   3.887   9.398  0.1278 -0.2525 -0.3969
   23CHL1  H12B 1661   2.370   3.750   9.486  0.8259  0.0563 -0.8199
   23CHL1   C11 1662   2.309   3.914   9.611  0.0951  0.0984  0.2099
   23CHL1  H11A 1663   2.274   4.016   9.587 -1.2619  0.1976  2.3588
   23CHL1  H11B 1664   2.220   3.862   9.652  0.9569 -1.0744  0.6676
   23CHL1    C9 1665   2.423   3.922   9.722  0.0560 -0.0588  0.2544
   23CHL1    H9 1666   2.459   3.819   9.743  1.6095  0.5656  0.7372
   23CHL1   C10 1667   2.387   3.987   9.854  0.1506 -0.5454  0.2830
   23CHL1   C19 1668   2.314   4.123   9.822  0.1496 -0.2552  0.0386
   23CHL1  H19A 1669   2.222   4.107   9.762  0.4202 -4.6502  0.4827
   23CHL1  H19B 1670   2.276   4.179   9.909  0.2369  1.8324 -1.1953
   23CHL1  H19C 1671   2.375   4.187   9.754  0.2666 -1.7034 -1.2714
   23CHL1    C1 1672   2.292   3.896   9.939  0.0646  0.1094 -0.3496
   23CHL1   H1A 1673   2.196   3.874   9.888  0.2544 -1.4225 -0.0930
   23CHL1   H1B 1674   2.345   3.801   9.958 -0.3184 -0.3434 -1.4239
   23CHL1    C2 1675   2.254   3.954  10.075 -0.3108 -0.3076  0.2256
   23CHL1   H2A 1676   2.180   3.884  10.120 -1.9532  0.7397 -0.7000
   23CHL1   H2B 1677   2.200   4.050  10.059  3.3300  1.7317 -0.8890
   23CHL1   C20 1678   2.511   3.879   9.156 -0.0005 -0.0801 -0.3042
   23CHL1   H20 1679   2.481   3.984   9.131 -0.3054  0.3590  1.7041
   23CHL1   C21 1680   2.390   3.778   9.144  0.0743 -1.5462  0.1846
   23CHL1  H21A 1681   2.326   3.793   9.234  2.4458  2.7602  1.4279
   23CHL1  H21B 1682   2.438   3.678   9.139  2.2030 -0.5035 -2.1428
   23CHL1  H21C 1683   2.324   3.791   9.056 -1.0225 -2.2951  0.8557
   23CHL1   C22 1684   2.624   3.848   9.055  0.0130  0.3740  0.1069
   23CHL1  H22A 1685   2.705   3.924   9.059  0.0346  0.4562 -1.2613
   23CHL1  H22B 1686   2.665   3.747   9.077  0.0688 -0.0795 -1.8524
   23CHL1   C23 1687   2.566   3.840   8.905  0.7735 -0.0581  0.2899
   23CHL1  H23A 1688   2.513   3.743   8.899 -0.3259  0.6034 -1.0144
   23CHL1  H23B 1689   2.503   3.929   8.882 -1.4406 -1.5523  0.3247
   23CHL1   C24 1690   2.681   3.832   8.806  0.3232  0.4866  0.8143
   23CHL1  H24A 1691   2.744   3.923   8.797  0.0672  0.5835 -0.0794
   23CHL1  H24B 1692   2.742   3.741   8.826  0.1105  0.2135  0.2653
   23CHL1   C25 1693   2.640   3.805   8.655 -0.4464  0.0585 -0.7373
   23CHL1   H25 1694   2.581   3.711   8.667  0.4279 -0.4768 -0.5062
   23CHL1   C26 1695   2.556   3.922   8.608 -0.7302  0.4773 -0.0435
   23CHL1  H26A 1696   2.466   3.909   8.672  0.9383 -1.7851  2.0421
   23CHL1  H26B 1697   2.602   4.016   8.645  0.0523 -0.1480  0.5991
   23CHL1  H26C 1698   2.534   3.921   8.499 -1.6641  1.0685  0.1214
   23CHL1   C27 1699   2.771   3.791   8.567  0.2836 -0.5618  0.2754
   23CHL1  H27A 1700   2.755   3.763   8.461  2.6539  0.4618 -0.4236
   23CHL1  H27B 1701   2.818   3.892   8.567  1.6696 -1.1746 -0.9025
   23CHL1  H27C 1702   2.839   3.716   8.613  2.4350 -0.0008 -1.7969
   24CHL1    C3 1703   3.893   1.777  10.265  0.5481  0.5870 -0.1469
   24CHL1    H3 1704   3.924   1.883  10.251 -0.3175  1.1225  1.7147
   24CHL1    O3 1705   3.925   1.730  10.396 -0.0238  0.2373 -0.3290
   24CHL1   H3' 1706   3.877   1.648  10.409  0.4068 -0.0995 -0.8032
   24CHL1    C4 1707   3.742   1.764  10.257  0.1004  0.2621 -1.2769
   24CHL1   H4A 1708   3.726   1.658  10.286  0.1231  0.2005 -1.4851
   24CHL1   H4B 1709   3.694   1.826  10.335  4.0040  0.7304  0.9884
   24CHL1    C5 1710   3.692   1.777  10.119  1.0013  0.2922 -0.9603
   24CHL1    C6 1711   3.592   1.871  10.092 -0.2905  1.0740  0.8253
   24CHL1    H6 1712   3.571   1.937  10.177 -1.3673 -2.3173  3.4290
   24CHL1    C7 1713   3.532   1.894   9.960  0.8489 -0.4041  0.4783
   24CHL1   H7A 1714   3.422   1.899   9.969  0.8213  0.0769 -0.0992
   24CHL1   H7B 1715   3.562   1.998   9.935  0.1211 -0.1899  0.4672
   24CHL1    C8 1716   3.580   1.784   9.858 -0.6805 -0.6050 -0.0428
   24CHL1    H8 1717   3.518   1.693   9.869 -2.3125  0.6608  1.7785
   24CHL1   C14 1718   3.552   1.835   9.722  0.5214 -0.1454  0.0951
   24CHL1   H14 1719   3.605   1.931   9.708  0.4642  0.1295  1.6209
   24CHL1   C15 1720   3.404   1.882   9.684 -0.3487 -0.0897 -0.3759
   24CHL1  H15A 1721   3.333   1.833   9.753 -0.0624  1.2495  0.9138
   24CHL1  H15B 1722   3.396   1.991   9.704 -0.5090 -0.3065  0.8294
   24CHL1   C16 1723   3.386   1.855   9.535 -0.9841  0.1733  0.0020
   24CHL1  H16A 1724   3.303   1.786   9.508  0.1667 -0.8761 -0.9648
   24CHL1  H16B 1725   3.351   1.942   9.475  2.9983  0.7372 -1.7827
   24CHL1   C17 1726   3.520   1.793   9.486  0.5099  0.2779 -0.6251
   24CHL1   H17 1727   3.578   1.887   9.483  0.8379  0.1865  1.3620
   24CHL1   C13 1728   3.581   1.726   9.609 -0.0728 -0.0375  0.3375
   24CHL1   C18 1729   3.505   1.590   9.628 -0.8806 -0.8155  0.1363
   24CHL1  H18A 1730   3.533   1.532   9.538  1.7163  0.0226  0.3319
   24CHL1  H18B 1731   3.550   1.530   9.710  0.5467 -0.4190 -0.3344
   24CHL1  H18C 1732   3.394   1.594   9.639 -0.9153 -1.3847  0.0325
   24CHL1   C12 1733   3.737   1.708   9.610 -0.9634  0.5626 -0.7863
   24CHL1  H12A 1734   3.749   1.615   9.550  2.4241 -1.5351  2.6615
   24CHL1  H12B 1735   3.798   1.790   9.568 -1.4280  2.3034  1.7632
   24CHL1   C11 1736   3.794   1.675   9.755  0.5127 -0.0106  0.4563
   24CHL1  H11A 1737   3.768   1.568   9.770  2.1954 -0.5332 -0.0528
   24CHL1  H11B 1738   3.905   1.681   9.742  0.4731 -0.6123 -0.2043
   24CHL1    C9 1739   3.728   1.748   9.871 -1.1276 -0.4112  0.4301
   24CHL1    H9 1740   3.782   1.844   9.861  1.0222 -1.7416 -1.7304
   24CHL1   C10 1741   3.762   1.696  10.011  0.0242  0.6385 -0.0316
   24CHL1   C19 1742   3.720   1.547  10.016 -1.1033  0.5023  0.3773
   24CHL1  H19A 1743   3.615   1.524   9.988 -1.1799  1.2511  0.0250
   24CHL1  H19B 1744   3.788   1.495   9.945 -1.3068  1.5852 -0.6405
   24CHL1  H19C 1745   3.739   1.510  10.119 -1.7154  0.6322  0.5392
   24CHL1    C1 1746   3.909   1.702  10.024 -0.4743  0.6061 -0.4161
   24CHL1   H1A 1747   3.954   1.627   9.955  0.2158  1.0311 -0.4405
   24CHL1   H1B 1748   3.948   1.803   9.994  2.3114 -0.6501 -1.4302
   24CHL1    C2 1749   3.965   1.682  10.162  0.6557 -0.1316 -0.6523
   24CHL1   H2A 1750   4.073   1.706  10.172  0.2670  1.6629 -0.3401
   24CHL1   H2B 1751   3.938   1.581  10.200 -0.6413  0.1549 -0.7627
   24CHL1   C20 1752   3.523   1.732   9.345 -0.1570 -0.0922  0.2622
   24CHL1   H20 1753   3.583   1.639   9.357  2.0289  1.2937  0.7121
   24CHL1   C21 1754   3.604   1.827   9.257 -0.1670 -0.9860  1.4616
   24CHL1  H21A 1755   3.597   1.809   9.148  0.4591  1.5906  0.9180
   24CHL1  H21B 1756   3.712   1.824   9.284 -0.1501  1.8659  2.0416
   24CHL1  H21C 1757   3.567   1.931   9.269 -0.6210 -1.1374  1.3672
   24CHL1   C22 1758   3.386   1.687   9.286  0.4964 -0.8798 -0.1112
   24CHL1  H22A 1759   3.312   1.645   9.357  0.5473 -2.0771 -0.7391
   24CHL1  H22B 1760   3.345   1.777   9.236  0.7559 -0.0755  1.0710
   24CHL1   C23 1761   3.400   1.578   9.180 -0.1503  0.2609  0.0214
   24CHL1  H23A 1762   3.497   1.605   9.133 -1.5877  1.6087 -2.3725
   24CHL1  H23B 1763   3.417   1.477   9.223 -1.1606  0.0592 -0.0323
   24CHL1   C24 1764   3.290   1.564   9.077  0.6046  0.9647 -0.4654
   24CHL1  H24A 1765   3.191   1.550   9.124  0.0467 -0.0633 -1.8640
   24CHL1  H24B 1766   3.285   1.652   9.010 -1.9082 -0.6875 -2.6614
   24CHL1   C25 1767   3.296   1.442   8.971 -0.7911 -0.3300 -0.3789
   24CHL1   H25 1768   3.304   1.355   9.038 -0.5982  0.8787  1.2311
   24CHL1   C26 1769   3.176   1.428   8.883  0.9474 -0.4520  0.8848
   24CHL1  H26A 1770   3.079   1.415   8.935  1.2353  1.2324  1.9157
   24CHL1  H26B 1771   3.174   1.522   8.824 -1.8520 -1.1680 -0.3199
   24CHL1  H26C 1772   3.187   1.340   8.816 -1.7843  0.2004 -0.5670
   24CHL1   C27 1773   3.428   1.454   8.881 -0.2761  0.4415  0.0138
   24CHL1  H27A 1774   3.510   1.444   8.956 -0.5642 -1.8514  0.1045
   24CHL1  H27B 1775   3.436   1.359   8.824 -0.0346  0.9739 -0.8544
   24CHL1  H27C 1776   3.431   1.545   8.818 -1.1630  0.6540  0.2565
   25CHL1    C3 1777   0.003   3.453  10.233  0.0266 -0.7089  0.5285
   25CHL1    H3 1778  -0.014   3.561  10.214 -0.3872 -0.8262  0.2200
   25CHL1    O3 1779  -0.009   3.424  10.368 -0.3390  0.0807  0.0633
   25CHL1   H3' 1780  -0.034   3.332  10.374 -2.5781  0.4927 -1.6241
   25CHL1    C4 1781  -0.100   3.377  10.161  0.4736  0.4339 -0.0102
   25CHL1   H4A 1782  -0.079   3.268  10.164  0.2449  0.2916 -2.0833
   25CHL1   H4B 1783  -0.198   3.391  10.212  0.2591 -1.4760  0.1937
   25CHL1    C5 1784  -0.093   3.422  10.014  0.8280 -0.3879 -0.5041
   25CHL1    C6 1785  -0.196   3.491   9.962  0.0257  0.6015  0.3834
   25CHL1    H6 1786  -0.284   3.501  10.027  0.2600 -2.9810  1.5191
   25CHL1    C7 1787  -0.200   3.518   9.815 -0.0157  0.8144  0.0433
   25CHL1   H7A 1788  -0.291   3.469   9.773 -1.0822  2.5345  0.2323
   25CHL1   H7B 1789  -0.211   3.626   9.789 -0.3513  0.6381 -0.5555
   25CHL1    C8 1790  -0.089   3.443   9.730  1.5564  0.1446 -0.1051
   25CHL1    H8 1791  -0.115   3.336   9.716  0.4922  0.1554  1.4923
   25CHL1   C14 1792  -0.073   3.508   9.591  0.3859  0.3499  0.3570
   25CHL1   H14 1793  -0.034   3.611   9.607 -0.3255  0.5145  1.0721
   25CHL1   C15 1794  -0.195   3.528   9.510  0.3048 -0.4785 -0.1536
   25CHL1  H15A 1795  -0.263   3.441   9.505 -0.7239  0.2739  0.3152
   25CHL1  H15B 1796  -0.248   3.622   9.537 -1.4283 -1.3909 -0.2195
   25CHL1   C16 1797  -0.140   3.552   9.369  0.0738 -0.2377 -0.3165
   25CHL1  H16A 1798  -0.189   3.474   9.307  0.2771  0.2889 -1.1586
   25CHL1  H16B 1799  -0.162   3.650   9.320  1.2563  0.9857  1.4588
   25CHL1   C17 1800   0.013   3.537   9.384  0.6549  0.4599  0.5179
   25CHL1   H17 1801   0.044   3.641   9.406 -1.4199  1.4277 -0.8716
   25CHL1   C13 1802   0.035   3.445   9.503  0.7109 -0.6274 -0.2337
   25CHL1   C18 1803   0.013   3.297   9.467  0.0483  0.2428 -0.7619
   25CHL1  H18A 1804  -0.008   3.241   9.560  1.0604  1.5354  0.2737
   25CHL1  H18B 1805  -0.069   3.284   9.393 -1.3383 -0.8272  0.9075
   25CHL1  H18C 1806   0.102   3.246   9.424  0.7664  2.2928 -1.8964
   25CHL1   C12 1807   0.173   3.474   9.579 -0.8102 -0.3477  0.2677
   25CHL1  H12A 1808   0.252   3.430   9.515 -0.1535  0.0748  0.7761
   25CHL1  H12B 1809   0.187   3.584   9.576 -1.2906 -0.3037 -0.8406
   25CHL1   C11 1810   0.164   3.413   9.719 -0.5870  0.3798 -0.4772
   25CHL1  H11A 1811   0.163   3.304   9.700  1.1276  0.1924  0.3437
   25CHL1  H11B 1812   0.261   3.434   9.770 -0.7026  0.3240 -0.2299
   25CHL1    C9 1813   0.045   3.456   9.813  0.4794 -0.2146 -0.0088
   25CHL1    H9 1814   0.060   3.564   9.832 -0.8404  0.1191 -0.7520
   25CHL1   C10 1815   0.039   3.391   9.953  0.5053 -0.0300 -0.4016
   25CHL1   C19 1816   0.060   3.231   9.938 -0.1030  0.6750  0.9038
   25CHL1  H19A 1817  -0.012   3.183   9.869 -0.2267  2.5098 -0.3281
   25CHL1  H19B 1818   0.164   3.220   9.903 -1.1680  1.9112 -3.2340
   25CHL1  H19C 1819   0.051   3.174  10.033 -0.3867  0.2787  0.6431
   25CHL1    C1 1820   0.157   3.454  10.040 -0.2849 -0.0426  0.2473
   25CHL1   H1A 1821   0.252   3.425   9.990 -1.8431 -0.4824 -2.7074
   25CHL1   H1B 1822   0.148   3.565  10.032 -1.4677 -0.2863 -3.7706
   25CHL1    C2 1823   0.148   3.432  10.185 -0.0431  0.3158  0.0431
   25CHL1   H2A 1824   0.224   3.494  10.236 -1.8790  3.2147 -0.4910
   25CHL1   H2B 1825   0.172   3.325  10.204 -0.5180 -0.2585 -2.2401
   25CHL1   C20 1826   0.082   3.490   9.250  0.0702 -0.7825 -0.1968
   25CHL1   H20 1827   0.063   3.384   9.224  0.3591 -1.1758  1.1115
   25CHL1   C21 1828   0.235   3.502   9.267 -0.1142  0.1947 -0.0176
   25CHL1  H21A 1829   0.283   3.497   9.167  0.3374  0.9687  0.1459
   25CHL1  H21B 1830   0.278   3.414   9.319  1.4303  0.3759 -0.9120
   25CHL1  H21C 1831   0.271   3.592   9.322 -0.3387  0.0925  0.2996
   25CHL1   C22 1832   0.042   3.577   9.120  0.0124  0.5570 -0.7105
   25CHL1  H22A 1833  -0.063   3.615   9.125 -0.5382 -1.0056  0.5320
   25CHL1  H22B 1834   0.116   3.658   9.106  2.2449 -1.1613  0.5465
   25CHL1   C23 1835   0.051   3.492   8.995  0.1913  0.7459  0.9915
   25CHL1  H23A 1836   0.153   3.448   9.002  0.2709  0.7904  0.1934
   25CHL1  H23B 1837  -0.026   3.411   8.995 -1.3788  2.1791  0.9009
   25CHL1   C24 1838   0.032   3.590   8.876 -0.5057  0.3213  0.1994
   25CHL1  H24A 1839  -0.068   3.639   8.876  0.2328  2.2259 -3.4406
   25CHL1  H24B 1840   0.108   3.671   8.883 -1.0793  1.1179 -1.8682
   25CHL1   C25 1841   0.046   3.519   8.737 -0.4962 -0.2981  0.7779
   25CHL1   H25 1842  -0.040   3.451   8.716 -0.7400 -0.0862  1.0747
   25CHL1   C26 1843   0.048   3.630   8.622  0.4344 -0.2845 -0.0792
   25CHL1  H26A 1844   0.035   3.584   8.522 -0.6623  0.4503 -0.2954
   25CHL1  H26B 1845  -0.029   3.707   8.642  0.4768 -0.2203 -0.1602
   25CHL1  H26C 1846   0.144   3.685   8.631 -1.7290  3.7167  1.1823
   25CHL1   C27 1847   0.175   3.427   8.731  0.5960 -0.8230 -0.0606
   25CHL1  H27A 1848   0.182   3.366   8.638  2.4162 -0.4523 -0.2207
   25CHL1  H27B 1849   0.269   3.487   8.734 -0.0222  0.1102  1.0565
   25CHL1  H27C 1850   0.173   3.354   8.814 -0.8034 -1.1849 -0.3944
   26CHL1    C3 1851   6.186   6.375  10.000  0.2592  0.2001 -0.3747
   26CHL1    H3 1852   6.080   6.383   9.970  0.4326 -1.2836 -1.4831
   26CHL1    O3 1853   6.211   6.416  10.132  0.2658 -0.0276 -0.0914
   26CHL1   H3' 1854   6.306   6.421  10.139  0.5591 -1.6441 -1.9930
   26CHL1    C4 1855   6.221   6.224   9.976  0.7065  0.2760 -0.2480
   26CHL1   H4A 1856   6.329   6.206   9.994  0.8959  1.8551  0.3998
   26CHL1   H4B 1857   6.176   6.165  10.059  4.3432  0.6086  2.1825
   26CHL1    C5 1858   6.197   6.169   9.840 -0.0927  0.1448 -0.7590
   26CHL1    C6 1859   6.110   6.065   9.816 -0.8132  0.2341 -0.3017
   26CHL1    H6 1860   6.050   6.017   9.894 -0.4569 -0.8843 -0.6960
   26CHL1    C7 1861   6.103   5.999   9.685 -0.3826  0.2550 -0.4669
   26CHL1   H7A 1862   6.128   5.890   9.689  0.5312  0.4794  0.3484
   26CHL1   H7B 1863   6.000   6.013   9.648 -0.0229  4.2619 -0.4018
   26CHL1    C8 1864   6.204   6.060   9.577 -0.1821  0.1393  0.7531
   26CHL1    H8 1865   6.304   6.013   9.591 -0.7401 -0.5884  2.6634
   26CHL1   C14 1866   6.160   6.033   9.431  0.3747 -0.0311 -0.1920
   26CHL1   H14 1867   6.069   6.097   9.423 -1.0840 -1.7762  1.3774
   26CHL1   C15 1868   6.122   5.893   9.389 -0.0661  0.5367 -0.7275
   26CHL1  H15A 1869   6.188   5.823   9.444  1.6150  1.2756 -1.7352
   26CHL1  H15B 1870   6.018   5.874   9.422  0.9408 -0.4449  2.1693
   26CHL1   C16 1871   6.140   5.884   9.235 -0.3601  0.3950 -0.4528
   26CHL1  H16A 1872   6.220   5.808   9.219 -0.6599 -0.2321  0.8664
   26CHL1  H16B 1873   6.051   5.848   9.180 -0.7677 -0.0988  0.5122
   26CHL1   C17 1874   6.195   6.026   9.192 -0.5108  0.5571  0.2949
   26CHL1   H17 1875   6.100   6.080   9.173 -1.6165 -0.8562  1.4859
   26CHL1   C13 1876   6.257   6.080   9.322  0.4919 -0.7971 -0.4103
   26CHL1   C18 1877   6.393   6.007   9.337 -0.5709  0.3533 -0.4020
   26CHL1  H18A 1878   6.462   6.042   9.258 -3.9910  1.7828 -2.9829
   26CHL1  H18B 1879   6.442   6.025   9.435  1.2630 -0.9067 -1.0415
   26CHL1  H18C 1880   6.375   5.900   9.314 -2.1893  0.9867 -2.4128
   26CHL1   C12 1881   6.261   6.230   9.338 -0.2912  0.5207  0.9532
   26CHL1  H12A 1882   6.332   6.268   9.262 -2.1631  1.1708 -0.5172
   26CHL1  H12B 1883   6.163   6.281   9.326 -0.2556  0.6472  1.1890
   26CHL1   C11 1884   6.319   6.273   9.479  0.5444  0.3210  0.2453
   26CHL1  H11A 1885   6.420   6.231   9.492  0.3137 -0.4215 -0.2588
   26CHL1  H11B 1886   6.312   6.384   9.486 -0.0556  0.3443 -0.5572
   26CHL1    C9 1887   6.227   6.213   9.591  0.1552  0.5549  0.4795
   26CHL1    H9 1888   6.125   6.257   9.587 -0.5170 -0.8075  1.7467
   26CHL1   C10 1889   6.278   6.252   9.731  0.2657  0.1555  0.4378
   26CHL1   C19 1890   6.430   6.227   9.741  0.8091  0.7415 -0.4250
   26CHL1  H19A 1891   6.483   6.301   9.677  1.0997  2.2146  1.4349
   26CHL1  H19B 1892   6.469   6.251   9.842  0.4840  0.4994 -0.2392
   26CHL1  H19C 1893   6.457   6.124   9.710  0.4217  0.2575  0.8018
   26CHL1    C1 1894   6.238   6.404   9.763 -0.9933  0.0511 -0.1826
   26CHL1   H1A 1895   6.283   6.467   9.683 -0.9217 -0.6890 -0.7386
   26CHL1   H1B 1896   6.127   6.404   9.752 -0.8958 -0.8851 -1.3281
   26CHL1    C2 1897   6.264   6.458   9.900 -0.0411 -0.1245 -0.0174
   26CHL1   H2A 1898   6.247   6.568   9.903  0.0294 -0.1036 -0.3668
   26CHL1   H2B 1899   6.372   6.437   9.909 -0.1785 -0.6109  0.5589
   26CHL1   C20 1900   6.275   6.020   9.057 -0.1387  0.8286  0.4143
   26CHL1   H20 1901   6.370   5.967   9.079 -0.7827 -0.2908  0.5760
   26CHL1   C21 1902   6.300   6.164   9.005  0.3410  0.5659 -0.5899
   26CHL1  H21A 1903   6.385   6.192   9.071  0.5745 -1.2969 -0.0385
   26CHL1  H21B 1904   6.213   6.232   9.017  1.3433  2.0829 -1.5806
   26CHL1  H21C 1905   6.325   6.170   8.897 -0.5163 -1.8040 -0.9822
   26CHL1   C22 1906   6.204   5.939   8.940  0.2186  0.5722 -0.4920
   26CHL1  H22A 1907   6.262   5.954   8.846 -1.0460 -1.4654 -1.6582
   26CHL1  H22B 1908   6.195   5.831   8.964  0.1357 -0.4239 -4.4065
   26CHL1   C23 1909   6.064   5.993   8.915 -0.9734  0.0781  0.0331
   26CHL1  H23A 1910   6.004   5.993   9.009  0.0530  0.7833  0.7104
   26CHL1  H23B 1911   6.060   6.099   8.883 -1.3144  1.0090  2.8967
   26CHL1   C24 1912   5.992   5.903   8.812  0.8169  0.0207 -0.0874
   26CHL1  H24A 1913   6.054   5.847   8.738  0.8633  1.6114 -1.3143
   26CHL1  H24B 1914   5.936   5.831   8.875  0.4814 -0.0486 -0.4596
   26CHL1   C25 1915   5.891   5.987   8.713  0.5759  0.6852  0.4349
   26CHL1   H25 1916   5.968   6.036   8.650  1.0857 -0.2752  0.2974
   26CHL1   C26 1917   5.820   5.893   8.617 -0.3079  0.3212 -0.4842
   26CHL1  H26A 1918   5.759   5.812   8.663 -0.1958 -0.0523 -0.9832
   26CHL1  H26B 1919   5.745   5.952   8.559 -1.8453  0.7741  1.8445
   26CHL1  H26C 1920   5.886   5.855   8.537  0.0705  1.0000 -0.5058
   26CHL1   C27 1921   5.803   6.097   8.777  0.2247 -0.1475  0.7101
   26CHL1  H27A 1922   5.864   6.165   8.840 -0.6510  1.8868 -0.5508
   26CHL1  H27B 1923   5.746   6.150   8.698 -2.1925 -2.4482  0.7653
   26CHL1  H27C 1924   5.748   6.053   8.863  2.1129 -3.3424  0.4352
   27CHL1    C3 1925   1.194   4.350  10.247  0.3418 -0.1918 -0.0292
   27CHL1    H3 1926   1.175   4.460  10.247 -0.2947 -0.2963 -0.2053
   27CHL1    O3 1927   1.175   4.314  10.388 -0.1519  0.8909  0.1873
   27CHL1   H3' 1928   1.212   4.226  10.404  0.3331  1.4694  2.6999
   27CHL1    C4 1929   1.092   4.269  10.161  0.3950 -0.1401  0.3636
   27CHL1   H4A 1930   1.121   4.162  10.173 -1.7494 -0.8370 -0.2539
   27CHL1   H4B 1931   0.988   4.282  10.198  0.1469  3.2987 -1.2180
   27CHL1    C5 1932   1.099   4.304  10.011  0.1096  0.7101  0.2346
   27CHL1    C6 1933   0.991   4.347   9.944 -0.2142  0.1974 -0.5410
   27CHL1    H6 1934   0.893   4.342   9.994 -1.6152 -2.1287 -3.2099
   27CHL1    C7 1935   0.998   4.397   9.802  0.3122  0.4494  0.7394
   27CHL1   H7A 1936   0.906   4.359   9.753  0.1310  0.4381  1.0879
   27CHL1   H7B 1937   0.992   4.508   9.801  1.4648  0.5265  0.5228
   27CHL1    C8 1938   1.124   4.352   9.728  0.2088  0.3791 -0.4196
   27CHL1    H8 1939   1.129   4.243   9.709  0.4128  0.7400 -2.8281
   27CHL1   C14 1940   1.137   4.427   9.588 -0.1891 -0.3585 -0.2729
   27CHL1   H14 1941   1.135   4.538   9.598  2.1690 -0.2733 -0.1744
   27CHL1   C15 1942   1.024   4.400   9.490 -0.1285  0.4538 -0.6189
   27CHL1  H15A 1943   0.994   4.293   9.487 -0.5185  0.4410  1.6907
   27CHL1  H15B 1944   0.935   4.461   9.516  1.1448  3.0239 -2.0288
   27CHL1   C16 1945   1.091   4.424   9.352 -0.7626 -0.0526 -0.3348
   27CHL1  H16A 1946   1.097   4.326   9.299  2.2438 -0.5978  0.8219
   27CHL1  H16B 1947   1.032   4.494   9.289 -0.6723 -1.2451 -1.7860
   27CHL1   C17 1948   1.237   4.462   9.367  0.3551 -0.1104 -0.4831
   27CHL1   H17 1949   1.241   4.572   9.383 -3.7814  0.2709 -1.1274
   27CHL1   C13 1950   1.265   4.395   9.518 -0.0251 -0.2137  0.5054
   27CHL1   C18 1951   1.285   4.243   9.499 -0.2288  0.5899  0.5090
   27CHL1  H18A 1952   1.388   4.227   9.462  0.1966  2.1958  0.9262
   27CHL1  H18B 1953   1.273   4.195   9.598 -0.3561 -0.6022 -0.0583
   27CHL1  H18C 1954   1.209   4.205   9.427 -0.3648 -1.4905  1.6628
   27CHL1   C12 1955   1.384   4.452   9.597  0.2115 -0.1106 -0.7274
   27CHL1  H12A 1956   1.477   4.417   9.547  0.1854 -0.5998 -0.4360
   27CHL1  H12B 1957   1.372   4.563   9.601  1.5685  0.0306  0.5742
   27CHL1   C11 1958   1.383   4.389   9.745 -0.5675  0.4464  0.4638
   27CHL1  H11A 1959   1.413   4.283   9.731 -1.7388 -0.0588  1.5826
   27CHL1  H11B 1960   1.462   4.443   9.800  0.9161  1.3450 -2.3311
   27CHL1    C9 1961   1.244   4.390   9.815 -0.5507 -0.2144  0.3864
   27CHL1    H9 1962   1.222   4.496   9.839 -0.6814  0.4365 -2.2979
   27CHL1   C10 1963   1.247   4.313   9.948  0.4747  0.3517  0.4122
   27CHL1   C19 1964   1.289   4.166   9.923 -0.2163  0.1943  0.1120
   27CHL1  H19A 1965   1.263   4.091  10.001 -2.1270  0.4305 -0.2524
   27CHL1  H19B 1966   1.259   4.124   9.825  0.9375 -1.0020  0.2501
   27CHL1  H19C 1967   1.399   4.154   9.916 -0.2130 -0.4260  1.0233
   27CHL1    C1 1968   1.335   4.394  10.048 -0.0116  0.3377 -0.5044
   27CHL1   H1A 1969   1.442   4.384  10.021  1.1068  0.0340  3.3989
   27CHL1   H1B 1970   1.298   4.498  10.053  0.2000  0.3676  2.8612
   27CHL1    C2 1971   1.333   4.336  10.191  0.3579 -0.1201 -0.2057
   27CHL1   H2A 1972   1.403   4.396  10.253 -0.0332 -0.4362  0.5528
   27CHL1   H2B 1973   1.357   4.227  10.187 -0.3896 -0.2474 -1.9041
   27CHL1   C20 1974   1.334   4.426   9.245  0.5815 -0.1239 -1.0021
   27CHL1   H20 1975   1.355   4.318   9.261 -0.8945 -0.3381 -0.3165
   27CHL1   C21 1976   1.465   4.504   9.260 -0.3333 -0.1743 -0.1933
   27CHL1  H21A 1977   1.526   4.460   9.342 -0.3533 -1.6522 -0.9381
   27CHL1  H21B 1978   1.452   4.614   9.270  0.6833 -0.0151 -0.5180
   27CHL1  H21C 1979   1.518   4.494   9.163  0.5778  3.2660 -0.1642
   27CHL1   C22 1980   1.253   4.435   9.115  0.5931 -0.3831 -0.0009
   27CHL1  H22A 1981   1.165   4.368   9.115  0.2758  0.0266  0.3505
   27CHL1  H22B 1982   1.205   4.535   9.108  1.2668 -0.0840 -0.4905
   27CHL1   C23 1983   1.338   4.390   8.997 -0.0149 -0.5453 -0.4573
   27CHL1  H23A 1984   1.396   4.479   8.966 -1.2644  1.9290  3.5520
   27CHL1  H23B 1985   1.405   4.313   9.039  0.3587 -0.2439 -0.4994
   27CHL1   C24 1986   1.249   4.346   8.876 -0.3018  0.6939 -0.7818
   27CHL1  H24A 1987   1.150   4.317   8.917  0.8047  0.2675  1.8552
   27CHL1  H24B 1988   1.247   4.427   8.801 -0.9215 -0.5031 -2.1134
   27CHL1   C25 1989   1.323   4.235   8.801 -0.2107  0.3084 -0.1379
   27CHL1   H25 1990   1.428   4.262   8.779 -0.5599  0.6210 -1.5380
   27CHL1   C26 1991   1.318   4.099   8.876  0.1736 -0.3951  0.7882
   27CHL1  H26A 1992   1.395   4.027   8.841  0.0264 -0.2079  0.0624
   27CHL1  H26B 1993   1.311   4.118   8.985 -0.7639  2.9349  0.2676
   27CHL1  H26C 1994   1.223   4.050   8.845  1.3341 -0.5892 -2.9113
   27CHL1   C27 1995   1.267   4.228   8.653 -0.3076  0.3233 -0.5296
   27CHL1  H27A 1996   1.286   4.329   8.611  0.9539  0.3463  0.0394
   27CHL1  H27B 1997   1.331   4.152   8.604 -0.8809 -0.7438  0.3306
   27CHL1  H27C 1998   1.157   4.212   8.651 -0.9200  3.1149  2.3298
   28CHL1    C3 1999   0.949   0.985   9.831  0.6048 -0.8592 -0.4410
   28CHL1    H3 2000   1.041   0.923   9.839  1.3255 -0.1280 -2.4563
   28CHL1    O3 2001   0.931   1.065   9.948  0.5137  0.1036  0.2324
   28CHL1   H3' 2002   0.851   1.116   9.935  0.9023  0.9440  0.9646
   28CHL1    C4 2003   0.955   1.073   9.703  0.7572  0.3058 -0.2787
   28CHL1   H4A 2004   0.881   1.156   9.705  0.9315  0.4735  1.9112
   28CHL1   H4B 2005   1.052   1.126   9.708  0.4191  0.8510  1.3939
   28CHL1    C5 2006   0.951   0.989   9.576  0.6505 -0.3324  0.1838
   28CHL1    C6 2007   1.048   0.992   9.481 -0.4535  0.2729 -0.2729
   28CHL1    H6 2008   1.145   1.040   9.500  0.8746 -2.5238  0.4846
   28CHL1    C7 2009   1.042   0.921   9.352  0.1595 -0.6174  0.8014
   28CHL1   H7A 2010   1.085   0.990   9.276 -1.9057  0.6368  0.6821
   28CHL1   H7B 2011   1.104   0.830   9.361  0.6655 -0.4382 -0.5713
   28CHL1    C8 2012   0.894   0.871   9.319  0.2517 -0.0030 -1.1721
   28CHL1    H8 2013   0.838   0.961   9.285 -0.0505  0.3344  0.1306
   28CHL1   C14 2014   0.903   0.768   9.204  0.3395 -0.0339  0.4506
   28CHL1   H14 2015   0.937   0.669   9.242  2.2484  1.1758  2.0398
   28CHL1   C15 2016   0.984   0.810   9.080  0.3142  0.0862 -0.5607
   28CHL1  H15A 2017   0.950   0.912   9.051 -1.9364 -0.6167 -0.5784
   28CHL1  H15B 2018   1.094   0.814   9.088  0.1877  3.6563  1.0788
   28CHL1   C16 2019   0.924   0.714   8.973 -0.6212  0.6294  0.5973
   28CHL1  H16A 2020   0.907   0.770   8.878 -1.1155 -0.9829 -0.2989
   28CHL1  H16B 2021   1.006   0.640   8.961 -1.8135 -0.5605 -0.6000
   28CHL1   C17 2022   0.805   0.637   9.029 -0.3116  0.5690 -0.4443
   28CHL1   H17 2023   0.844   0.540   9.067  0.4333  0.7805 -0.6478
   28CHL1   C13 2024   0.767   0.724   9.153 -0.2441 -0.1441  0.3647
   28CHL1   C18 2025   0.678   0.842   9.106 -0.3226  0.1647  0.6148
   28CHL1  H18A 2026   0.588   0.794   9.062  0.3538  0.9274 -1.7390
   28CHL1  H18B 2027   0.647   0.898   9.197  1.0927 -1.1039  1.9320
   28CHL1  H18C 2028   0.725   0.910   9.031  4.3630 -0.8056  2.3277
   28CHL1   C12 2029   0.706   0.652   9.275  0.0922  0.1297 -0.0838
   28CHL1  H12A 2030   0.601   0.621   9.254 -0.8863  1.0804  2.9567
   28CHL1  H12B 2031   0.754   0.556   9.304 -0.2228 -0.0843 -0.2530
   28CHL1   C11 2032   0.695   0.737   9.399 -1.1717 -0.0405 -0.0491
   28CHL1  H11A 2033   0.619   0.815   9.377 -2.3477 -0.6088  1.7876
   28CHL1  H11B 2034   0.660   0.670   9.480  0.0722  0.0085  0.5599
   28CHL1    C9 2035   0.832   0.797   9.436 -0.4856  0.1656  0.2316
   28CHL1    H9 2036   0.903   0.717   9.467 -0.0148  0.1770 -0.7956
   28CHL1   C10 2037   0.827   0.897   9.558  0.0909  0.1318 -0.4828
   28CHL1   C19 2038   0.702   0.987   9.543 -0.3830 -0.3453  0.3748
   28CHL1  H19A 2039   0.714   1.047   9.450 -0.5408  3.6575  2.7120
   28CHL1  H19B 2040   0.603   0.938   9.552 -0.1531 -0.8027  0.4054
   28CHL1  H19C 2041   0.703   1.069   9.618  0.2134 -1.4959  1.6577
   28CHL1    C1 2042   0.807   0.809   9.684 -0.0315 -0.8440 -0.2692
   28CHL1   H1A 2043   0.706   0.764   9.677 -0.8665  0.6290  1.4750
   28CHL1   H1B 2044   0.882   0.726   9.686 -0.3162 -1.1973 -2.3155
   28CHL1    C2 2045   0.822   0.887   9.824  0.5825 -0.1799  0.2975
   28CHL1   H2A 2046   0.826   0.805   9.900  0.1563 -2.8115 -2.3335
   28CHL1   H2B 2047   0.730   0.947   9.840  0.8242  0.7412 -1.4991
   28CHL1   C20 2048   0.698   0.603   8.928 -0.9578  0.1301 -0.2853
   28CHL1   H20 2049   0.650   0.692   8.883 -0.3407  0.0141 -1.1955
   28CHL1   C21 2050   0.605   0.496   8.993 -0.0826 -0.2614  0.3271
   28CHL1  H21A 2051   0.534   0.461   8.915 -1.0107  0.5799  0.7739
   28CHL1  H21B 2052   0.541   0.531   9.077  1.0187 -0.4536  1.2711
   28CHL1  H21C 2053   0.664   0.410   9.030  0.5671  0.8262  1.9154
   28CHL1   C22 2054   0.747   0.530   8.797 -0.8362  0.2664 -0.3994
   28CHL1  H22A 2055   0.841   0.577   8.762 -0.2295 -0.0088  0.7913
   28CHL1  H22B 2056   0.774   0.426   8.825 -1.4090  0.2839  0.2518
   28CHL1   C23 2057   0.650   0.522   8.682  0.3245 -0.0763  0.0549
   28CHL1  H23A 2058   0.570   0.452   8.713 -1.0508  0.7487 -1.4492
   28CHL1  H23B 2059   0.604   0.623   8.683 -0.5231 -0.3869  3.1518
   28CHL1   C24 2060   0.714   0.477   8.550  0.0221 -0.1797 -0.2310
   28CHL1  H24A 2061   0.765   0.381   8.573 -1.9207 -1.0439  0.6341
   28CHL1  H24B 2062   0.640   0.450   8.472  0.7941  0.0076 -1.0452
   28CHL1   C25 2063   0.815   0.576   8.479 -0.1166  0.5086  0.5561
   28CHL1   H25 2064   0.902   0.567   8.548  1.4889 -1.6244 -1.5879
   28CHL1   C26 2065   0.870   0.522   8.339  0.0931 -0.0732  0.1943
   28CHL1  H26A 2066   0.968   0.474   8.362  0.3932  0.7024  0.6058
   28CHL1  H26B 2067   0.803   0.455   8.282 -0.0804 -0.3922  0.7629
   28CHL1  H26C 2068   0.909   0.604   8.275  1.5771 -0.5665  0.4185
   28CHL1   C27 2069   0.759   0.718   8.454 -0.2809 -0.4677  0.5779
   28CHL1  H27A 2070   0.829   0.777   8.391 -3.3199  2.3208 -0.4789
   28CHL1  H27B 2071   0.667   0.709   8.394  0.5874 -1.2906 -0.6659
   28CHL1  H27C 2072   0.728   0.768   8.549 -0.3765  0.9710 -0.1855
   29CHL1    C3 2073   6.514   1.498   6.708 -0.0433  0.3710 -0.0883
   29CHL1    H3 2074   6.604   1.433   6.705 -1.9158 -2.6497  2.9200
   29CHL1    O3 2075   6.462   1.520   6.575  0.2281 -0.0342 -0.3000
   29CHL1   H3' 2076   6.370   1.542   6.589 -0.7060 -2.9030 -1.1847
   29CHL1    C4 2077   6.419   1.424   6.798 -0.2553 -0.1229 -0.2746
   29CHL1   H4A 2078   6.322   1.478   6.811 -0.1270 -0.0957  0.6344
   29CHL1   H4B 2079   6.396   1.326   6.753 -1.4006  0.8582 -1.9272
   29CHL1    C5 2080   6.463   1.411   6.939 -0.6121  0.2631  0.0018
   29CHL1    C6 2081   6.461   1.291   6.996 -0.4536  0.3343  0.2512
   29CHL1    H6 2082   6.435   1.200   6.941  0.3062  0.3182 -0.0950
   29CHL1    C7 2083   6.493   1.279   7.142 -0.5341  0.8051  0.3748
   29CHL1   H7A 2084   6.419   1.201   7.169  1.4721 -1.3929 -0.2401
   29CHL1   H7B 2085   6.592   1.231   7.156 -0.9825 -0.6246 -1.1383
   29CHL1    C8 2086   6.489   1.414   7.213 -0.3758 -0.1753  0.2898
   29CHL1    H8 2087   6.382   1.437   7.232 -0.2961  0.8265 -0.4674
   29CHL1   C14 2088   6.549   1.404   7.358  0.8555  0.0297  0.5694
   29CHL1   H14 2089   6.657   1.380   7.344  0.4105 -1.7886  0.0303
   29CHL1   C15 2090   6.506   1.289   7.449 -0.1289 -0.3504 -0.0715
   29CHL1  H15A 2091   6.395   1.301   7.441 -0.1560 -1.0387 -0.8574
   29CHL1  H15B 2092   6.537   1.185   7.426  0.3739 -0.1538 -0.2898
   29CHL1   C16 2093   6.564   1.334   7.583  0.1462 -0.2085  0.3261
   29CHL1  H16A 2094   6.482   1.331   7.658 -0.9113 -3.1688 -0.8217
   29CHL1  H16B 2095   6.657   1.278   7.607  0.8520  0.5525 -0.5508
   29CHL1   C17 2096   6.606   1.481   7.565 -0.0931 -0.2952  0.0932
   29CHL1   H17 2097   6.715   1.477   7.547 -0.1511 -0.5474 -0.2009
   29CHL1   C13 2098   6.538   1.533   7.440 -0.2369  0.3631 -0.3947
   29CHL1   C18 2099   6.391   1.558   7.469  0.0935 -0.6900  0.7829
   29CHL1  H18A 2100   6.351   1.494   7.551  2.4291 -1.1208  1.6906
   29CHL1  H18B 2101   6.389   1.662   7.507  0.9107 -0.5218  0.3883
   29CHL1  H18C 2102   6.329   1.558   7.377  0.4045  0.5710  0.5576
   29CHL1   C12 2103   6.610   1.648   7.368 -0.8888  0.2025  0.1467
   29CHL1  H12A 2104   6.608   1.748   7.417  1.1182  1.1517 -1.5248
   29CHL1  H12B 2105   6.718   1.623   7.369 -0.9581 -0.2337  2.3332
   29CHL1   C11 2106   6.561   1.664   7.219  0.0536  0.7556 -0.6915
   29CHL1  H11A 2107   6.459   1.706   7.227  0.1509  1.6560 -3.2874
   29CHL1  H11B 2108   6.621   1.740   7.165  0.2416  1.4258  0.4129
   29CHL1    C9 2109   6.563   1.531   7.140 -0.4323 -0.0967  0.4270
   29CHL1    H9 2110   6.668   1.497   7.128 -0.8371 -1.1894 -0.1161
   29CHL1   C10 2111   6.507   1.549   6.999  0.0419  0.0589  0.5199
   29CHL1   C19 2112   6.378   1.642   7.001 -0.6146 -0.1083  0.0150
   29CHL1  H19A 2113   6.310   1.604   7.081 -1.0086 -0.2809 -0.3953
   29CHL1  H19B 2114   6.403   1.747   7.025 -0.8359 -0.5002  2.2564
   29CHL1  H19C 2115   6.322   1.649   6.905  0.8873 -2.5124 -1.1380
   29CHL1    C1 2116   6.602   1.620   6.905 -0.3077 -0.2341 -0.0616
   29CHL1   H1A 2117   6.631   1.721   6.939  1.7579  0.3119 -3.0560
   29CHL1   H1B 2118   6.691   1.554   6.909 -1.0676 -1.2752  0.1245
   29CHL1    C2 2119   6.550   1.637   6.763  0.2909 -0.6798 -0.3661
   29CHL1   H2A 2120   6.627   1.689   6.702  1.2087  1.2482  2.2501
   29CHL1   H2B 2121   6.467   1.711   6.762 -1.7854 -2.8629 -0.1360
   29CHL1   C20 2122   6.591   1.562   7.698  0.0757  0.2132  0.0158
   29CHL1   H20 2123   6.484   1.569   7.726  0.4744  0.7262  1.5147
   29CHL1   C21 2124   6.642   1.701   7.684 -0.0775 -0.1661 -0.1689
   29CHL1  H21A 2125   6.647   1.756   7.780 -0.9080  1.5027 -1.0366
   29CHL1  H21B 2126   6.582   1.758   7.610  2.7752  1.1286 -1.6545
   29CHL1  H21C 2127   6.743   1.688   7.639 -0.5273 -0.4247 -1.1211
   29CHL1   C22 2128   6.655   1.488   7.816 -0.6645 -0.0018 -0.0778
   29CHL1  H22A 2129   6.630   1.379   7.823 -0.2400 -0.0314  1.4315
   29CHL1  H22B 2130   6.764   1.500   7.799 -0.8095  0.6203 -0.5735
   29CHL1   C23 2131   6.613   1.543   7.953 -0.2574 -0.4105  0.0910
   29CHL1  H23A 2132   6.657   1.645   7.961  2.4153 -1.3146 -1.7702
   29CHL1  H23B 2133   6.502   1.549   7.954 -0.2342  0.2515 -0.6400
   29CHL1   C24 2134   6.660   1.451   8.068 -0.1674 -0.1895 -0.1895
   29CHL1  H24A 2135   6.653   1.347   8.029 -1.7390 -0.4817  0.8017
   29CHL1  H24B 2136   6.765   1.475   8.095 -0.0720 -1.2062  0.3937
   29CHL1   C25 2137   6.569   1.466   8.189 -0.1548  0.5583  0.6928
   29CHL1   H25 2138   6.531   1.570   8.197 -1.2493  0.5246 -2.4255
   29CHL1   C26 2139   6.438   1.381   8.174 -0.2928  0.0359  0.1468
   29CHL1  H26A 2140   6.367   1.401   8.257  0.1692 -1.2456  0.8859
   29CHL1  H26B 2141   6.381   1.411   8.084  0.9697 -1.1767 -1.0966
   29CHL1  H26C 2142   6.450   1.271   8.161  1.0742  0.3399 -1.5140
   29CHL1   C27 2143   6.649   1.432   8.312  0.2429  0.3457  0.0683
   29CHL1  H27A 2144   6.711   1.340   8.298  1.0379  0.8112  0.4339
   29CHL1  H27B 2145   6.723   1.507   8.348 -0.9513  1.2885  0.6312
   29CHL1  H27C 2146   6.574   1.422   8.394 -3.3422  1.4555 -2.8401
   30CHL1    C3 2147   4.139   1.188   7.282  0.4262 -0.0709  0.1975
   30CHL1    H3 2148   4.028   1.190   7.275  0.2125 -0.5939  2.6519
   30CHL1    O3 2149   4.195   1.153   7.154 -0.3825  0.3397  0.1060
   30CHL1   H3' 2150   4.189   1.057   7.152 -0.6880  0.2218  2.9339
   30CHL1    C4 2151   4.189   1.327   7.336 -0.8387  0.0588  0.8696
   30CHL1   H4A 2152   4.300   1.335   7.334 -0.5253 -3.0338  0.3628
   30CHL1   H4B 2153   4.154   1.414   7.277  0.5177 -0.3343 -0.6031
   30CHL1    C5 2154   4.149   1.345   7.478 -0.8665 -0.1277 -0.4461
   30CHL1    C6 2155   4.074   1.453   7.523  0.3689 -0.1644  0.8280
   30CHL1    H6 2156   4.060   1.535   7.451  0.2817 -1.6826 -0.9796
   30CHL1    C7 2157   4.034   1.463   7.666  0.4854  0.2831 -0.0063
   30CHL1   H7A 2158   4.032   1.566   7.707 -2.2718 -0.1957  1.2907
   30CHL1   H7B 2159   3.930   1.423   7.665  0.4962  0.2505 -0.5116
   30CHL1    C8 2160   4.110   1.373   7.768 -0.0540  0.6937 -0.0804
   30CHL1    H8 2161   4.213   1.409   7.787 -0.2739  2.2615 -1.5427
   30CHL1   C14 2162   4.040   1.370   7.902 -0.1563 -0.0875  0.0451
   30CHL1   H14 2163   3.940   1.334   7.869  0.5459  1.1409 -4.0250
   30CHL1   C15 2164   4.019   1.503   7.981 -0.2134  0.3147  1.4492
   30CHL1  H15A 2165   4.115   1.557   7.994 -0.7504  1.4517  0.7872
   30CHL1  H15B 2166   3.932   1.565   7.951  0.3917  1.1555  1.3938
   30CHL1   C16 2167   3.976   1.449   8.124  0.3031  0.6541 -0.2028
   30CHL1  H16A 2168   4.043   1.505   8.193  0.9818 -0.9865  0.5213
   30CHL1  H16B 2169   3.869   1.465   8.151  0.1586  0.4554 -0.6471
   30CHL1   C17 2170   3.998   1.300   8.126 -0.0161 -0.0410  0.4287
   30CHL1   H17 2171   3.902   1.250   8.101  0.5182  0.1897 -2.3063
   30CHL1   C13 2172   4.086   1.271   8.001  0.3610  0.5184 -0.3156
   30CHL1   C18 2173   4.230   1.307   8.041 -0.2921  0.5986 -0.6707
   30CHL1  H18A 2174   4.226   1.405   8.092  1.1238  1.5911 -2.3377
   30CHL1  H18B 2175   4.271   1.225   8.103 -3.4944 -0.3405  0.3787
   30CHL1  H18C 2176   4.300   1.328   7.957  3.3343  0.0191  1.9731
   30CHL1   C12 2177   4.087   1.128   7.944  0.3983  0.5277  0.2567
   30CHL1  H12A 2178   4.116   1.052   8.020 -2.3911 -1.2955 -0.3775
   30CHL1  H12B 2179   3.985   1.101   7.911  1.0690 -0.9135 -0.7616
   30CHL1   C11 2180   4.171   1.129   7.815 -0.7052  0.4197 -0.7776
   30CHL1  H11A 2181   4.278   1.136   7.845 -1.6577 -1.1980  3.6518
   30CHL1  H11B 2182   4.150   1.031   7.768  0.0131 -1.2212  2.0690
   30CHL1    C9 2183   4.118   1.232   7.711  0.0091  0.1038 -0.0044
   30CHL1    H9 2184   4.010   1.212   7.694 -0.4651 -0.4702  3.1505
   30CHL1   C10 2185   4.182   1.233   7.575 -0.3734 -0.4798  0.5146
   30CHL1   C19 2186   4.336   1.239   7.592  0.3838  0.1156 -0.0138
   30CHL1  H19A 2187   4.375   1.323   7.653  0.0301  0.5401 -0.3586
   30CHL1  H19B 2188   4.363   1.149   7.652 -1.3239  1.2971  2.7149
   30CHL1  H19C 2189   4.382   1.240   7.491 -0.8375  0.7200 -0.5829
   30CHL1    C1 2190   4.146   1.094   7.507  0.5310 -0.0118 -0.2878
   30CHL1   H1A 2191   4.197   1.020   7.572  0.7263  0.8969  0.6135
   30CHL1   H1B 2192   4.040   1.060   7.505 -0.3420  2.4676 -1.5677
   30CHL1    C2 2193   4.190   1.076   7.369  0.6873  0.4560  0.9638
   30CHL1   H2A 2194   4.162   0.973   7.337  0.4361  0.3739  1.4447
   30CHL1   H2B 2195   4.301   1.066   7.371  0.7891 -0.0459 -2.0129
   30CHL1   C20 2196   4.040   1.261   8.262  0.1072 -0.2575  0.7891
   30CHL1   H20 2197   4.147   1.290   8.268 -0.1350  1.4465 -1.5453
   30CHL1   C21 2198   4.012   1.108   8.272 -0.6122 -0.6760 -0.7174
   30CHL1  H21A 2199   4.095   1.047   8.232  0.3767  0.2523 -0.1569
   30CHL1  H21B 2200   3.907   1.083   8.246 -1.1569  1.2311 -0.5163
   30CHL1  H21C 2201   4.015   1.082   8.380  1.7003 -0.9156 -0.7842
   30CHL1   C22 2202   3.971   1.323   8.392  0.0721 -0.0159  0.4115
   30CHL1  H22A 2203   4.014   1.282   8.485 -1.8971 -1.8653  0.5850
   30CHL1  H22B 2204   4.001   1.430   8.386 -3.7225  1.1715  0.4302
   30CHL1   C23 2205   3.824   1.309   8.382 -0.8251  0.9350 -0.1934
   30CHL1  H23A 2206   3.780   1.303   8.280 -1.7648 -1.7260  0.2936
   30CHL1  H23B 2207   3.805   1.207   8.420  0.2354  1.0428  0.6621
   30CHL1   C24 2208   3.757   1.428   8.466  0.1229  0.0920  0.0998
   30CHL1  H24A 2209   3.805   1.421   8.567  1.5894 -4.5102 -0.6762
   30CHL1  H24B 2210   3.772   1.531   8.427 -1.1481 -0.2830 -1.4772
   30CHL1   C25 2211   3.600   1.419   8.464 -0.4243 -0.2959 -0.4972
   30CHL1   H25 2212   3.559   1.514   8.506 -0.5678 -0.8818  0.7307
   30CHL1   C26 2213   3.544   1.413   8.317 -0.4738 -0.7890 -0.0788
   30CHL1  H26A 2214   3.433   1.423   8.320 -0.2924  1.6813  0.8417
   30CHL1  H26B 2215   3.581   1.494   8.252 -1.3752  0.4086  0.8569
   30CHL1  H26C 2216   3.580   1.314   8.280  1.1365 -0.6082  0.9298
   30CHL1   C27 2217   3.553   1.308   8.562  0.5113  0.2362  0.5025
   30CHL1  H27A 2218   3.570   1.206   8.522  1.2067  1.0880 -1.4791
   30CHL1  H27B 2219   3.596   1.330   8.662  1.7522  0.9118 -0.1607
   30CHL1  H27C 2220   3.443   1.316   8.574  0.7673  0.1906  4.1364
   31CHL1    C3 2221   2.970   2.444   6.639  0.4046 -0.5870  0.1872
   31CHL1    H3 2222   2.882   2.512   6.642  0.0675 -0.9657 -0.5704
   31CHL1    O3 2223   3.016   2.412   6.507  0.4076 -0.0201  0.5387
   31CHL1   H3' 2224   2.937   2.424   6.454  1.8445  0.1902 -1.7105
   31CHL1    C4 2225   3.082   2.522   6.713  0.0142  0.4236  0.8108
   31CHL1   H4A 2226   3.181   2.474   6.692 -0.1710 -0.6433  2.1910
   31CHL1   H4B 2227   3.092   2.617   6.657  0.6165 -0.0502  0.0891
   31CHL1    C5 2228   3.058   2.529   6.868  0.4640  0.2486 -0.3896
   31CHL1    C6 2229   3.080   2.639   6.932 -0.3759 -0.2064  0.1821
   31CHL1    H6 2230   3.132   2.720   6.879  2.1046 -2.1385 -0.5290
   31CHL1    C7 2231   3.055   2.665   7.077 -0.4994  0.3763 -0.2154
   31CHL1   H7A 2232   3.147   2.706   7.125  1.6026 -1.4696 -2.4489
   31CHL1   H7B 2233   2.964   2.727   7.093  0.1602  1.2836  0.1556
   31CHL1    C8 2234   3.034   2.531   7.163  0.0940 -0.0137  0.1744
   31CHL1    H8 2235   3.128   2.479   7.189  0.2223 -0.4528 -1.1288
   31CHL1   C14 2236   2.965   2.557   7.296  0.3191 -0.0626  0.4659
   31CHL1   H14 2237   2.868   2.595   7.257  0.3802 -1.4898 -1.2115
   31CHL1   C15 2238   3.019   2.668   7.392 -0.1405  0.4287 -0.6170
   31CHL1  H15A 2239   3.128   2.647   7.396 -0.7466 -3.2956  1.0679
   31CHL1  H15B 2240   3.009   2.769   7.348 -2.7365 -0.1586 -1.5362
   31CHL1   C16 2241   2.955   2.636   7.529 -0.0685 -0.0491 -0.2606
   31CHL1  H16A 2242   3.036   2.647   7.604 -0.4134  1.0325 -0.0283
   31CHL1  H16B 2243   2.878   2.712   7.555  1.7658  1.9696 -0.4732
   31CHL1   C17 2244   2.889   2.493   7.516 -0.2664 -0.2466 -0.1953
   31CHL1   H17 2245   2.784   2.513   7.484 -0.5266 -3.3907 -1.7751
   31CHL1   C13 2246   2.946   2.434   7.383  0.2229  0.1487 -0.3951
   31CHL1   C18 2247   3.086   2.374   7.432  0.5910 -0.0045  0.5461
   31CHL1  H18A 2248   3.065   2.285   7.495  1.1937 -0.8222 -0.3810
   31CHL1  H18B 2249   3.147   2.342   7.344 -1.3233  0.7342 -1.1379
   31CHL1  H18C 2250   3.155   2.448   7.477  1.8378 -1.4600  1.1119
   31CHL1   C12 2251   2.850   2.341   7.308 -0.4342 -0.5501 -0.8529
   31CHL1  H12A 2252   2.823   2.245   7.357  1.4869 -0.7019  0.0296
   31CHL1  H12B 2253   2.751   2.387   7.290 -0.1329  0.9424  1.0252
   31CHL1   C11 2254   2.915   2.309   7.172  0.0379 -0.5091  0.2500
   31CHL1  H11A 2255   3.009   2.254   7.194  0.4800  0.0913 -0.0921
   31CHL1  H11B 2256   2.856   2.237   7.111 -1.2959 -0.2504  1.1833
   31CHL1    C9 2257   2.946   2.432   7.083  0.5100  0.5192  0.3595
   31CHL1    H9 2258   2.848   2.482   7.067 -0.8063 -1.7119  1.0552
   31CHL1   C10 2259   3.001   2.409   6.940  0.8598  0.7643 -0.1631
   31CHL1   C19 2260   3.110   2.303   6.950  0.0360 -0.2470 -0.2291
   31CHL1  H19A 2261   3.185   2.335   7.026 -2.0185 -2.3683  2.9806
   31CHL1  H19B 2262   3.063   2.207   6.981 -1.2202  0.7851  1.2453
   31CHL1  H19C 2263   3.156   2.287   6.850  1.0727 -0.6105  0.2891
   31CHL1    C1 2264   2.896   2.352   6.849 -0.0896 -0.2323  0.6019
   31CHL1   H1A 2265   2.861   2.257   6.895 -2.2664  0.2137 -0.0164
   31CHL1   H1B 2266   2.812   2.422   6.832  0.9748  0.6975 -1.1565
   31CHL1    C2 2267   2.930   2.315   6.706 -0.5507 -0.2697  0.0807
   31CHL1   H2A 2268   2.842   2.281   6.647  1.3224 -1.2789 -2.3102
   31CHL1   H2B 2269   3.002   2.231   6.692 -1.1408 -0.9494  0.9294
   31CHL1   C20 2270   2.880   2.396   7.642  0.4719 -1.3961  0.2048
   31CHL1   H20 2271   2.975   2.359   7.685 -0.6991 -2.2188  2.2147
   31CHL1   C21 2272   2.793   2.274   7.616  0.4615 -0.8143  0.0906
   31CHL1  H21A 2273   2.847   2.202   7.551 -1.6868 -0.4889 -2.2209
   31CHL1  H21B 2274   2.693   2.295   7.573  0.6002  0.2809  0.2771
   31CHL1  H21C 2275   2.776   2.214   7.707 -1.5480 -1.2904 -0.5498
   31CHL1   C22 2276   2.823   2.477   7.766  0.0490  0.3927 -0.2336
   31CHL1  H22A 2277   2.864   2.580   7.770  0.5784  0.1891 -0.3661
   31CHL1  H22B 2278   2.712   2.473   7.757  0.2092 -0.6546 -2.5003
   31CHL1   C23 2279   2.853   2.418   7.900 -0.3241 -0.7406  0.1936
   31CHL1  H23A 2280   2.785   2.332   7.915  0.5524 -1.6160 -0.6739
   31CHL1  H23B 2281   2.952   2.369   7.916  0.9217  1.3158 -0.7772
   31CHL1   C24 2282   2.833   2.527   8.008 -0.2400 -0.6414  0.1300
   31CHL1  H24A 2283   2.899   2.613   7.987 -1.4763  0.3621  0.2331
   31CHL1  H24B 2284   2.727   2.561   8.007 -0.4895 -1.2995  1.2064
   31CHL1   C25 2285   2.850   2.495   8.157 -0.7689 -0.3474 -0.0120
   31CHL1   H25 2286   2.946   2.440   8.165 -0.2089  0.4329 -0.9897
   31CHL1   C26 2287   2.867   2.624   8.241  0.0679 -0.1328  0.2552
   31CHL1  H26A 2288   2.885   2.601   8.349 -1.9613  0.2832  0.7298
   31CHL1  H26B 2289   2.950   2.680   8.194 -1.6975  1.3152 -1.2703
   31CHL1  H26C 2290   2.771   2.679   8.235 -0.7748 -1.7278 -2.9527
   31CHL1   C27 2291   2.731   2.408   8.212  0.0317  0.4051 -0.4532
   31CHL1  H27A 2292   2.642   2.464   8.175 -1.6609 -1.3849  0.6623
   31CHL1  H27B 2293   2.713   2.403   8.322 -1.2429 -3.2205 -0.6917
   31CHL1  H27C 2294   2.731   2.304   8.173  1.4109 -0.6288  2.0492
   32CHL1    C3 2295   0.891   6.468   6.824  0.0494  0.3017 -0.0690
   32CHL1    H3 2296   0.900   6.563   6.881 -0.6404 -0.4393  1.3417
   32CHL1    O3 2297   0.831   6.502   6.701  0.6915  0.5449  0.1005
   32CHL1   H3' 2298   0.792   6.419   6.672  0.8975  0.7341 -0.7399
   32CHL1    C4 2299   1.026   6.399   6.806  0.4447  0.6436  0.3076
   32CHL1   H4A 2300   1.017   6.311   6.739  2.0389 -0.2218  1.1768
   32CHL1   H4B 2301   1.096   6.472   6.761 -0.5982  0.4919 -1.6988
   32CHL1    C5 2302   1.071   6.375   6.948  0.2298  0.0068  0.2676
   32CHL1    C6 2303   1.191   6.423   6.993  0.5528 -0.0466 -0.2909
   32CHL1    H6 2304   1.248   6.484   6.922 -0.0955 -0.0240 -0.8066
   32CHL1    C7 2305   1.250   6.414   7.130 -0.6783 -0.1379  1.4755
   32CHL1   H7A 2306   1.353   6.374   7.113 -1.6056 -1.4857 -1.9693
   32CHL1   H7B 2307   1.254   6.517   7.169  0.5726  0.0048  1.0363
   32CHL1    C8 2308   1.180   6.303   7.210 -0.0054 -0.2566  0.7078
   32CHL1    H8 2309   1.210   6.199   7.183 -3.1579 -0.8850 -0.8228
   32CHL1   C14 2310   1.219   6.325   7.357  0.0213  0.1317  0.5103
   32CHL1   H14 2311   1.173   6.420   7.392 -0.1724 -0.1170  0.9330
   32CHL1   C15 2312   1.360   6.353   7.393 -0.8437  0.0360 -0.2698
   32CHL1  H15A 2313   1.418   6.270   7.348  0.2750  0.5850  0.1149
   32CHL1  H15B 2314   1.394   6.456   7.367  0.6256  0.0378  1.4409
   32CHL1   C16 2315   1.362   6.347   7.548 -0.0887  1.4532 -0.3462
   32CHL1  H16A 2316   1.452   6.288   7.574  0.0278  1.7643 -0.0269
   32CHL1  H16B 2317   1.366   6.445   7.601 -1.0107  0.7709  1.0845
   32CHL1   C17 2318   1.225   6.282   7.590  0.0611 -0.3277 -0.1572
   32CHL1   H17 2319   1.157   6.358   7.635  1.2459 -0.2722  1.6277
   32CHL1   C13 2320   1.164   6.225   7.461  0.9237 -0.9644  0.1336
   32CHL1   C18 2321   1.214   6.088   7.438 -0.1356 -0.2077  0.2525
   32CHL1  H18A 2322   1.324   6.090   7.452 -0.2604  1.3800  1.2968
   32CHL1  H18B 2323   1.158   6.009   7.492  0.7324 -2.3190 -1.7793
   32CHL1  H18C 2324   1.211   6.056   7.332  4.5154 -0.7424  0.0521
   32CHL1   C12 2325   1.003   6.239   7.444 -0.2171  0.1294  0.2863
   32CHL1  H12A 2326   0.953   6.164   7.510  0.4408 -0.0452  0.5917
   32CHL1  H12B 2327   0.972   6.339   7.483 -1.4567 -0.8151  1.8742
   32CHL1   C11 2328   0.949   6.229   7.296  0.0935  0.6163  0.7492
   32CHL1  H11A 2329   0.951   6.122   7.266 -1.6103  0.2643  1.7179
   32CHL1  H11B 2330   0.841   6.254   7.302  0.4905  2.7982 -0.0989
   32CHL1    C9 2331   1.024   6.306   7.195  0.7246 -0.4116 -0.0004
   32CHL1    H9 2332   0.997   6.412   7.215  1.9184 -0.1616  0.4143
   32CHL1   C10 2333   0.981   6.298   7.045  0.2784  0.4400 -0.7346
   32CHL1   C19 2334   0.976   6.151   7.011  0.0790  0.1093 -0.3373
   32CHL1  H19A 2335   0.937   6.130   6.910 -2.2907  0.1370  0.5032
   32CHL1  H19B 2336   1.074   6.105   7.035  0.0076  1.6142  3.6861
   32CHL1  H19C 2337   0.896   6.102   7.072  0.2700  2.3835  1.9352
   32CHL1    C1 2338   0.843   6.360   7.042 -0.4419 -0.5512  0.6970
   32CHL1   H1A 2339   0.765   6.309   7.102 -3.0212  2.5515  0.2366
   32CHL1   H1B 2340   0.852   6.463   7.081  1.1440  0.3797 -1.8181
   32CHL1    C2 2341   0.785   6.386   6.901  0.0018  0.1220  0.3139
   32CHL1   H2A 2342   0.689   6.442   6.909 -0.7884 -1.2037  0.4125
   32CHL1   H2B 2343   0.767   6.296   6.839 -1.1389  0.2275  0.4640
   32CHL1   C20 2344   1.242   6.186   7.714  0.3403  0.5367 -0.4885
   32CHL1   H20 2345   1.304   6.100   7.682  0.6532 -0.0220  1.4954
   32CHL1   C21 2346   1.102   6.133   7.754 -0.2926 -0.0381 -1.1332
   32CHL1  H21A 2347   1.045   6.224   7.783  2.4003  1.7934 -1.2883
   32CHL1  H21B 2348   1.099   6.059   7.837 -2.8942  1.1440 -0.0400
   32CHL1  H21C 2349   1.054   6.085   7.666 -0.7338 -0.0613 -0.8861
   32CHL1   C22 2350   1.306   6.250   7.835 -0.7234 -0.6223  0.3512
   32CHL1  H22A 2351   1.283   6.193   7.927  0.4082  1.5119  2.0530
   32CHL1  H22B 2352   1.416   6.240   7.822 -0.7499 -0.1019 -0.3211
   32CHL1   C23 2353   1.274   6.400   7.877 -0.1021  0.7232 -0.0747
   32CHL1  H23A 2354   1.319   6.467   7.800 -0.5597  0.8501 -0.2354
   32CHL1  H23B 2355   1.166   6.417   7.859 -0.1049  0.0498 -0.7430
   32CHL1   C24 2356   1.322   6.440   8.014  0.6514 -0.2094 -0.0949
   32CHL1  H24A 2357   1.270   6.371   8.084  0.5042 -0.5468 -0.5328
   32CHL1  H24B 2358   1.431   6.422   8.010  0.4731 -1.1433 -2.3726
   32CHL1   C25 2359   1.292   6.590   8.051  0.3557  0.1900  0.0417
   32CHL1   H25 2360   1.186   6.608   8.021  0.9206  0.1749 -2.0997
   32CHL1   C26 2361   1.306   6.619   8.201 -0.3414 -0.1051 -0.0182
   32CHL1  H26A 2362   1.409   6.601   8.238 -1.0803 -0.2465  2.0692
   32CHL1  H26B 2363   1.261   6.719   8.218  0.3693 -0.0699  1.7521
   32CHL1  H26C 2364   1.234   6.544   8.241 -0.0142 -0.5461 -0.2547
   32CHL1   C27 2365   1.374   6.690   7.970 -0.5174 -0.4002  0.5851
   32CHL1  H27A 2366   1.482   6.667   7.973  0.0587  1.1927 -2.6811
   32CHL1  H27B 2367   1.346   6.693   7.862 -0.9192  1.4790  0.7016
   32CHL1  H27C 2368   1.360   6.796   8.002 -2.1898 -0.3659 -0.1421
   33CHL1    C3 2369   5.974   2.182   6.701 -0.0219 -0.2041  0.0243
   33CHL1    H3 2370   6.054   2.259   6.696  0.0731 -0.3603 -2.9854
   33CHL1    O3 2371   5.914   2.169   6.569  0.0180  0.3124  0.2622
   33CHL1   H3' 2372   5.857   2.093   6.577 -1.1348  1.2238  1.1213
   33CHL1    C4 2373   6.040   2.044   6.732  0.0815  0.1305  0.7336
   33CHL1   H4A 2374   5.953   1.980   6.757 -0.7339  0.0392 -1.9937
   33CHL1   H4B 2375   6.092   2.000   6.644  2.1037  0.4363  1.7184
   33CHL1    C5 2376   6.112   2.057   6.863  0.0742 -0.2156 -0.6577
   33CHL1    C6 2377   6.245   2.051   6.876  0.1176  0.0057  0.6834
   33CHL1    H6 2378   6.297   2.031   6.781 -0.8290 -0.8639  0.3241
   33CHL1    C7 2379   6.331   2.062   6.997  0.1093  0.6187  0.4815
   33CHL1   H7A 2380   6.411   1.985   7.007 -0.7233 -0.4429 -0.8101
   33CHL1   H7B 2381   6.375   2.164   6.996 -1.0712  1.1763  1.8168
   33CHL1    C8 2382   6.241   2.040   7.119  0.1394 -0.8554  0.5326
   33CHL1    H8 2383   6.224   1.930   7.127  1.2401 -0.9687  1.5137
   33CHL1   C14 2384   6.317   2.086   7.237  0.3483  0.2056  0.0050
   33CHL1   H14 2385   6.341   2.191   7.210  1.1574  0.0539  0.1167
   33CHL1   C15 2386   6.445   2.021   7.271 -0.4229 -0.0301  0.3959
   33CHL1  H15A 2387   6.438   1.914   7.242 -0.1323  0.2431 -0.7173
   33CHL1  H15B 2388   6.533   2.065   7.218 -1.2795 -1.1612 -2.1017
   33CHL1   C16 2389   6.473   2.041   7.421 -0.0101 -0.4022 -0.1368
   33CHL1  H16A 2390   6.470   1.942   7.470 -1.6206 -0.6357 -0.6381
   33CHL1  H16B 2391   6.578   2.070   7.444 -0.2113  0.3863 -0.1700
   33CHL1   C17 2392   6.352   2.125   7.463 -0.5982 -0.2393 -0.1265
   33CHL1   H17 2393   6.372   2.232   7.443 -0.6985 -0.6820 -3.0429
   33CHL1   C13 2394   6.233   2.094   7.362 -0.5102 -0.7255  0.2737
   33CHL1   C18 2395   6.180   1.954   7.406  0.8241  0.1284  0.1652
   33CHL1  H18A 2396   6.269   1.888   7.415  1.0259 -0.2230 -3.0938
   33CHL1  H18B 2397   6.127   1.980   7.499  1.2802 -0.3010  0.5541
   33CHL1  H18C 2398   6.113   1.912   7.328 -0.5160  1.9840  0.2699
   33CHL1   C12 2399   6.125   2.195   7.339  0.2021 -0.1622 -0.4606
   33CHL1  H12A 2400   6.062   2.229   7.424 -2.0317  2.7051 -3.0457
   33CHL1  H12B 2401   6.167   2.295   7.314 -2.4103  1.4386  1.1559
   33CHL1   C11 2402   6.036   2.148   7.229 -0.2977 -0.0305  1.1997
   33CHL1  H11A 2403   5.996   2.052   7.267  1.7943 -0.8055  1.5744
   33CHL1  H11B 2404   5.950   2.216   7.207  1.3843  1.4352 -1.5044
   33CHL1    C9 2405   6.112   2.116   7.096  0.2776 -0.4680 -0.3933
   33CHL1    H9 2406   6.148   2.219   7.075 -1.2799  0.0133 -0.7793
   33CHL1   C10 2407   6.020   2.074   6.982 -0.4430  0.4432  0.4097
   33CHL1   C19 2408   5.940   1.948   7.018 -0.4109 -0.1383  0.4570
   33CHL1  H19A 2409   6.006   1.860   7.004 -0.6458 -0.4572  1.2766
   33CHL1  H19B 2410   5.907   1.954   7.124 -1.7726  1.0865  0.0108
   33CHL1  H19C 2411   5.847   1.926   6.960  1.3541 -4.1061 -1.2300
   33CHL1    C1 2412   5.915   2.194   6.955 -0.9164  0.9800 -0.1386
   33CHL1   H1A 2413   5.827   2.191   7.022 -1.0344  0.0380 -0.3156
   33CHL1   H1B 2414   5.974   2.286   6.973  0.5567  0.4106 -1.7803
   33CHL1    C2 2415   5.864   2.205   6.805  0.2492  0.2745 -0.2434
   33CHL1   H2A 2416   5.818   2.305   6.787  0.8733  1.3001  3.1813
   33CHL1   H2B 2417   5.784   2.130   6.786 -0.9137  0.7104  2.4510
   33CHL1   C20 2418   6.316   2.112   7.615 -0.2068  0.2350  1.0378
   33CHL1   H20 2419   6.292   2.005   7.630 -0.8612  0.3239  0.6876
   33CHL1   C21 2420   6.193   2.196   7.651 -0.2526  0.1970 -0.4080
   33CHL1  H21A 2421   6.101   2.150   7.609 -0.5350 -0.3751  0.7827
   33CHL1  H21B 2422   6.205   2.298   7.609  0.9384  1.3699  2.5267
   33CHL1  H21C 2423   6.181   2.200   7.762 -1.3127 -1.8076 -0.3940
   33CHL1   C22 2424   6.436   2.138   7.709 -0.3483  0.3528  0.2995
   33CHL1  H22A 2425   6.527   2.095   7.662  0.0992 -0.7424  2.0788
   33CHL1  H22B 2426   6.452   2.247   7.727  1.8009 -0.5231  5.1743
   33CHL1   C23 2427   6.421   2.074   7.849  0.2982 -0.8912 -0.1545
   33CHL1  H23A 2428   6.365   2.154   7.902  0.1815  1.3535 -3.3747
   33CHL1  H23B 2429   6.354   1.987   7.830 -0.3307 -0.7646  1.3920
   33CHL1   C24 2430   6.554   2.043   7.919 -0.5907 -0.5043 -1.0361
   33CHL1  H24A 2431   6.631   2.003   7.851  1.5539  1.5745  0.0317
   33CHL1  H24B 2432   6.593   2.137   7.964 -0.4749 -0.9587 -0.1714
   33CHL1   C25 2433   6.528   1.954   8.045 -0.3212 -0.0189  0.3451
   33CHL1   H25 2434   6.472   1.864   8.012 -1.0373  0.2495  0.8036
   33CHL1   C26 2435   6.652   1.912   8.123  0.3759  0.3667  0.1077
   33CHL1  H26A 2436   6.621   1.845   8.206  2.7700 -1.4267 -0.3294
   33CHL1  H26B 2437   6.716   1.857   8.051 -0.6460 -0.0092 -0.5454
   33CHL1  H26C 2438   6.712   2.003   8.145 -1.7730  1.4065  2.1178
   33CHL1   C27 2439   6.437   2.021   8.148  0.0290 -0.7896  0.0853
   33CHL1  H27A 2440   6.338   2.037   8.099  0.4837 -0.5702 -0.7832
   33CHL1  H27B 2441   6.433   1.960   8.240 -1.1996  0.6564  1.0452
   33CHL1  H27C 2442   6.489   2.116   8.173 -0.3104 -0.3432 -0.8118
   34CHL1    C3 2443   6.302   6.130   6.932 -0.5973 -0.0695 -0.3863
   34CHL1    H3 2444   6.372   6.215   6.949  0.1258 -0.8775  0.7592
   34CHL1    O3 2445   6.292   6.125   6.786  0.3709  0.0396  0.5521
   34CHL1   H3' 2446   6.238   6.047   6.770 -1.5739  1.6600 -1.4147
   34CHL1    C4 2447   6.378   6.004   6.984 -0.2300  0.0496 -0.1843
   34CHL1   H4A 2448   6.328   5.911   6.948  1.0176 -0.4838 -0.5915
   34CHL1   H4B 2449   6.478   6.003   6.935  0.8117  1.2720  1.7791
   34CHL1    C5 2450   6.389   6.018   7.135  0.7624 -0.1330 -0.7042
   34CHL1    C6 2451   6.505   6.009   7.199 -0.4695  0.1204  0.7770
   34CHL1    H6 2452   6.587   5.966   7.139  0.0457 -0.7642  2.0604
   34CHL1    C7 2453   6.533   6.026   7.344  0.8677 -0.4965 -0.1059
   34CHL1   H7A 2454   6.611   5.955   7.379  0.8517 -0.3608  0.2044
   34CHL1   H7B 2455   6.560   6.131   7.365  0.1717 -0.4702  0.6931
   34CHL1    C8 2456   6.398   6.008   7.418  0.3194  0.1479 -0.1794
   34CHL1    H8 2457   6.369   5.901   7.410  1.1769 -0.0725 -0.4001
   34CHL1   C14 2458   6.425   6.039   7.564  0.4047  0.2857  0.2049
   34CHL1   H14 2459   6.463   6.143   7.577 -0.1970  0.6600 -0.8495
   34CHL1   C15 2460   6.532   5.955   7.647  0.2815 -0.3171  0.0645
   34CHL1  H15A 2461   6.524   5.850   7.612 -1.9316  0.6090 -2.6954
   34CHL1  H15B 2462   6.633   5.995   7.622  0.6207 -0.3139  1.4101
   34CHL1   C16 2463   6.484   5.984   7.790  0.0572  0.4624  0.6788
   34CHL1  H16A 2464   6.453   5.891   7.842 -1.2141  0.6492  0.2929
   34CHL1  H16B 2465   6.555   6.038   7.856 -1.3317  0.4322  2.2912
   34CHL1   C17 2466   6.358   6.073   7.788 -0.3509  0.3535  0.2887
   34CHL1   H17 2467   6.387   6.181   7.783 -0.8349  0.5309  1.1768
   34CHL1   C13 2468   6.300   6.028   7.652 -0.0261 -0.3003  0.4820
   34CHL1   C18 2469   6.247   5.886   7.660  0.2879  0.6787 -0.9658
   34CHL1  H18A 2470   6.308   5.808   7.711  0.8142  0.1263 -2.3893
   34CHL1  H18B 2471   6.155   5.894   7.722 -1.2687  1.8983 -3.2862
   34CHL1  H18C 2472   6.231   5.842   7.559  1.4260  1.5720 -1.5639
   34CHL1   C12 2473   6.193   6.127   7.595 -0.0771  0.0305 -0.3397
   34CHL1  H12A 2474   6.097   6.119   7.652 -2.2239 -0.8403 -3.7310
   34CHL1  H12B 2475   6.234   6.228   7.613  0.5805 -0.0868 -1.1356
   34CHL1   C11 2476   6.153   6.098   7.452 -0.2447  0.2971  0.0946
   34CHL1  H11A 2477   6.104   5.999   7.451  1.3773 -0.6430  2.6188
   34CHL1  H11B 2478   6.071   6.162   7.412  0.7745  1.9881  0.5955
   34CHL1    C9 2479   6.284   6.093   7.359  0.4382  0.6431  0.4706
   34CHL1    H9 2480   6.323   6.196   7.371  0.1637  0.8076 -0.0299
   34CHL1   C10 2481   6.250   6.046   7.213 -0.1801  0.0145  0.5946
   34CHL1   C19 2482   6.180   5.909   7.205  0.2572 -0.2921  0.2070
   34CHL1  H19A 2483   6.076   5.932   7.236  0.3342  1.8649 -0.9390
   34CHL1  H19B 2484   6.176   5.870   7.101 -0.6882 -0.6229  0.3564
   34CHL1  H19C 2485   6.233   5.839   7.272 -1.0807 -0.7232  0.8566
   34CHL1    C1 2486   6.169   6.159   7.142  0.2615  0.3718  0.0554
   34CHL1   H1A 2487   6.063   6.148   7.175 -0.2049  0.8007 -1.2385
   34CHL1   H1B 2488   6.196   6.261   7.177 -0.9413 -0.0051  2.3279
   34CHL1    C2 2489   6.165   6.152   6.997  0.8299 -0.0029  0.3284
   34CHL1   H2A 2490   6.111   6.237   6.950  0.3052  0.2570  1.3765
   34CHL1   H2B 2491   6.106   6.060   6.979  1.2302 -0.5397  1.6538
   34CHL1   C20 2492   6.256   6.053   7.912 -0.2278 -0.1067  0.3811
   34CHL1   H20 2493   6.155   6.044   7.865  0.0052 -0.9835  0.0312
   34CHL1   C21 2494   6.258   6.185   7.996 -0.6076 -0.4222  0.2182
   34CHL1  H21A 2495   6.356   6.211   8.041 -0.5454  1.2943 -0.8257
   34CHL1  H21B 2496   6.186   6.187   8.081  0.2762  3.2995  1.0891
   34CHL1  H21C 2497   6.223   6.274   7.939  0.2634  1.4997  2.4877
   34CHL1   C22 2498   6.267   5.932   8.007 -0.3767 -0.1848  0.8604
   34CHL1  H22A 2499   6.176   5.907   8.065 -0.9043  2.2853  1.2337
   34CHL1  H22B 2500   6.301   5.840   7.955  2.4897  1.1047  0.2734
   34CHL1   C23 2501   6.380   5.949   8.109  0.3786 -0.5086 -0.2355
   34CHL1  H23A 2502   6.469   5.993   8.059 -0.6024  2.5458  0.4953
   34CHL1  H23B 2503   6.347   6.018   8.190 -2.8342  0.1225 -1.9116
   34CHL1   C24 2504   6.419   5.807   8.169  0.6281  0.8490 -0.1830
   34CHL1  H24A 2505   6.329   5.771   8.224  0.7934 -1.4775 -1.3166
   34CHL1  H24B 2506   6.435   5.730   8.090  0.4105 -1.3443  1.8058
   34CHL1   C25 2507   6.542   5.802   8.255  0.1401  0.7047 -0.5695
   34CHL1   H25 2508   6.515   5.863   8.344 -0.1597  0.8544 -0.7625
   34CHL1   C26 2509   6.553   5.664   8.303 -0.0564  0.0878  0.0410
   34CHL1  H26A 2510   6.584   5.661   8.410 -1.9343  1.2253  0.6541
   34CHL1  H26B 2511   6.459   5.608   8.292 -0.0218 -0.3219  1.6182
   34CHL1  H26C 2512   6.635   5.614   8.246 -0.4516  0.8113 -1.2062
   34CHL1   C27 2513   6.665   5.855   8.180 -0.1746  0.1292  0.6843
   34CHL1  H27A 2514   6.684   5.808   8.081  0.6988  1.0888  0.3826
   34CHL1  H27B 2515   6.657   5.963   8.159 -2.1628 -0.3245 -1.3461
   34CHL1  H27C 2516   6.750   5.838   8.249  0.6091 -2.1215 -0.7097
   35CHL1    C3 2517   4.210   1.800   7.173 -0.8220  0.5294 -0.3185
   35CHL1    H3 2518   4.188   1.898   7.126  0.4575  1.7821  1.5775
   35CHL1    O3 2519   4.222   1.705   7.070  0.2202 -0.0805  0.0508
   35CHL1   H3' 2520   4.280   1.736   7.001  4.1917 -0.2592  2.9510
   35CHL1    C4 2521   4.336   1.792   7.259  0.6816 -0.0361 -0.2163
   35CHL1   H4A 2522   4.340   1.690   7.302  0.8277  0.3375  0.6800
   35CHL1   H4B 2523   4.427   1.798   7.195  1.5669  0.3612  1.0532
   35CHL1    C5 2524   4.327   1.895   7.374 -0.2405 -0.0881 -0.8062
   35CHL1    C6 2525   4.421   1.995   7.393 -0.2189 -0.0793  0.3088
   35CHL1    H6 2526   4.500   1.995   7.316 -1.0858 -2.6532 -0.6931
   35CHL1    C7 2527   4.413   2.100   7.507 -0.7057 -0.8153  0.0582
   35CHL1   H7A 2528   4.514   2.111   7.551  0.1472 -0.2065 -1.9238
   35CHL1   H7B 2529   4.378   2.195   7.461 -0.4099 -0.2892  0.9030
   35CHL1    C8 2530   4.300   2.070   7.605  0.1792  0.8942 -0.4264
   35CHL1    H8 2531   4.340   1.995   7.676  0.8125  3.1224  1.7251
   35CHL1   C14 2532   4.270   2.193   7.691 -0.3811 -0.4567  0.9292
   35CHL1   H14 2533   4.233   2.270   7.620 -1.8199 -1.6885  0.3002
   35CHL1   C15 2534   4.388   2.276   7.755  0.1135  0.3767  0.4008
   35CHL1  H15A 2535   4.464   2.206   7.795 -1.5228 -1.9419 -0.3351
   35CHL1  H15B 2536   4.434   2.345   7.682  0.8448  1.3333  1.7187
   35CHL1   C16 2537   4.325   2.364   7.863 -0.2729 -0.1309 -0.4971
   35CHL1  H16A 2538   4.379   2.348   7.958 -2.3116 -0.0424  0.7259
   35CHL1  H16B 2539   4.334   2.465   7.817 -2.9162  0.7736  0.7599
   35CHL1   C17 2540   4.172   2.310   7.876 -0.5183  0.4919 -0.5741
   35CHL1   H17 2541   4.111   2.378   7.814  2.6444  3.6546 -0.5149
   35CHL1   C13 2542   4.173   2.176   7.801 -0.2555 -0.7153 -0.1026
   35CHL1   C18 2543   4.222   2.068   7.900 -0.1227 -0.0879 -0.5799
   35CHL1  H18A 2544   4.330   2.083   7.920  0.3980 -0.9196 -2.5378
   35CHL1  H18B 2545   4.156   2.060   7.989  1.3579 -0.0881  0.5621
   35CHL1  H18C 2546   4.208   1.968   7.854 -0.2124 -0.7686  0.8562
   35CHL1   C12 2547   4.043   2.141   7.726 -0.4338  0.4975 -0.3410
   35CHL1  H12A 2548   3.951   2.139   7.788 -1.3514 -0.0944 -1.6705
   35CHL1  H12B 2549   4.035   2.222   7.650 -0.3218  0.6689 -0.1725
   35CHL1   C11 2550   4.053   2.013   7.643 -0.6324  0.4074  0.3498
   35CHL1  H11A 2551   4.059   1.931   7.717  0.8726  1.6804  1.7067
   35CHL1  H11B 2552   3.956   2.000   7.590 -0.6828  1.7574  0.0716
   35CHL1    C9 2553   4.172   2.017   7.542  0.3902  0.2707  0.3851
   35CHL1    H9 2554   4.137   2.086   7.462 -0.2171 -0.8031 -0.3104
   35CHL1   C10 2555   4.197   1.890   7.456 -0.1849  0.1192 -0.1407
   35CHL1   C19 2556   4.208   1.770   7.555 -0.7255  0.9583 -0.1245
   35CHL1  H19A 2557   4.301   1.778   7.615 -1.9853 -2.0984  2.4901
   35CHL1  H19B 2558   4.119   1.765   7.622 -0.7515 -0.3276 -0.2378
   35CHL1  H19C 2559   4.219   1.674   7.501 -0.2010  1.0554 -0.1959
   35CHL1    C1 2560   4.071   1.869   7.365  0.4625  0.2293  0.4565
   35CHL1   H1A 2561   3.987   1.838   7.431 -0.2630  1.2389  0.0489
   35CHL1   H1B 2562   4.044   1.967   7.319  0.7858  0.5709  0.9791
   35CHL1    C2 2563   4.079   1.768   7.245  0.0512  0.7629  0.0336
   35CHL1   H2A 2564   3.992   1.774   7.177 -0.6735  1.5503  0.9925
   35CHL1   H2B 2565   4.091   1.663   7.277 -0.4008  0.5632 -0.4369
   35CHL1   C20 2566   4.120   2.333   8.014  0.2502 -0.3294  0.0661
   35CHL1   H20 2567   4.179   2.279   8.092  0.5179 -0.5354 -0.2778
   35CHL1   C21 2568   3.974   2.294   8.022  0.2386  0.9415 -0.1672
   35CHL1  H21A 2569   3.955   2.190   7.990  0.8010  1.5937 -2.8826
   35CHL1  H21B 2570   3.907   2.360   7.964 -2.3990 -0.5645  0.9837
   35CHL1  H21C 2571   3.947   2.298   8.130 -0.7244 -1.3953 -0.2783
   35CHL1   C22 2572   4.132   2.490   8.038 -0.2147  0.0571 -0.1413
   35CHL1  H22A 2573   4.237   2.520   8.061 -0.6865  1.9243 -0.2932
   35CHL1  H22B 2574   4.090   2.547   7.952 -1.6847 -1.9283 -0.8177
   35CHL1   C23 2575   4.057   2.545   8.163  0.7079 -0.1551  0.2860
   35CHL1  H23A 2576   3.946   2.546   8.164  0.6713 -0.0501 -1.1428
   35CHL1  H23B 2577   4.085   2.475   8.244  1.6110 -1.2913 -0.9546
   35CHL1   C24 2578   4.101   2.691   8.184 -0.6244  0.7525 -1.0170
   35CHL1  H24A 2579   4.198   2.692   8.238  0.5055 -0.4816 -2.9139
   35CHL1  H24B 2580   4.116   2.740   8.085 -0.4761 -0.2343 -1.4954
   35CHL1   C25 2581   4.003   2.776   8.269  0.4857 -0.3327  0.7289
   35CHL1   H25 2582   3.902   2.746   8.233 -0.2875  0.1787  2.3678
   35CHL1   C26 2583   4.029   2.753   8.419  0.2983  0.1772 -0.2690
   35CHL1  H26A 2584   4.015   2.647   8.449  1.2958  0.2468  0.4783
   35CHL1  H26B 2585   4.134   2.784   8.436 -0.3323  2.0949  0.3116
   35CHL1  H26C 2586   3.959   2.820   8.473  1.0925  1.8353 -1.2145
   35CHL1   C27 2587   4.025   2.927   8.234 -0.3503  0.7579  0.8508
   35CHL1  H27A 2588   3.965   2.992   8.302 -2.5706 -1.0270  0.7318
   35CHL1  H27B 2589   3.997   2.953   8.130 -1.1995  0.5579  1.0228
   35CHL1  H27C 2590   4.132   2.950   8.253 -0.3826  0.4718  1.4090
   36CHL1    C3 2591   4.361   0.340   7.068 -0.1672  0.4823  0.6012
   36CHL1    H3 2592   4.252   0.326   7.086 -0.5758  0.3386 -1.6848
   36CHL1    O3 2593   4.384   0.299   6.935  0.2744 -0.0917  0.5527
   36CHL1   H3' 2594   4.480   0.294   6.934  0.3746  1.3036 -0.6913
   36CHL1    C4 2595   4.412   0.486   7.088 -0.1820  0.1850  0.1517
   36CHL1   H4A 2596   4.521   0.475   7.069 -0.1547  0.1457  0.3253
   36CHL1   H4B 2597   4.358   0.540   7.007 -0.0175 -2.4185 -1.8008
   36CHL1    C5 2598   4.388   0.533   7.238 -0.3978  0.7078  0.7889
   36CHL1    C6 2599   4.317   0.643   7.265 -0.0329 -0.3994  0.1423
   36CHL1    H6 2600   4.291   0.718   7.189  2.2197  3.4090  2.7862
   36CHL1    C7 2601   4.292   0.687   7.406 -0.5822  0.4841  0.1298
   36CHL1   H7A 2602   4.298   0.797   7.413 -2.2045  0.6269 -0.2964
   36CHL1   H7B 2603   4.188   0.653   7.427 -0.8188  1.4715  0.5840
   36CHL1    C8 2604   4.379   0.620   7.512 -0.6998 -0.1457  0.9652
   36CHL1    H8 2605   4.482   0.659   7.501 -0.1389 -2.0215 -1.5222
   36CHL1   C14 2606   4.327   0.649   7.653  0.5685  0.3803  0.6202
   36CHL1   H14 2607   4.228   0.598   7.656  0.9392 -0.4819 -0.6872
   36CHL1   C15 2608   4.303   0.792   7.690  0.7183  0.2932  0.5166
   36CHL1  H15A 2609   4.389   0.857   7.662 -0.6168  2.5251  1.2694
   36CHL1  H15B 2610   4.202   0.825   7.659  1.0422 -0.4468 -1.4494
   36CHL1   C16 2611   4.295   0.780   7.839  0.7984  0.2275  0.0143
   36CHL1  H16A 2612   4.368   0.853   7.881  1.5380  0.9346 -2.3023
   36CHL1  H16B 2613   4.195   0.791   7.886  1.4663 -2.3541  2.2730
   36CHL1   C17 2614   4.332   0.638   7.887  0.3805  0.8221  0.2536
   36CHL1   H17 2615   4.235   0.585   7.895  1.2556 -0.9631 -0.5461
   36CHL1   C13 2616   4.401   0.583   7.759 -0.1648  0.3851 -0.0837
   36CHL1   C18 2617   4.550   0.631   7.768 -0.0330  0.8712  0.3433
   36CHL1  H18A 2618   4.599   0.565   7.842  0.1884  1.9755  1.1988
   36CHL1  H18B 2619   4.601   0.622   7.670  2.1053  1.8651  1.2984
   36CHL1  H18C 2620   4.560   0.736   7.804  2.9684  0.9761 -0.5335
   36CHL1   C12 2621   4.378   0.430   7.732  0.4111 -0.3913 -0.2201
   36CHL1  H12A 2622   4.427   0.379   7.818 -2.0893  1.7638  2.7149
   36CHL1  H12B 2623   4.273   0.395   7.736 -0.1628  0.9609 -2.1463
   36CHL1   C11 2624   4.431   0.387   7.597 -0.0616  0.4604 -0.6102
   36CHL1  H11A 2625   4.542   0.381   7.595  0.1816  0.3598  3.8010
   36CHL1  H11B 2626   4.402   0.279   7.594 -1.4225  0.8041 -0.3581
   36CHL1    C9 2627   4.378   0.466   7.480 -0.0309  0.0617 -0.2137
   36CHL1    H9 2628   4.270   0.439   7.474  0.5430 -2.3562 -0.9237
   36CHL1   C10 2629   4.441   0.426   7.339 -0.3764 -0.2259  0.2110
   36CHL1   C19 2630   4.600   0.436   7.343  0.4368  0.2484  0.4204
   36CHL1  H19A 2631   4.627   0.536   7.382  2.3176  0.4555 -1.2141
   36CHL1  H19B 2632   4.626   0.348   7.406 -0.5572  0.0476  0.5670
   36CHL1  H19C 2633   4.641   0.417   7.241  0.4436 -1.1585  0.6668
   36CHL1    C1 2634   4.406   0.284   7.302  0.1838  0.4058  0.2339
   36CHL1   H1A 2635   4.456   0.216   7.376  0.4972 -0.0811 -0.4152
   36CHL1   H1B 2636   4.299   0.269   7.326  0.4018 -0.6827  0.5950
   36CHL1    C2 2637   4.436   0.239   7.164 -0.1021 -0.0183  0.4122
   36CHL1   H2A 2638   4.386   0.141   7.145 -1.4984  1.1076 -2.1715
   36CHL1   H2B 2639   4.543   0.238   7.136 -0.5780  0.3484 -1.5120
   36CHL1   C20 2640   4.412   0.630   8.019 -0.5705 -0.3147  0.8323
   36CHL1   H20 2641   4.510   0.683   8.017  0.8603 -2.8243  1.3337
   36CHL1   C21 2642   4.432   0.475   8.052  0.5540  0.1917  0.2118
   36CHL1  H21A 2643   4.520   0.422   8.008  1.1202 -0.3541  1.9333
   36CHL1  H21B 2644   4.342   0.414   8.029  0.2120  0.1310  1.6301
   36CHL1  H21C 2645   4.442   0.462   8.162 -1.9174 -1.0848  0.3551
   36CHL1   C22 2646   4.334   0.698   8.139 -0.5734  0.8805 -0.0034
   36CHL1  H22A 2647   4.270   0.783   8.107 -1.1999  0.0854 -0.9211
   36CHL1  H22B 2648   4.275   0.613   8.179 -0.2831  0.2929 -0.7889
   36CHL1   C23 2649   4.428   0.756   8.247  0.4327 -0.1987  0.9867
   36CHL1  H23A 2650   4.506   0.686   8.283  0.4511 -0.0302  1.2789
   36CHL1  H23B 2651   4.482   0.844   8.205 -0.3583  0.1499  0.6695
   36CHL1   C24 2652   4.358   0.800   8.374 -0.1393  0.2598  0.2150
   36CHL1  H24A 2653   4.276   0.862   8.333 -1.2874 -0.5544  1.2210
   36CHL1  H24B 2654   4.328   0.716   8.440  0.0108 -1.0255 -1.2784
   36CHL1   C25 2655   4.439   0.886   8.462 -0.8509  0.4669 -0.8231
   36CHL1   H25 2656   4.484   0.970   8.404 -0.4859  0.0996 -1.0782
   36CHL1   C26 2657   4.354   0.953   8.561 -0.3124  0.5706  0.1614
   36CHL1  H26A 2658   4.408   1.031   8.619  1.5162 -0.1247 -0.5242
   36CHL1  H26B 2659   4.271   1.007   8.510 -1.8119 -0.4447  1.4209
   36CHL1  H26C 2660   4.310   0.891   8.642 -0.3654  0.4049  0.0053
   36CHL1   C27 2661   4.565   0.823   8.531 -0.1834  0.1607 -0.7379
   36CHL1  H27A 2662   4.533   0.762   8.619 -0.6121  0.6377 -0.5616
   36CHL1  H27B 2663   4.641   0.759   8.482 -1.1433 -0.7935 -1.0132
   36CHL1  H27C 2664   4.624   0.900   8.586  0.5557 -0.5801 -0.4577
   37CHL1    C3 2665   6.181   2.518   6.854 -0.8721 -0.0616  0.1380
   37CHL1    H3 2666   6.081   2.473   6.871 -0.7909 -1.0345 -1.6247
   37CHL1    O3 2667   6.212   2.489   6.717  0.1567  0.9369  0.3174
   37CHL1   H3' 2668   6.304   2.516   6.707 -0.2374  1.9180 -0.8955
   37CHL1    C4 2669   6.190   2.666   6.883  0.9268 -0.4308 -0.5007
   37CHL1   H4A 2670   6.296   2.686   6.856  1.2680  2.0249  2.1522
   37CHL1   H4B 2671   6.124   2.731   6.820  1.4401  0.0462 -0.5556
   37CHL1    C5 2672   6.176   2.701   7.034  0.7618  0.8639 -0.3416
   37CHL1    C6 2673   6.084   2.793   7.078 -0.7067 -0.2904 -0.1644
   37CHL1    H6 2674   6.020   2.853   7.011 -0.7724 -0.9117 -0.6737
   37CHL1    C7 2675   6.064   2.824   7.221  0.2766  0.3985 -0.8100
   37CHL1   H7A 2676   6.058   2.934   7.227  2.2055  0.6013 -1.8641
   37CHL1   H7B 2677   5.969   2.778   7.256 -0.6972  3.0048  0.2370
   37CHL1    C8 2678   6.177   2.773   7.313 -0.0687 -0.1768 -0.2224
   37CHL1    H8 2679   6.257   2.849   7.300 -0.6504  0.6841  1.0595
   37CHL1   C14 2680   6.137   2.779   7.461 -0.1018  0.3189  0.1197
   37CHL1   H14 2681   6.045   2.719   7.478 -1.9336  3.0846  0.6009
   37CHL1   C15 2682   6.095   2.909   7.516  0.7964 -0.3404 -0.4827
   37CHL1  H15A 2683   6.154   2.998   7.486  0.4887 -0.5470 -1.7470
   37CHL1  H15B 2684   5.995   2.944   7.483  0.9467 -0.5331 -1.1679
   37CHL1   C16 2685   6.088   2.881   7.673  0.3774  0.0975  0.4498
   37CHL1  H16A 2686   6.118   2.973   7.729 -1.0178  0.1698  1.1339
   37CHL1  H16B 2687   5.981   2.866   7.699  0.2755 -0.1272 -0.0859
   37CHL1   C17 2688   6.167   2.751   7.699  0.4415  0.1119  0.1825
   37CHL1   H17 2689   6.087   2.674   7.696  0.6122 -0.0456 -1.2427
   37CHL1   C13 2690   6.246   2.732   7.563  0.0159  0.4930  0.0243
   37CHL1   C18 2691   6.367   2.823   7.559 -0.7743 -0.1464  0.0771
   37CHL1  H18A 2692   6.449   2.760   7.599 -1.8633 -1.5860  0.1132
   37CHL1  H18B 2693   6.402   2.855   7.458 -0.0026  1.3867  0.8007
   37CHL1  H18C 2694   6.358   2.914   7.622 -2.8725 -1.1906  1.3935
   37CHL1   C12 2695   6.289   2.587   7.528  0.8779  0.4213 -0.0703
   37CHL1  H12A 2696   6.371   2.539   7.586 -0.4376 -2.3069 -0.3094
   37CHL1  H12B 2697   6.197   2.526   7.538  1.3356 -0.1640  0.6765
   37CHL1   C11 2698   6.333   2.581   7.383 -0.1962 -0.5722  0.3677
   37CHL1  H11A 2699   6.422   2.646   7.379  0.2161 -1.1336  0.3462
   37CHL1  H11B 2700   6.367   2.479   7.353 -1.8413 -0.5577 -1.8822
   37CHL1    C9 2701   6.218   2.630   7.278 -0.2542  0.2742  0.4917
   37CHL1    H9 2702   6.124   2.574   7.296  0.2959 -0.5891  0.7597
   37CHL1   C10 2703   6.261   2.613   7.127 -0.5345  0.2289  0.0579
   37CHL1   C19 2704   6.404   2.670   7.124  0.7253  0.0783 -0.1173
   37CHL1  H19A 2705   6.438   2.683   7.019 -1.1300 -0.5566 -0.8337
   37CHL1  H19B 2706   6.410   2.770   7.171  2.0131 -0.8580  1.8469
   37CHL1  H19C 2707   6.474   2.600   7.174 -1.4530 -0.5103  2.3699
   37CHL1    C1 2708   6.259   2.464   7.089 -0.2110 -0.3235 -0.1851
   37CHL1   H1A 2709   6.332   2.390   7.129 -0.7933 -1.7558 -1.6803
   37CHL1   H1B 2710   6.156   2.424   7.102 -1.6441  2.5772 -1.8353
   37CHL1    C2 2711   6.291   2.439   6.937  0.5943  0.5664  0.4191
   37CHL1   H2A 2712   6.269   2.330   6.927 -0.9896  0.8852  0.1085
   37CHL1   H2B 2713   6.392   2.472   6.906  0.5070 -0.3122 -0.9357
   37CHL1   C20 2714   6.236   2.736   7.835 -0.5069 -0.1603 -0.2965
   37CHL1   H20 2715   6.316   2.813   7.834 -0.9566  0.3275  0.6902
   37CHL1   C21 2716   6.300   2.595   7.848 -0.3219 -0.3312 -0.3343
   37CHL1  H21A 2717   6.219   2.521   7.828 -0.7908  0.0556  0.1189
   37CHL1  H21B 2718   6.332   2.579   7.953 -0.2431 -0.3083 -0.3549
   37CHL1  H21C 2719   6.389   2.589   7.781  1.0184 -1.2180  1.4295
   37CHL1   C22 2720   6.148   2.781   7.957 -0.0597  0.0758 -0.2833
   37CHL1  H22A 2721   6.101   2.879   7.930 -0.0126 -0.0101 -0.6840
   37CHL1  H22B 2722   6.060   2.715   7.974 -0.6293  0.8997  0.0756
   37CHL1   C23 2723   6.219   2.794   8.091 -0.6554 -0.8244  0.1731
   37CHL1  H23A 2724   6.278   2.707   8.124  1.6207  0.1770 -1.0267
   37CHL1  H23B 2725   6.303   2.865   8.076 -1.6120  0.4960  0.8135
   37CHL1   C24 2726   6.140   2.856   8.211 -0.7262 -0.1010  0.0893
   37CHL1  H24A 2727   6.085   2.949   8.183 -2.3456 -0.7005  1.1189
   37CHL1  H24B 2728   6.066   2.787   8.256 -1.1884  1.9705  2.7385
   37CHL1   C25 2729   6.240   2.903   8.328 -0.1224  0.1353 -0.7035
   37CHL1   H25 2730   6.338   2.925   8.280  0.0944 -1.6424 -1.1461
   37CHL1   C26 2731   6.192   3.029   8.395 -0.2152  0.2176  1.5577
   37CHL1  H26A 2732   6.161   3.108   8.324  0.7659  0.9681  1.9576
   37CHL1  H26B 2733   6.107   2.993   8.458  0.4997 -0.8639  1.9344
   37CHL1  H26C 2734   6.266   3.071   8.466  2.1244 -0.8476 -0.1529
   37CHL1   C27 2735   6.263   2.792   8.437 -0.5080 -0.2791  0.6463
   37CHL1  H27A 2736   6.333   2.713   8.400 -0.2534  0.2673 -0.0586
   37CHL1  H27B 2737   6.312   2.829   8.530  3.2236 -2.8580 -0.0303
   37CHL1  H27C 2738   6.162   2.753   8.463  0.1746 -1.9727  0.9292
   38CHL1    C3 2739   3.531   2.442   6.610  0.7809  0.1262 -0.4748
   38CHL1    H3 2740   3.465   2.530   6.602  0.5817 -0.1202 -1.7722
   38CHL1    O3 2741   3.563   2.372   6.492  0.4594  0.1998  0.0594
   38CHL1   H3' 2742   3.631   2.311   6.521 -0.0708 -0.4013  0.0541
   38CHL1    C4 2743   3.662   2.497   6.665 -0.2515 -0.4044 -0.4496
   38CHL1   H4A 2744   3.717   2.404   6.692  0.9917  0.1446 -1.0219
   38CHL1   H4B 2745   3.704   2.570   6.592  0.8523 -0.9474 -0.3789
   38CHL1    C5 2746   3.644   2.564   6.804 -0.3506 -0.6951  0.3964
   38CHL1    C6 2747   3.688   2.694   6.835 -0.3212  0.7844  0.2474
   38CHL1    H6 2748   3.745   2.745   6.756 -0.7628 -0.8129 -1.1485
   38CHL1    C7 2749   3.670   2.759   6.965 -0.0018 -0.1896  0.0053
   38CHL1   H7A 2750   3.755   2.825   6.992 -1.5283  1.1631  1.8584
   38CHL1   H7B 2751   3.589   2.833   6.946  0.2932  0.9297  2.6592
   38CHL1    C8 2752   3.640   2.658   7.074 -0.2366  0.9218  0.0044
   38CHL1    H8 2753   3.738   2.615   7.106 -0.4664  0.5957  0.2811
   38CHL1   C14 2754   3.587   2.734   7.191 -0.0814  0.5953 -0.7435
   38CHL1   H14 2755   3.493   2.780   7.154 -0.5305  0.5667  0.3110
   38CHL1   C15 2756   3.671   2.853   7.237  0.3200  0.0366 -0.5068
   38CHL1  H15A 2757   3.777   2.820   7.242  0.5951  0.9550 -0.1245
   38CHL1  H15B 2758   3.669   2.935   7.162 -0.6228  2.5935  2.1394
   38CHL1   C16 2759   3.627   2.877   7.387  0.0691  0.1532 -0.0804
   38CHL1  H16A 2760   3.711   2.847   7.453  1.4636  0.4850 -1.6468
   38CHL1  H16B 2761   3.590   2.981   7.398  1.4860  0.8564 -1.5184
   38CHL1   C17 2762   3.516   2.775   7.418 -0.4771  0.3153  0.7052
   38CHL1   H17 2763   3.425   2.830   7.385 -0.4559  0.2385  0.5212
   38CHL1   C13 2764   3.543   2.657   7.311  0.3964  0.1393 -0.3825
   38CHL1   C18 2765   3.645   2.558   7.387 -0.4581 -0.4330  0.4203
   38CHL1  H18A 2766   3.707   2.493   7.322 -1.1639  0.6965 -1.4462
   38CHL1  H18B 2767   3.712   2.615   7.455 -0.7775  1.7923 -1.0264
   38CHL1  H18C 2768   3.594   2.488   7.457 -0.3976 -1.9716 -1.0118
   38CHL1   C12 2769   3.417   2.575   7.270  0.3389 -0.5846 -0.0368
   38CHL1  H12A 2770   3.371   2.505   7.342  2.0782 -1.4977  0.2542
   38CHL1  H12B 2771   3.341   2.646   7.232  0.3853 -0.2287  0.5213
   38CHL1   C11 2772   3.462   2.487   7.152  0.5058  0.1158  0.5141
   38CHL1  H11A 2773   3.552   2.429   7.182  0.1478 -0.2212  0.9669
   38CHL1  H11B 2774   3.375   2.427   7.118 -1.0543  2.3625  0.2613
   38CHL1    C9 2775   3.526   2.565   7.031 -0.3968 -0.8145 -0.2015
   38CHL1    H9 2776   3.448   2.640   7.007  2.3732  2.1230 -0.7699
   38CHL1   C10 2777   3.561   2.479   6.911  0.6365  0.2097 -0.1617
   38CHL1   C19 2778   3.649   2.367   6.952  0.5149 -0.0444 -0.3267
   38CHL1  H19A 2779   3.746   2.399   6.997  0.5053  2.4505 -1.8982
   38CHL1  H19B 2780   3.596   2.299   7.023 -0.2285 -1.3047 -2.0160
   38CHL1  H19C 2781   3.684   2.293   6.877  1.9089 -1.2179  1.3858
   38CHL1    C1 2782   3.430   2.416   6.838 -0.2996 -0.3609 -0.2314
   38CHL1   H1A 2783   3.380   2.349   6.911  0.0992 -0.2373  0.1603
   38CHL1   H1B 2784   3.367   2.505   6.818  0.9653  0.3796 -1.1359
   38CHL1    C2 2785   3.455   2.351   6.704 -0.0909 -0.0742 -0.0752
   38CHL1   H2A 2786   3.363   2.313   6.654 -0.7024 -0.7712  1.5224
   38CHL1   H2B 2787   3.500   2.250   6.709 -0.0588 -0.0981 -0.7422
   38CHL1   C20 2788   3.498   2.740   7.569 -0.1968 -0.2286 -0.3861
   38CHL1   H20 2789   3.583   2.674   7.599 -1.3016 -0.8384  1.5712
   38CHL1   C21 2790   3.369   2.655   7.601  0.2988 -0.3562  0.1659
   38CHL1  H21A 2791   3.355   2.654   7.711  1.2069 -2.3953  0.3143
   38CHL1  H21B 2792   3.384   2.550   7.569  2.3746  0.3265 -1.3505
   38CHL1  H21C 2793   3.285   2.695   7.541  0.1933 -0.1032  0.4827
   38CHL1   C22 2794   3.494   2.872   7.659  0.0942  0.2893 -0.2054
   38CHL1  H22A 2795   3.573   2.941   7.625  0.7549  0.7488  2.1255
   38CHL1  H22B 2796   3.392   2.914   7.644 -0.3697 -1.3325 -2.1083
   38CHL1   C23 2797   3.513   2.834   7.808 -0.1533  0.4012 -0.3155
   38CHL1  H23A 2798   3.415   2.812   7.856 -0.2969  0.2924 -0.6545
   38CHL1  H23B 2799   3.589   2.755   7.821 -0.8141  0.1122  2.3441
   38CHL1   C24 2800   3.574   2.953   7.879 -0.1043 -0.0490  0.4152
   38CHL1  H24A 2801   3.674   2.983   7.841 -0.5375  0.5132 -0.3171
   38CHL1  H24B 2802   3.503   3.036   7.858  0.5874  0.6880  0.9563
   38CHL1   C25 2803   3.581   2.930   8.032  0.8333  0.1894 -0.0120
   38CHL1   H25 2804   3.479   2.899   8.062  1.7484 -2.2289  0.8119
   38CHL1   C26 2805   3.673   2.812   8.064 -0.4921  0.2692 -0.7613
   38CHL1  H26A 2806   3.776   2.824   8.024  0.8959 -0.0459  2.4435
   38CHL1  H26B 2807   3.668   2.795   8.174  0.9944  1.2298 -0.5173
   38CHL1  H26C 2808   3.637   2.712   8.033  2.2176 -1.4963  1.3008
   38CHL1   C27 2809   3.625   3.059   8.107 -0.2828 -0.2747  0.0869
   38CHL1  H27A 2810   3.712   3.100   8.051  0.0260 -0.6103  0.3124
   38CHL1  H27B 2811   3.546   3.136   8.116  0.6439  0.5910  1.0880
   38CHL1  H27C 2812   3.655   3.041   8.212  2.4165  1.6500 -0.2388
   39CHL1    C3 2813   4.802   3.029   6.866  0.1506 -0.2368 -0.3180
   39CHL1    H3 2814   4.815   3.128   6.817  0.8502 -1.3845 -2.5760
   39CHL1    O3 2815   4.834   2.925   6.770  0.0835  0.3460  0.3045
   39CHL1   H3' 2816   4.812   2.840   6.808  1.2525 -0.9772 -1.8326
   39CHL1    C4 2817   4.901   3.015   6.991 -0.0627 -0.3983  1.0396
   39CHL1   H4A 2818   4.905   2.904   7.005  1.1489 -0.7587 -1.6268
   39CHL1   H4B 2819   5.004   3.044   6.960 -0.4450  0.9916  1.0145
   39CHL1    C5 2820   4.864   3.077   7.125 -0.3695  0.3608  0.7056
   39CHL1    C6 2821   4.949   3.148   7.200 -0.1506  0.8538 -0.0265
   39CHL1    H6 2822   5.051   3.151   7.159 -0.6123  1.2248 -1.1985
   39CHL1    C7 2823   4.915   3.220   7.332 -0.5210 -0.1549  1.1019
   39CHL1   H7A 2824   4.977   3.184   7.417  0.2573  0.7648  0.9432
   39CHL1   H7B 2825   4.941   3.325   7.307 -1.7647  0.2961  1.6794
   39CHL1    C8 2826   4.769   3.202   7.379 -0.4265  0.4765  0.4301
   39CHL1    H8 2827   4.763   3.111   7.441  0.5887 -0.7318 -1.1607
   39CHL1   C14 2828   4.736   3.320   7.463  0.5126  0.2065 -0.4614
   39CHL1   H14 2829   4.737   3.406   7.393  0.1834 -0.7625 -1.6870
   39CHL1   C15 2830   4.825   3.359   7.584  0.1641  0.1559 -0.1620
   39CHL1  H15A 2831   4.878   3.274   7.632 -0.4802  0.9362  2.0175
   39CHL1  H15B 2832   4.911   3.420   7.549 -0.0468  0.7171  0.2939
   39CHL1   C16 2833   4.742   3.450   7.671 -0.3453  0.3303 -0.1719
   39CHL1  H16A 2834   4.738   3.399   7.769 -1.6193 -0.5931 -0.6776
   39CHL1  H16B 2835   4.781   3.554   7.677  1.7889 -0.4577  0.2903
   39CHL1   C17 2836   4.594   3.444   7.615 -0.8790  0.2169  0.5665
   39CHL1   H17 2837   4.588   3.525   7.540  0.2826 -0.7200 -0.5808
   39CHL1   C13 2838   4.595   3.317   7.525 -0.0615  0.4994 -0.1370
   39CHL1   C18 2839   4.577   3.192   7.618 -0.6187 -0.3600  0.0604
   39CHL1  H18A 2840   4.472   3.188   7.656 -1.2009 -3.4894 -1.5689
   39CHL1  H18B 2841   4.602   3.100   7.561  2.2176  0.0971  0.4433
   39CHL1  H18C 2842   4.635   3.203   7.712 -1.6270  0.7549  0.5747
   39CHL1   C12 2843   4.497   3.309   7.402  0.0999  0.0768 -0.1831
   39CHL1  H12A 2844   4.395   3.302   7.445  0.4197  0.3021  0.6390
   39CHL1  H12B 2845   4.516   3.403   7.345 -1.1317  1.0812  0.9673
   39CHL1   C11 2846   4.529   3.190   7.317  0.4628  0.0744  0.0557
   39CHL1  H11A 2847   4.510   3.099   7.377  0.3277  0.9645  1.3909
   39CHL1  H11B 2848   4.464   3.198   7.227 -0.0084 -0.7538  0.3187
   39CHL1    C9 2849   4.676   3.192   7.257  0.6442  0.1311  0.2655
   39CHL1    H9 2850   4.691   3.291   7.208  3.5672 -0.1979  0.3347
   39CHL1   C10 2851   4.719   3.077   7.157  0.0487 -0.8063  0.2381
   39CHL1   C19 2852   4.683   2.944   7.215  0.5084  0.5970 -0.0702
   39CHL1  H19A 2853   4.674   2.863   7.140 -2.7755  0.1943  0.5767
   39CHL1  H19B 2854   4.767   2.906   7.278 -0.3895 -0.4754  0.5196
   39CHL1  H19C 2855   4.597   2.940   7.285  1.0731  1.3620  0.6892
   39CHL1    C1 2856   4.634   3.109   7.031  0.3428 -0.0004  0.4500
   39CHL1   H1A 2857   4.526   3.100   7.054  0.4685 -0.2685  0.9514
   39CHL1   H1B 2858   4.650   3.215   7.002 -0.3629  0.0084  0.0758
   39CHL1    C2 2859   4.653   3.019   6.914  0.2019  0.2582 -0.3942
   39CHL1   H2A 2860   4.598   3.067   6.830  1.6657  1.6589 -0.6003
   39CHL1   H2B 2861   4.623   2.917   6.945  1.4534  0.6378  2.3058
   39CHL1   C20 2862   4.491   3.467   7.730  0.8829  0.2110 -0.4255
   39CHL1   H20 2863   4.519   3.401   7.815  2.1663  2.4738  1.0170
   39CHL1   C21 2864   4.347   3.430   7.692  0.3577 -0.4370  0.8704
   39CHL1  H21A 2865   4.325   3.327   7.657 -0.2025  0.5127 -1.7595
   39CHL1  H21B 2866   4.326   3.501   7.610  1.1441  0.9347  1.8236
   39CHL1  H21C 2867   4.277   3.440   7.778 -1.4539 -1.0286 -0.4672
   39CHL1   C22 2868   4.497   3.605   7.788 -0.4269 -0.0620  0.8167
   39CHL1  H22A 2869   4.604   3.621   7.811 -0.5840 -0.1476  1.6369
   39CHL1  H22B 2870   4.469   3.685   7.716 -0.3515  1.0693  1.9960
   39CHL1   C23 2871   4.427   3.633   7.917 -0.5942 -0.4089 -0.2044
   39CHL1  H23A 2872   4.319   3.615   7.901 -0.6378  0.6795 -1.2547
   39CHL1  H23B 2873   4.455   3.556   7.992 -0.8326 -0.6815 -0.3922
   39CHL1   C24 2874   4.443   3.769   7.978 -0.3256 -0.3966 -0.5130
   39CHL1  H24A 2875   4.544   3.811   7.995 -1.0907  1.1084  0.6978
   39CHL1  H24B 2876   4.404   3.837   7.899  0.4743 -0.3760 -0.8953
   39CHL1   C25 2877   4.356   3.797   8.106  0.1539 -0.0333  0.3082
   39CHL1   H25 2878   4.260   3.741   8.103 -0.3464  0.7381  1.5097
   39CHL1   C26 2879   4.436   3.758   8.232 -0.8008  0.0930  0.0160
   39CHL1  H26A 2880   4.378   3.760   8.327  1.5507 -2.0503  1.6185
   39CHL1  H26B 2881   4.481   3.656   8.227 -0.1988  0.3808 -0.6294
   39CHL1  H26C 2882   4.527   3.822   8.234  0.7426 -1.9262  3.4083
   39CHL1   C27 2883   4.319   3.948   8.113  0.2583 -0.0346  0.0136
   39CHL1  H27A 2884   4.416   4.001   8.100  0.5986 -0.8617 -0.9628
   39CHL1  H27B 2885   4.256   3.973   8.025 -0.5946  0.3589  0.7237
   39CHL1  H27C 2886   4.261   3.986   8.200 -1.3253  0.8477 -1.3860
   40CHL1    C3 2887   5.771   4.170   6.930  0.1351 -0.8679  0.1416
   40CHL1    H3 2888   5.852   4.244   6.913 -0.1264 -0.5459  0.2914
   40CHL1    O3 2889   5.764   4.092   6.815 -0.0610 -0.3970  0.0902
   40CHL1   H3' 2890   5.705   4.020   6.836 -0.3811 -0.1739 -0.0242
   40CHL1    C4 2891   5.791   4.085   7.051 -0.1226 -0.3689  0.8021
   40CHL1   H4A 2892   5.712   4.008   7.059  0.0690 -0.6647 -0.0733
   40CHL1   H4B 2893   5.888   4.035   7.028 -0.0886  0.2257 -0.3995
   40CHL1    C5 2894   5.802   4.168   7.177 -0.0454 -0.1652 -0.0325
   40CHL1    C6 2895   5.908   4.172   7.258  0.1229  0.3548 -0.8893
   40CHL1    H6 2896   6.002   4.125   7.224 -0.1540 -2.6802  2.0483
   40CHL1    C7 2897   5.906   4.235   7.394 -0.3921  0.3249  0.3375
   40CHL1   H7A 2898   5.935   4.155   7.466 -3.1429 -0.1330  1.0668
   40CHL1   H7B 2899   5.975   4.322   7.396 -0.5635  0.4528  1.3202
   40CHL1    C8 2900   5.767   4.284   7.435 -0.6506  0.6874 -0.7566
   40CHL1    H8 2901   5.708   4.195   7.466  0.9126 -0.3124 -0.5561
   40CHL1   C14 2902   5.785   4.383   7.550 -0.2058 -0.5208 -0.0286
   40CHL1   H14 2903   5.817   4.483   7.514 -1.7748 -0.1736 -0.5537
   40CHL1   C15 2904   5.856   4.340   7.678 -0.3516  0.7829  0.3697
   40CHL1  H15A 2905   5.831   4.234   7.695 -0.5457  0.8823  0.7059
   40CHL1  H15B 2906   5.967   4.347   7.677  0.1883 -4.1957 -0.0988
   40CHL1   C16 2907   5.787   4.424   7.791 -0.5266 -0.7424  0.2316
   40CHL1  H16A 2908   5.738   4.365   7.871  1.1821 -0.8248  1.2734
   40CHL1  H16B 2909   5.863   4.494   7.833  1.0778 -0.6513 -2.5427
   40CHL1   C17 2910   5.691   4.521   7.721  0.6315  0.4254  0.5372
   40CHL1   H17 2911   5.757   4.602   7.683  1.1742 -0.0682  0.4056
   40CHL1   C13 2912   5.644   4.436   7.599  0.2004  0.1143 -0.2189
   40CHL1   C18 2913   5.541   4.331   7.653  0.1136 -0.4468 -0.1361
   40CHL1  H18A 2914   5.564   4.286   7.751  1.7377 -0.0249 -0.3038
   40CHL1  H18B 2915   5.443   4.381   7.670 -0.0389 -0.6662 -0.3556
   40CHL1  H18C 2916   5.527   4.247   7.582 -0.8063 -1.5155  1.2656
   40CHL1   C12 2917   5.583   4.506   7.483 -0.9058 -0.7564 -0.3456
   40CHL1  H12A 2918   5.480   4.544   7.501  0.1287  2.6274 -0.8329
   40CHL1  H12B 2919   5.638   4.593   7.440 -0.2236 -1.7903 -1.6282
   40CHL1   C11 2920   5.552   4.407   7.372  0.3053  0.7727 -0.2186
   40CHL1  H11A 2921   5.474   4.333   7.397  0.5111  0.2737 -0.9977
   40CHL1  H11B 2922   5.494   4.468   7.299  0.5221  1.3772  0.1043
   40CHL1    C9 2923   5.686   4.342   7.322  0.4189  0.3595  0.3095
   40CHL1    H9 2924   5.737   4.431   7.278  0.7647 -1.2240 -2.7820
   40CHL1   C10 2925   5.671   4.244   7.205  0.1822  0.6511 -0.0257
   40CHL1   C19 2926   5.561   4.141   7.240 -0.1168 -0.5961  0.4187
   40CHL1  H19A 2927   5.471   4.202   7.259  2.1905  2.7282  1.7130
   40CHL1  H19B 2928   5.541   4.065   7.161 -1.1190 -0.4840  0.5565
   40CHL1  H19C 2929   5.598   4.087   7.330  1.4639  0.8791  0.7024
   40CHL1    C1 2930   5.635   4.325   7.079  0.2688  0.9692  0.2257
   40CHL1   H1A 2931   5.533   4.369   7.078 -0.4367 -0.5874  0.1494
   40CHL1   H1B 2932   5.716   4.400   7.072  1.9013 -0.5873  1.3763
   40CHL1    C2 2933   5.640   4.252   6.946 -0.1353  0.0276  0.1422
   40CHL1   H2A 2934   5.644   4.324   6.861  3.4083 -0.5686 -0.3160
   40CHL1   H2B 2935   5.548   4.192   6.929 -0.0637  0.4842 -2.2211
   40CHL1   C20 2936   5.590   4.589   7.819 -0.3340 -0.2931  0.8204
   40CHL1   H20 2937   5.500   4.524   7.832 -2.1056  1.0722 -3.0843
   40CHL1   C21 2938   5.534   4.723   7.751 -0.0273  0.6154 -0.4461
   40CHL1  H21A 2939   5.470   4.696   7.664  0.9316  1.6388 -1.5001
   40CHL1  H21B 2940   5.608   4.789   7.699 -0.9690  1.7547 -0.3817
   40CHL1  H21C 2941   5.469   4.772   7.826 -0.9741 -1.0360 -0.1325
   40CHL1   C22 2942   5.660   4.619   7.951  1.3072 -0.9236  0.1758
   40CHL1  H22A 2943   5.680   4.534   8.020 -0.5875 -0.0897  1.8985
   40CHL1  H22B 2944   5.764   4.653   7.932 -0.1468  1.2541 -6.3646
   40CHL1   C23 2945   5.578   4.719   8.029 -0.2389  0.1759  0.0067
   40CHL1  H23A 2946   5.600   4.821   7.993  0.4086  0.1632  0.3569
   40CHL1  H23B 2947   5.468   4.706   8.026 -0.0896 -1.6773  0.9253
   40CHL1   C24 2948   5.616   4.717   8.178  0.2826 -0.1451 -0.9622
   40CHL1  H24A 2949   5.554   4.635   8.219  0.1355 -0.9987 -2.8430
   40CHL1  H24B 2950   5.724   4.700   8.201 -0.0601 -2.1416 -0.6491
   40CHL1   C25 2951   5.588   4.838   8.267  0.3899 -0.2288  0.4284
   40CHL1   H25 2952   5.639   4.923   8.216  0.8506 -0.8061 -0.0847
   40CHL1   C26 2953   5.437   4.878   8.277  0.8093 -0.3740  0.3356
   40CHL1  H26A 2954   5.392   4.896   8.177  0.4832  0.6149  0.6514
   40CHL1  H26B 2955   5.390   4.795   8.335  0.0228 -2.0653 -2.5086
   40CHL1  H26C 2956   5.430   4.970   8.339 -0.0278  0.2227 -0.6111
   40CHL1   C27 2957   5.647   4.811   8.409  0.2547  0.4140  0.2656
   40CHL1  H27A 2958   5.598   4.719   8.447 -1.4939  1.1336 -0.1637
   40CHL1  H27B 2959   5.753   4.783   8.394  0.2740 -0.6675  2.2016
   40CHL1  H27C 2960   5.637   4.896   8.481 -0.1079  1.7054 -1.2447
   41CHL1    C3 2961   0.973   5.731   6.707 -0.6168  0.0620  0.2407
   41CHL1    H3 2962   1.013   5.831   6.737 -2.3065  0.5475  0.9933
   41CHL1    O3 2963   0.988   5.729   6.562  0.2927 -0.1515 -0.6459
   41CHL1   H3' 2964   1.073   5.766   6.540  1.0456 -1.9718 -0.9940
   41CHL1    C4 2965   1.053   5.615   6.775 -0.8119  0.5927  0.6119
   41CHL1   H4A 2966   1.008   5.524   6.728 -0.1887  1.3412 -1.5665
   41CHL1   H4B 2967   1.155   5.610   6.732 -0.5299  4.1631  0.5781
   41CHL1    C5 2968   1.031   5.630   6.929 -0.2344  0.1909  0.3255
   41CHL1    C6 2969   1.132   5.628   7.015  0.1986  0.2770 -0.0489
   41CHL1    H6 2970   1.237   5.609   6.987 -0.0058  0.2741 -0.8576
   41CHL1    C7 2971   1.124   5.642   7.157 -0.1635 -0.0525 -0.5457
   41CHL1   H7A 2972   1.156   5.542   7.192 -0.9310 -0.3595 -0.6946
   41CHL1   H7B 2973   1.189   5.724   7.193 -1.1041 -0.0625  1.2662
   41CHL1    C8 2974   0.986   5.653   7.218 -0.2091 -0.1577  0.0920
   41CHL1    H8 2975   0.950   5.548   7.231  0.5335 -0.2467  1.6270
   41CHL1   C14 2976   0.992   5.717   7.354 -0.0240 -0.1073  0.1386
   41CHL1   H14 2977   1.026   5.823   7.345 -2.7603  0.8690  0.2594
   41CHL1   C15 2978   1.090   5.657   7.454  0.5409 -0.5178 -0.1653
   41CHL1  H15A 2979   1.076   5.547   7.454  0.9499 -0.6298  2.6568
   41CHL1  H15B 2980   1.197   5.683   7.436  0.2269  2.8036  1.9449
   41CHL1   C16 2981   1.045   5.725   7.583  0.8577 -0.7502 -0.5063
   41CHL1  H16A 2982   1.043   5.645   7.660 -3.0202  0.5460  1.0311
   41CHL1  H16B 2983   1.107   5.807   7.626 -1.6860  2.0062 -1.7290
   41CHL1   C17 2984   0.895   5.780   7.556 -0.4557  0.0057 -0.2460
   41CHL1   H17 2985   0.897   5.890   7.541 -0.1678  0.2736  1.6222
   41CHL1   C13 2986   0.850   5.725   7.414 -0.3524 -0.2973 -0.3640
   41CHL1   C18 2987   0.783   5.581   7.425 -0.1237 -0.3226  0.6325
   41CHL1  H18A 2988   0.841   5.520   7.498 -2.5105 -2.4662  0.8767
   41CHL1  H18B 2989   0.686   5.581   7.481 -1.0642  0.4280 -0.9250
   41CHL1  H18C 2990   0.771   5.525   7.331 -1.5446  1.7553 -0.5290
   41CHL1   C12 2991   0.764   5.810   7.328  0.0177 -0.0516  1.3577
   41CHL1  H12A 2992   0.664   5.827   7.373 -1.9535  0.2101 -2.6199
   41CHL1  H12B 2993   0.801   5.915   7.323 -0.3632  0.0394 -0.2765
   41CHL1   C11 2994   0.762   5.752   7.186 -0.4370  0.1724  1.3560
   41CHL1  H11A 2995   0.711   5.654   7.189 -0.9125  0.3688  0.2300
   41CHL1  H11B 2996   0.712   5.831   7.126  2.1307  1.8779  1.2894
   41CHL1    C9 2997   0.898   5.729   7.121  0.2919 -0.6995 -0.9338
   41CHL1    H9 2998   0.929   5.835   7.108  0.9861 -0.3830  2.4080
   41CHL1   C10 2999   0.885   5.667   6.977 -0.2911 -0.3811 -0.3710
   41CHL1   C19 3000   0.813   5.528   6.986  0.3253 -0.2945  0.5482
   41CHL1  H19A 3001   0.795   5.476   6.889 -0.3985 -0.3280  0.6931
   41CHL1  H19B 3002   0.859   5.455   7.056 -0.2229 -0.0672  1.1653
   41CHL1  H19C 3003   0.707   5.539   7.017  0.2213  0.9752 -0.1827
   41CHL1    C1 3004   0.810   5.768   6.885  0.0127  0.1791 -0.3315
   41CHL1   H1A 3005   0.701   5.775   6.908 -0.2018  0.9627 -1.5222
   41CHL1   H1B 3006   0.844   5.873   6.895 -1.3747  0.7445 -1.2557
   41CHL1    C2 3007   0.826   5.732   6.735 -0.4397  0.6464  0.3155
   41CHL1   H2A 3008   0.780   5.810   6.670 -0.1736 -0.7946 -1.7099
   41CHL1   H2B 3009   0.760   5.647   6.709  0.4097  0.7841 -2.7164
   41CHL1   C20 3010   0.804   5.765   7.679 -0.3683 -0.0960 -0.2230
   41CHL1   H20 3011   0.813   5.662   7.719  1.8497  0.1039 -0.0612
   41CHL1   C21 3012   0.661   5.808   7.644 -0.0461  0.0345  0.6719
   41CHL1  H21A 3013   0.593   5.796   7.730 -0.5580 -1.3686  0.0894
   41CHL1  H21B 3014   0.622   5.754   7.555  1.2909  1.7483 -1.0485
   41CHL1  H21C 3015   0.656   5.914   7.610 -0.7429 -0.2414 -0.1288
   41CHL1   C22 3016   0.868   5.853   7.794  0.0204  0.1899 -0.6088
   41CHL1  H22A 3017   0.952   5.787   7.823 -0.7109 -0.6278 -0.3241
   41CHL1  H22B 3018   0.896   5.956   7.761  0.7024  0.9003  1.9408
   41CHL1   C23 3019   0.772   5.868   7.912  0.8577 -0.2951 -0.0041
   41CHL1  H23A 3020   0.681   5.927   7.890  1.4780  0.8240  0.3477
   41CHL1  H23B 3021   0.740   5.766   7.944 -0.0875 -0.0397 -0.0996
   41CHL1   C24 3022   0.837   5.930   8.036 -0.7836  0.4395  0.6918
   41CHL1  H24A 3023   0.843   6.038   8.009  0.8591  0.1655 -0.1567
   41CHL1  H24B 3024   0.774   5.916   8.126 -2.9755 -1.2111 -0.9721
   41CHL1   C25 3025   0.977   5.884   8.081  0.2840  0.3100 -0.2523
   41CHL1   H25 3026   1.045   5.880   7.993  1.3973 -2.3211  0.6454
   41CHL1   C26 3027   1.051   5.975   8.183  0.3099 -0.5196 -1.0540
   41CHL1  H26A 3028   0.993   5.977   8.278  0.9267  2.5446 -0.6436
   41CHL1  H26B 3029   1.158   5.948   8.200  0.7191  1.5335 -0.0280
   41CHL1  H26C 3030   1.060   6.081   8.151 -1.6592 -0.7875 -2.6750
   41CHL1   C27 3031   0.970   5.745   8.143  0.4385 -0.0328 -0.0675
   41CHL1  H27A 3032   0.933   5.669   8.071 -0.2395 -2.2984  2.4803
   41CHL1  H27B 3033   1.068   5.704   8.176  0.8588  0.7213 -0.3579
   41CHL1  H27C 3034   0.896   5.743   8.226  2.0989 -0.2877  1.4856
   42CHL1    C3 3035   1.567   3.620   6.786  0.3002  0.0025 -0.1041
   42CHL1    H3 3036   1.654   3.563   6.826 -1.2350 -0.2664  3.2041
   42CHL1    O3 3037   1.564   3.606   6.645  0.1319  0.0970 -0.2674
   42CHL1   H3' 3038   1.483   3.645   6.613  0.3932  0.9197  0.0370
   42CHL1    C4 3039   1.435   3.575   6.856  0.1753  0.0666 -0.1706
   42CHL1   H4A 3040   1.357   3.634   6.805 -1.1665 -0.7523  0.8407
   42CHL1   H4B 3041   1.417   3.470   6.824 -2.3042  0.3428  0.1304
   42CHL1    C5 3042   1.435   3.598   7.008 -0.4480 -1.6111  0.0021
   42CHL1    C6 3043   1.417   3.492   7.096  0.2393 -0.0322  0.1899
   42CHL1    H6 3044   1.383   3.396   7.056 -0.7936  0.1537  0.5703
   42CHL1    C7 3045   1.420   3.511   7.244 -0.3475 -0.6537  0.6693
   42CHL1   H7A 3046   1.324   3.467   7.280 -1.5419  0.4351 -1.0192
   42CHL1   H7B 3047   1.497   3.440   7.281  2.1052  0.9543 -1.0689
   42CHL1    C8 3048   1.420   3.660   7.291 -0.6579  0.4302  0.0072
   42CHL1    H8 3049   1.315   3.694   7.277 -1.2211 -1.5108 -0.7505
   42CHL1   C14 3050   1.432   3.674   7.445  0.0421  0.4533 -0.2357
   42CHL1   H14 3051   1.529   3.625   7.470  0.5247  0.9541 -1.0821
   42CHL1   C15 3052   1.325   3.591   7.532  0.0569  0.2650  0.3945
   42CHL1  H15A 3053   1.220   3.615   7.505 -0.4042  0.3882  2.1794
   42CHL1  H15B 3054   1.345   3.481   7.532 -0.5832  0.1405  0.7681
   42CHL1   C16 3055   1.355   3.649   7.675 -0.0326  0.2565  0.2105
   42CHL1  H16A 3056   1.264   3.680   7.731  0.1055 -0.8245  1.0500
   42CHL1  H16B 3057   1.409   3.575   7.737 -0.8545 -1.5688 -1.1632
   42CHL1   C17 3058   1.452   3.773   7.650 -0.4954 -0.4405  0.0058
   42CHL1   H17 3059   1.553   3.734   7.675 -0.7303 -1.8026 -1.0686
   42CHL1   C13 3060   1.445   3.813   7.500 -0.6551  1.4638  0.6626
   42CHL1   C18 3061   1.317   3.895   7.484  0.4717  0.3494 -1.0807
   42CHL1  H18A 3062   1.324   4.001   7.515 -1.6998  0.8090 -1.9525
   42CHL1  H18B 3063   1.280   3.882   7.379 -3.4194 -4.6309  0.4756
   42CHL1  H18C 3064   1.231   3.850   7.539  0.3242 -1.2102 -2.5036
   42CHL1   C12 3065   1.561   3.884   7.424  0.5432  0.9911 -0.1925
   42CHL1  H12A 3066   1.560   3.991   7.452 -1.2481  0.8767  0.3226
   42CHL1  H12B 3067   1.659   3.837   7.445  0.2316  0.8282  0.9948
   42CHL1   C11 3068   1.546   3.889   7.269 -0.3278 -0.2807 -0.1949
   42CHL1  H11A 3069   1.458   3.950   7.242 -1.3549 -2.0533 -1.0458
   42CHL1  H11B 3070   1.642   3.928   7.229 -0.3960  0.7266  0.5839
   42CHL1    C9 3071   1.519   3.747   7.208  0.4992 -0.1385 -0.5409
   42CHL1    H9 3072   1.609   3.682   7.214 -0.9980 -2.1976  1.9702
   42CHL1   C10 3073   1.473   3.745   7.057 -0.2568 -0.5596  0.4792
   42CHL1   C19 3074   1.345   3.832   7.036 -0.1718  0.1934 -0.2808
   42CHL1  H19A 3075   1.274   3.802   7.116 -1.1267 -2.4925 -1.9995
   42CHL1  H19B 3076   1.382   3.936   7.043  0.8827 -0.2551  1.3692
   42CHL1  H19C 3077   1.308   3.824   6.931 -0.3708 -1.5102 -0.1136
   42CHL1    C1 3078   1.587   3.804   6.967 -0.0449  0.4171  0.4547
   42CHL1   H1A 3079   1.591   3.915   6.971  1.2066  0.3702  1.0966
   42CHL1   H1B 3080   1.680   3.762   7.012  0.0214  0.8688  0.7442
   42CHL1    C2 3081   1.581   3.770   6.818 -0.0590 -0.4217 -0.1486
   42CHL1   H2A 3082   1.668   3.820   6.769 -1.9151  2.2313 -0.9379
   42CHL1   H2B 3083   1.499   3.823   6.766 -1.9551 -3.1908 -0.1459
   42CHL1   C20 3084   1.422   3.878   7.744  0.9455 -0.5481 -0.4841
   42CHL1   H20 3085   1.314   3.904   7.743  0.5152 -1.8630  2.4325
   42CHL1   C21 3086   1.520   3.999   7.725  0.1671  0.1106  0.2502
   42CHL1  H21A 3087   1.615   3.947   7.702 -0.7525 -0.7547 -1.9375
   42CHL1  H21B 3088   1.533   4.059   7.817  0.3277  0.1877  0.1781
   42CHL1  H21C 3089   1.491   4.062   7.638 -3.7723 -2.1178 -0.3248
   42CHL1   C22 3090   1.452   3.836   7.886  0.4849 -0.4858 -0.3000
   42CHL1  H22A 3091   1.442   3.725   7.897 -0.3149 -0.7072 -2.7057
   42CHL1  H22B 3092   1.560   3.835   7.911  0.3273  0.0618  0.4400
   42CHL1   C23 3093   1.362   3.903   7.997  0.2204  0.2426  0.4086
   42CHL1  H23A 3094   1.370   4.013   7.994  0.8364  0.2142  0.8300
   42CHL1  H23B 3095   1.256   3.872   7.984  0.0290  1.1016 -0.1606
   42CHL1   C24 3096   1.396   3.845   8.136 -0.7704 -0.2403  0.6701
   42CHL1  H24A 3097   1.407   3.737   8.113 -0.9512  0.1623 -1.5453
   42CHL1  H24B 3098   1.499   3.887   8.149  0.9504 -3.0192 -2.4417
   42CHL1   C25 3099   1.291   3.882   8.248 -0.1281  0.6448 -0.0367
   42CHL1   H25 3100   1.193   3.852   8.206 -0.4138  0.7958  0.5207
   42CHL1   C26 3101   1.319   3.782   8.364 -0.4272  1.0290 -0.0602
   42CHL1  H26A 3102   1.239   3.790   8.441 -0.1045  3.9975  0.0720
   42CHL1  H26B 3103   1.320   3.679   8.323  1.5341  1.4022 -1.0746
   42CHL1  H26C 3104   1.416   3.802   8.415  1.7468 -0.8342 -3.1307
   42CHL1   C27 3105   1.301   4.018   8.311  0.1475 -0.5238 -0.3409
   42CHL1  H27A 3106   1.237   4.022   8.401 -0.6414 -1.1811 -0.8651
   42CHL1  H27B 3107   1.262   4.098   8.244 -0.4790 -0.2145  0.3878
   42CHL1  H27C 3108   1.406   4.042   8.340 -0.1995 -0.5520  0.9916
   43CHL1    C3 3109   2.005   1.923   6.910  0.8019  0.8602  0.0315
   43CHL1    H3 3110   2.110   1.887   6.923 -0.4094 -2.3946  1.7838
   43CHL1    O3 3111   1.959   1.880   6.780  0.6857  0.1657  0.4371
   43CHL1   H3' 3112   1.865   1.899   6.791 -0.1512 -2.7919 -0.7119
   43CHL1    C4 3113   1.918   1.859   7.013  0.6125  0.0527  0.8018
   43CHL1   H4A 3114   1.809   1.870   6.992  0.4584 -1.3391  0.8122
   43CHL1   H4B 3115   1.945   1.753   6.996  3.5685  0.8735 -0.3271
   43CHL1    C5 3116   1.941   1.908   7.155  0.5004 -0.1862  0.2393
   43CHL1    C6 3117   1.967   1.828   7.254 -0.0229 -0.4211 -0.3088
   43CHL1    H6 3118   1.954   1.722   7.225  0.1874  0.1737 -2.7573
   43CHL1    C7 3119   1.971   1.869   7.398 -0.0726 -0.1544  0.2062
   43CHL1   H7A 3120   1.898   1.807   7.453 -0.7103 -0.7216 -1.2287
   43CHL1   H7B 3121   2.070   1.862   7.449 -0.0288 -1.9416 -0.0889
   43CHL1    C8 3122   1.924   2.013   7.423  0.2084  0.7867 -0.2965
   43CHL1    H8 3123   1.814   2.003   7.413  0.2848 -0.7254  0.0799
   43CHL1   C14 3124   1.967   2.056   7.560 -0.4317 -0.7367 -0.1377
   43CHL1   H14 3125   2.078   2.057   7.559 -0.3102  2.1649  1.7273
   43CHL1   C15 3126   1.931   1.970   7.676  0.2030  0.2457 -0.0537
   43CHL1  H15A 3127   1.822   1.951   7.665 -0.3979  2.7940  0.9470
   43CHL1  H15B 3128   1.983   1.872   7.681  1.2958  0.8386  0.4596
   43CHL1   C16 3129   1.968   2.054   7.791  0.5767 -0.6480 -0.1324
   43CHL1  H16A 3130   1.893   2.045   7.873 -1.2583  3.6015 -1.1188
   43CHL1  H16B 3131   2.072   2.045   7.829  0.3726 -0.0637  0.5864
   43CHL1   C17 3132   1.970   2.202   7.747 -0.7843 -0.4183 -0.7353
   43CHL1   H17 3133   2.073   2.242   7.757 -2.0367  2.5997  1.2717
   43CHL1   C13 3134   1.927   2.197   7.598  0.0371 -0.2546  0.8907
   43CHL1   C18 3135   1.771   2.209   7.587 -0.8413 -0.3742  0.0745
   43CHL1  H18A 3136   1.721   2.135   7.654 -1.9102  1.0122  0.8750
   43CHL1  H18B 3137   1.734   2.310   7.615  0.5237 -0.2229  1.4441
   43CHL1  H18C 3138   1.732   2.190   7.485 -0.7559 -2.8714  0.4426
   43CHL1   C12 3139   1.987   2.300   7.497 -0.7554  0.1975 -0.2931
   43CHL1  H12A 3140   1.940   2.399   7.510 -2.5563 -0.5178 -1.0750
   43CHL1  H12B 3141   2.097   2.304   7.515 -0.8993  2.1313  0.3791
   43CHL1   C11 3142   1.974   2.261   7.351 -0.2134  0.1260  0.3342
   43CHL1  H11A 3143   1.881   2.307   7.311 -0.9014 -0.1719  1.5181
   43CHL1  H11B 3144   2.051   2.319   7.296  0.0923 -0.3838  0.2188
   43CHL1    C9 3145   1.988   2.106   7.316 -0.3266  0.5212  0.1349
   43CHL1    H9 3146   2.097   2.084   7.321 -0.0293  1.3036 -1.8945
   43CHL1   C10 3147   1.936   2.061   7.169 -0.6760 -0.0166 -0.6591
   43CHL1   C19 3148   1.783   2.100   7.151  0.1235  0.2113 -0.6836
   43CHL1  H19A 3149   1.769   2.080   7.043 -0.3653 -0.4511 -0.5011
   43CHL1  H19B 3150   1.711   2.040   7.212 -0.1493  1.5271  0.3417
   43CHL1  H19C 3151   1.772   2.209   7.170  0.7756  0.2154 -0.2760
   43CHL1    C1 3152   2.021   2.133   7.058 -0.5266 -0.1977  0.7580
   43CHL1   H1A 3153   2.003   2.243   7.063 -1.5326 -0.1806 -1.7732
   43CHL1   H1B 3154   2.125   2.113   7.089  0.1407  2.4722  0.5143
   43CHL1    C2 3155   1.999   2.077   6.918  0.3550  0.7028  0.4489
   43CHL1   H2A 3156   2.079   2.116   6.852  0.0916 -0.4337 -0.5803
   43CHL1   H2B 3157   1.910   2.124   6.870  1.3490  0.7565 -1.4525
   43CHL1   C20 3158   1.896   2.295   7.838 -1.1659 -0.2647 -0.3872
   43CHL1   H20 3159   1.789   2.267   7.846 -1.1172 -0.8578 -1.5246
   43CHL1   C21 3160   1.910   2.441   7.779 -0.1951 -0.0350 -0.7765
   43CHL1  H21A 3161   1.865   2.517   7.846  1.5312 -1.3078  1.9969
   43CHL1  H21B 3162   1.860   2.434   7.680 -0.1758 -1.4783 -0.6973
   43CHL1  H21C 3163   2.015   2.476   7.768 -0.7813  2.2554  0.2069
   43CHL1   C22 3164   1.956   2.293   7.989 -0.1748 -0.4328 -0.0873
   43CHL1  H22A 3165   1.934   2.195   8.037 -1.8267 -0.4802 -0.8600
   43CHL1  H22B 3166   2.066   2.303   7.976 -0.3029  0.1889 -0.7319
   43CHL1   C23 3167   1.912   2.402   8.089  0.0714  0.3463  0.3418
   43CHL1  H23A 3168   1.951   2.499   8.052 -0.8787  0.1991 -1.1512
   43CHL1  H23B 3169   1.804   2.420   8.073 -0.2316  0.0106  1.9143
   43CHL1   C24 3170   1.956   2.369   8.230  0.3523  0.2924 -0.4077
   43CHL1  H24A 3171   1.932   2.263   8.254  0.8196  0.1410 -0.5933
   43CHL1  H24B 3172   2.067   2.359   8.222  0.1463 -2.4615 -0.7380
   43CHL1   C25 3173   1.918   2.467   8.345 -0.1470  0.3564 -0.6495
   43CHL1   H25 3174   1.944   2.567   8.306  0.1485 -0.0200 -1.4362
   43CHL1   C26 3175   1.769   2.450   8.363 -0.3337  0.4312 -0.7965
   43CHL1  H26A 3176   1.706   2.475   8.275 -0.8693  0.3524 -0.4407
   43CHL1  H26B 3177   1.742   2.345   8.383  1.5182  0.1476  0.4217
   43CHL1  H26C 3178   1.736   2.506   8.453  1.1499 -1.3526  0.9281
   43CHL1   C27 3179   1.988   2.431   8.474  0.0072 -0.4505 -0.7136
   43CHL1  H27A 3180   1.955   2.504   8.551 -1.6714 -0.8016 -1.0801
   43CHL1  H27B 3181   1.961   2.336   8.524  0.2369  0.7147  1.7875
   43CHL1  H27C 3182   2.098   2.423   8.461  0.4111 -1.1028  2.3900
   44CHL1    C3 3183   6.323   0.382   6.656 -0.2561  0.5427  0.5078
   44CHL1    H3 3184   6.353   0.488   6.650  1.3449  0.0743 -0.2386
   44CHL1    O3 3185   6.300   0.329   6.525 -0.3062  0.3836 -0.4157
   44CHL1   H3' 3186   6.242   0.397   6.493  0.8350  0.8202 -1.6447
   44CHL1    C4 3187   6.436   0.309   6.725  0.1340 -0.1269 -0.6986
   44CHL1   H4A 3188   6.417   0.200   6.726  0.7277 -0.2540 -1.4679
   44CHL1   H4B 3189   6.523   0.327   6.657  1.0627  0.6202  0.6400
   44CHL1    C5 3190   6.460   0.352   6.865  0.6498 -0.5377 -0.0154
   44CHL1    C6 3191   6.579   0.403   6.905 -0.1734  1.0444 -0.9191
   44CHL1    H6 3192   6.664   0.409   6.835  1.0579 -2.2116  0.0844
   44CHL1    C7 3193   6.613   0.445   7.047 -0.8722  0.0102 -0.1855
   44CHL1   H7A 3194   6.708   0.405   7.090 -0.8175  1.7298  1.4477
   44CHL1   H7B 3195   6.634   0.554   7.051  1.9763 -0.4814  0.5404
   44CHL1    C8 3196   6.505   0.409   7.147 -0.5281  0.3085 -0.0447
   44CHL1    H8 3197   6.513   0.299   7.161 -0.5871  0.3813  0.6205
   44CHL1   C14 3198   6.520   0.489   7.281  0.0555  0.0671  0.4583
   44CHL1   H14 3199   6.503   0.597   7.259  2.1667  0.4658  0.5171
   44CHL1   C15 3200   6.661   0.479   7.341  0.6552  0.1547 -0.3195
   44CHL1  H15A 3201   6.701   0.375   7.336 -0.2298 -0.2712  0.8681
   44CHL1  H15B 3202   6.736   0.551   7.305  0.9982  0.4950  1.0276
   44CHL1   C16 3203   6.629   0.522   7.483 -0.0707 -0.2066  0.4539
   44CHL1  H16A 3204   6.680   0.465   7.564  2.8995  0.8632 -0.4966
   44CHL1  H16B 3205   6.658   0.628   7.500  3.5977 -0.7132 -1.5884
   44CHL1   C17 3206   6.474   0.515   7.505  0.4657  0.3292 -0.5113
   44CHL1   H17 3207   6.436   0.619   7.501  2.0592  1.2592  3.7307
   44CHL1   C13 3208   6.426   0.438   7.388  0.0940  0.8267 -0.0829
   44CHL1   C18 3209   6.438   0.279   7.409 -0.4881 -0.1223 -0.0402
   44CHL1  H18A 3210   6.538   0.256   7.451 -0.9022  1.3622  1.9225
   44CHL1  H18B 3211   6.364   0.244   7.485  1.0787 -0.6316  1.2943
   44CHL1  H18C 3212   6.414   0.224   7.316 -1.1139 -2.6182  1.4957
   44CHL1   C12 3213   6.287   0.475   7.323 -0.5348  0.0431 -0.1720
   44CHL1  H12A 3214   6.205   0.448   7.394  0.9518  0.1404  1.6613
   44CHL1  H12B 3215   6.290   0.582   7.296  2.5521  0.1317  0.2131
   44CHL1   C11 3216   6.251   0.402   7.200 -0.3170  0.0293  0.3369
   44CHL1  H11A 3217   6.238   0.293   7.219 -0.5284 -0.4456 -2.2070
   44CHL1  H11B 3218   6.156   0.429   7.150 -0.5102  0.1343  0.7572
   44CHL1    C9 3219   6.361   0.426   7.092  0.4256 -0.2670  0.0460
   44CHL1    H9 3220   6.348   0.531   7.058  0.5388 -0.4381 -0.5402
   44CHL1   C10 3221   6.337   0.348   6.959 -0.1380  0.3364  0.6690
   44CHL1   C19 3222   6.314   0.196   6.990  0.0152  0.1829  0.3350
   44CHL1  H19A 3223   6.313   0.138   6.895 -0.8370 -0.5201  0.7654
   44CHL1  H19B 3224   6.405   0.156   7.040  0.5331 -0.4042 -1.0195
   44CHL1  H19C 3225   6.219   0.172   7.042  0.6352  0.6489  1.7174
   44CHL1    C1 3226   6.214   0.404   6.885 -0.1537 -0.0186  0.6185
   44CHL1   H1A 3227   6.123   0.393   6.948 -0.6702 -0.3900 -0.1736
   44CHL1   H1B 3228   6.234   0.513   6.882 -1.8010  0.3886  2.5726
   44CHL1    C2 3229   6.194   0.369   6.736 -0.1371  0.2162  0.1492
   44CHL1   H2A 3230   6.112   0.435   6.702  0.0904  1.7531  2.3402
   44CHL1   H2B 3231   6.151   0.268   6.721  0.2919  0.0316  0.1373
   44CHL1   C20 3232   6.453   0.476   7.645 -0.3132  0.0489  0.2291
   44CHL1   H20 3233   6.504   0.379   7.660  1.3657  0.7588 -0.4690
   44CHL1   C21 3234   6.302   0.467   7.669  0.6193 -0.1147  0.1537
   44CHL1  H21A 3235   6.279   0.425   7.769 -1.0457  1.0870  0.3155
   44CHL1  H21B 3236   6.252   0.395   7.601 -0.3676  1.0747 -0.4221
   44CHL1  H21C 3237   6.248   0.564   7.660 -0.6794 -0.6051  2.0045
   44CHL1   C22 3238   6.517   0.572   7.746 -0.5663 -0.2042 -0.2017
   44CHL1  H22A 3239   6.488   0.520   7.840  0.8448 -0.3940  0.1443
   44CHL1  H22B 3240   6.626   0.557   7.740  0.0474  2.2530  2.5420
   44CHL1   C23 3241   6.482   0.719   7.734 -0.1943 -0.6775 -0.0204
   44CHL1  H23A 3242   6.501   0.750   7.629  0.5741  0.7894  0.5218
   44CHL1  H23B 3243   6.376   0.741   7.761  0.2648  2.1145 -0.1942
   44CHL1   C24 3244   6.566   0.800   7.829 -0.1131 -0.1189 -0.2472
   44CHL1  H24A 3245   6.584   0.747   7.925  1.8570  1.7195  0.4936
   44CHL1  H24B 3246   6.658   0.829   7.772 -1.3351  1.0805 -1.6981
   44CHL1   C25 3247   6.501   0.938   7.865 -0.5869  0.2118  0.1536
   44CHL1   H25 3248   6.400   0.911   7.902 -0.2559  0.0903  1.0058
   44CHL1   C26 3249   6.575   1.019   7.973 -0.0096  0.2887 -0.4055
   44CHL1  H26A 3250   6.653   1.079   7.923 -0.1755  2.0251  1.2790
   44CHL1  H26B 3251   6.510   1.096   8.021  0.0866  0.2538 -0.2157
   44CHL1  H26C 3252   6.609   0.945   8.049 -2.2953 -2.4829 -1.8796
   44CHL1   C27 3253   6.492   1.028   7.742  0.1913  0.0812 -0.0687
   44CHL1  H27A 3254   6.588   1.017   7.688  1.2662 -2.0238  2.0841
   44CHL1  H27B 3255   6.398   1.010   7.686 -0.9278  2.1516  1.0258
   44CHL1  H27C 3256   6.482   1.129   7.787 -1.3479 -0.5690  1.1395
   45CHL1    C3 3257   2.987   6.359   6.787  0.3472 -0.1907  0.5000
   45CHL1    H3 3258   2.907   6.284   6.774 -0.9168  1.3081 -0.7996
   45CHL1    O3 3259   3.024   6.410   6.662 -0.0230 -0.1039 -0.2665
   45CHL1   H3' 3260   3.094   6.474   6.676  1.7508 -2.3327  1.9261
   45CHL1    C4 3261   2.932   6.474   6.871 -0.4351  0.1021 -0.7741
   45CHL1   H4A 3262   2.992   6.568   6.866  0.6483 -0.6148 -1.8983
   45CHL1   H4B 3263   2.838   6.497   6.818 -1.4449  0.8487  1.2446
   45CHL1    C5 3264   2.897   6.431   7.006  0.6829 -0.1805 -0.9453
   45CHL1    C6 3265   2.772   6.430   7.060 -0.2620  0.1984 -0.4148
   45CHL1    H6 3266   2.681   6.459   7.006 -1.3201  2.0138  2.1567
   45CHL1    C7 3267   2.748   6.393   7.205  0.5205  0.5119 -0.3865
   45CHL1   H7A 3268   2.666   6.455   7.248 -1.5539 -2.5343  0.4020
   45CHL1   H7B 3269   2.701   6.293   7.194 -0.2438  0.6906  1.0381
   45CHL1    C8 3270   2.878   6.381   7.299 -0.0795 -0.3103  0.4236
   45CHL1    H8 3271   2.907   6.488   7.305  0.4045 -0.4620  0.9141
   45CHL1   C14 3272   2.852   6.329   7.439 -0.3778 -0.6335 -0.1361
   45CHL1   H14 3273   2.813   6.226   7.421 -1.3424 -0.0001 -1.7700
   45CHL1   C15 3274   2.735   6.375   7.511  0.8450  0.4657  0.0542
   45CHL1  H15A 3275   2.730   6.485   7.517 -2.6249  0.3654  1.1906
   45CHL1  H15B 3276   2.637   6.338   7.474 -0.4686  2.7936  1.0069
   45CHL1   C16 3277   2.753   6.317   7.652 -0.5019  0.2152 -0.5786
   45CHL1  H16A 3278   2.744   6.401   7.724 -2.6079 -0.6181  0.1962
   45CHL1  H16B 3279   2.673   6.246   7.682 -2.4464  2.6777  0.3773
   45CHL1   C17 3280   2.895   6.249   7.656 -0.1637 -0.3421 -0.4484
   45CHL1   H17 3281   2.871   6.144   7.630 -0.2000 -0.6095  0.6042
   45CHL1   C13 3282   2.976   6.314   7.531  0.6285  0.1766  0.5431
   45CHL1   C18 3283   3.039   6.453   7.568 -0.2179  0.3159  0.0082
   45CHL1  H18A 3284   3.088   6.509   7.485 -1.2627  2.3198  0.6908
   45CHL1  H18B 3285   2.958   6.521   7.603  0.3519  2.7093 -2.8980
   45CHL1  H18C 3286   3.113   6.431   7.648  0.0130  0.1583 -0.2462
   45CHL1   C12 3287   3.081   6.224   7.454 -0.0227 -0.1746  0.1020
   45CHL1  H12A 3288   3.171   6.193   7.511 -1.8159  1.6983  4.4072
   45CHL1  H12B 3289   3.032   6.128   7.428 -1.2640  0.5601 -0.3901
   45CHL1   C11 3290   3.115   6.297   7.328  0.2893  0.2714  1.1218
   45CHL1  H11A 3291   3.167   6.395   7.335 -0.2318  1.1324 -3.5414
   45CHL1  H11B 3292   3.181   6.227   7.273  0.7897  0.1288  1.8861
   45CHL1    C9 3293   2.993   6.312   7.227  0.5561  0.7754 -0.2364
   45CHL1    H9 3294   2.961   6.208   7.207 -0.5871  0.6296  1.9767
   45CHL1   C10 3295   3.019   6.366   7.081 -0.1022 -0.5713  0.1196
   45CHL1   C19 3296   3.129   6.471   7.096 -0.2488  0.0687 -0.0263
   45CHL1  H19A 3297   3.154   6.512   6.995 -1.2679  2.5790  0.6489
   45CHL1  H19B 3298   3.091   6.554   7.159 -0.5049  0.1777 -0.3158
   45CHL1  H19C 3299   3.218   6.424   7.141 -0.7749 -1.2579 -0.3274
   45CHL1    C1 3300   3.093   6.255   6.991  0.5408  0.0210  0.3002
   45CHL1   H1A 3301   3.190   6.224   7.035  0.5852  1.2692  1.1158
   45CHL1   H1B 3302   3.028   6.165   7.003  1.0899 -0.2048  1.7988
   45CHL1    C2 3303   3.111   6.302   6.848 -0.1048 -0.0480  0.1160
   45CHL1   H2A 3304   3.152   6.218   6.788 -0.1818  1.0712 -1.5747
   45CHL1   H2B 3305   3.183   6.386   6.837 -0.5376  0.4671  1.1138
   45CHL1   C20 3306   2.950   6.241   7.801 -0.1362  0.3134 -1.3312
   45CHL1   H20 3307   2.978   6.344   7.829 -2.2106  0.3650  0.8802
   45CHL1   C21 3308   3.085   6.162   7.803 -0.5671  0.2247  0.2235
   45CHL1  H21A 3309   3.069   6.058   7.766  2.0534 -0.6302  1.2912
   45CHL1  H21B 3310   3.124   6.158   7.907 -2.3414 -2.6586  0.8939
   45CHL1  H21C 3311   3.156   6.221   7.743  1.5761  0.5544  2.8949
   45CHL1   C22 3312   2.853   6.189   7.908  0.0331  0.0670 -0.5016
   45CHL1  H22A 3313   2.781   6.269   7.938  1.5797 -0.0451  4.2646
   45CHL1  H22B 3314   2.805   6.092   7.884 -2.3079 -0.1536  3.9222
   45CHL1   C23 3315   2.925   6.166   8.048  0.2965  0.4064  0.4507
   45CHL1  H23A 3316   2.996   6.081   8.038  0.2913  0.2837  1.3869
   45CHL1  H23B 3317   2.985   6.256   8.072  0.7306  0.1941  0.1855
   45CHL1   C24 3318   2.828   6.126   8.149 -0.3787 -0.5652  0.4208
   45CHL1  H24A 3319   2.753   6.208   8.142 -0.4883 -0.6337  0.8089
   45CHL1  H24B 3320   2.780   6.029   8.122  2.6274 -2.1749  0.4611
   45CHL1   C25 3321   2.886   6.124   8.288 -0.2432 -0.1575 -0.0949
   45CHL1   H25 3322   2.928   6.226   8.305  0.0069 -0.2097 -0.4014
   45CHL1   C26 3323   2.770   6.100   8.392  0.2603 -0.2786  0.8114
   45CHL1  H26A 3324   2.783   6.108   8.502 -3.4591  0.5794  1.3073
   45CHL1  H26B 3325   2.686   6.171   8.377  0.4418  0.2449  2.1413
   45CHL1  H26C 3326   2.740   5.994   8.375  1.3128 -0.6384  1.0886
   45CHL1   C27 3327   3.009   6.032   8.307 -0.6054 -0.0459 -0.8153
   45CHL1  H27A 3328   3.107   6.073   8.275 -0.0035 -2.4440 -2.2905
   45CHL1  H27B 3329   3.021   5.990   8.409  1.8364  0.0020 -1.0164
   45CHL1  H27C 3330   3.007   5.941   8.244 -0.8933 -0.2392 -0.5319
   46CHL1    C3 3331   1.087   0.987   6.962 -0.0156  0.0199  0.3886
   46CHL1    H3 3332   1.014   1.024   7.038 -1.1502  3.1745 -2.0272
   46CHL1    O3 3333   1.077   1.064   6.843  0.1526  0.6835  0.0778
   46CHL1   H3' 3334   1.126   1.007   6.784 -0.2261 -1.5217  1.7617
   46CHL1    C4 3335   1.235   0.984   7.006 -0.2156 -0.4137 -0.5176
   46CHL1   H4A 3336   1.299   0.960   6.918 -0.0268 -1.0695 -0.2081
   46CHL1   H4B 3337   1.252   1.092   7.026 -2.3010  0.1731 -1.6468
   46CHL1    C5 3338   1.273   0.895   7.127 -0.1497 -0.1946  0.8675
   46CHL1    C6 3339   1.330   0.941   7.239  0.1646  0.2962 -0.3083
   46CHL1    H6 3340   1.361   1.047   7.242 -0.4923  0.4760  0.3572
   46CHL1    C7 3341   1.375   0.860   7.355 -0.7780 -0.5603  0.1091
   46CHL1   H7A 3342   1.485   0.879   7.358 -0.5646 -1.4682 -1.1615
   46CHL1   H7B 3343   1.322   0.898   7.444  0.2031  0.4019  0.3039
   46CHL1    C8 3344   1.366   0.707   7.329 -0.0651 -0.7219 -0.4887
   46CHL1    H8 3345   1.463   0.676   7.284  1.3612 -0.9429  2.5130
   46CHL1   C14 3346   1.350   0.638   7.461 -0.5171 -0.6082  0.2535
   46CHL1   H14 3347   1.257   0.673   7.511  0.6146  1.3290  1.0798
   46CHL1   C15 3348   1.460   0.671   7.565  0.3136  0.3457 -0.0844
   46CHL1  H15A 3349   1.560   0.655   7.518  0.3416  1.8601 -0.5993
   46CHL1  H15B 3350   1.468   0.774   7.605  0.5497 -0.9286  3.5047
   46CHL1   C16 3351   1.436   0.561   7.671 -1.2478 -0.0319 -0.4694
   46CHL1  H16A 3352   1.538   0.521   7.688 -1.0194  0.2570 -1.1110
   46CHL1  H16B 3353   1.397   0.607   7.764  1.4430  1.7206 -0.1092
   46CHL1   C17 3354   1.329   0.465   7.616 -0.6269  0.7512 -0.2882
   46CHL1   H17 3355   1.228   0.507   7.634  0.2738  2.7950  0.3491
   46CHL1   C13 3356   1.333   0.484   7.461  0.7891  0.3812 -0.1088
   46CHL1   C18 3357   1.461   0.423   7.408  0.0141  0.0804  0.0221
   46CHL1  H18A 3358   1.447   0.314   7.397 -1.3772  0.5056 -3.7748
   46CHL1  H18B 3359   1.499   0.468   7.313 -2.2799 -2.5579 -2.3215
   46CHL1  H18C 3360   1.550   0.442   7.471 -1.2132  1.4845  1.4077
   46CHL1   C12 3361   1.208   0.453   7.385 -0.7131 -0.1093  0.1733
   46CHL1  H12A 3362   1.206   0.343   7.373  0.9734 -0.1756  0.1978
   46CHL1  H12B 3363   1.118   0.486   7.441 -1.2926 -0.0382 -0.7774
   46CHL1   C11 3364   1.215   0.523   7.252  0.0921 -0.5811  0.0266
   46CHL1  H11A 3365   1.292   0.484   7.181  0.2377  1.5897 -1.0739
   46CHL1  H11B 3366   1.124   0.495   7.195  1.0511 -0.3140 -1.7272
   46CHL1    C9 3367   1.239   0.676   7.252  0.5995  0.3031  0.6451
   46CHL1    H9 3368   1.160   0.721   7.315  0.0331  0.8075 -0.4137
   46CHL1   C10 3369   1.226   0.749   7.112 -0.0847  0.2618  0.2304
   46CHL1   C19 3370   1.310   0.684   7.000  0.0870 -0.4770 -0.8927
   46CHL1  H19A 3371   1.256   0.587   6.986 -1.9956 -0.0736  2.8419
   46CHL1  H19B 3372   1.316   0.739   6.904 -3.4502 -1.4528 -1.8239
   46CHL1  H19C 3373   1.412   0.666   7.040 -0.9760 -3.5239  0.8400
   46CHL1    C1 3374   1.076   0.739   7.054 -0.7693 -0.2482  0.7921
   46CHL1   H1A 3375   1.062   0.632   7.026 -0.1301 -0.1038 -0.1049
   46CHL1   H1B 3376   1.001   0.748   7.136 -0.7829  0.8074  0.6738
   46CHL1    C2 3377   1.040   0.839   6.939 -0.1659 -0.2344  0.4602
   46CHL1   H2A 3378   0.931   0.833   6.920 -0.2296  0.4330  0.5867
   46CHL1   H2B 3379   1.093   0.802   6.849 -0.3613  0.7505 -0.0749
   46CHL1   C20 3380   1.324   0.333   7.685  0.2051  0.5705 -0.4403
   46CHL1   H20 3381   1.414   0.275   7.653 -0.4682 -0.0542 -1.2351
   46CHL1   C21 3382   1.199   0.240   7.635 -0.1165 -0.3217 -0.0826
   46CHL1  H21A 3383   1.221   0.182   7.543 -0.9678 -0.7693 -0.0162
   46CHL1  H21B 3384   1.100   0.289   7.632 -1.8987 -3.6561 -0.6430
   46CHL1  H21C 3385   1.198   0.162   7.715  0.4903  1.1907  1.4590
   46CHL1   C22 3386   1.322   0.335   7.839 -0.3953 -0.6453 -0.4696
   46CHL1  H22A 3387   1.345   0.236   7.883  0.9339 -0.3746 -0.5146
   46CHL1  H22B 3388   1.408   0.391   7.883 -1.8812  0.8185  0.7073
   46CHL1   C23 3389   1.189   0.384   7.896  0.5268  1.0055 -0.1336
   46CHL1  H23A 3390   1.179   0.491   7.868  4.6687  1.2213 -1.3705
   46CHL1  H23B 3391   1.094   0.336   7.861  0.4635  0.9221  0.1458
   46CHL1   C24 3392   1.196   0.370   8.051 -0.6638 -0.3259 -0.0429
   46CHL1  H24A 3393   1.100   0.404   8.095  0.3959  1.8232  0.7516
   46CHL1  H24B 3394   1.213   0.261   8.071 -0.8747 -0.3060  0.2565
   46CHL1   C25 3395   1.301   0.446   8.125 -0.1739 -0.1082 -0.0032
   46CHL1   H25 3396   1.392   0.389   8.097 -1.0175 -2.6670  2.0654
   46CHL1   C26 3397   1.319   0.588   8.072 -0.0989 -0.3682 -0.1210
   46CHL1  H26A 3398   1.329   0.592   7.962 -1.4957 -0.3533 -0.2641
   46CHL1  H26B 3399   1.234   0.648   8.109  0.6177  1.3741 -1.1679
   46CHL1  H26C 3400   1.415   0.628   8.112 -0.0463  0.4310 -1.0221
   46CHL1   C27 3401   1.277   0.455   8.273 -1.2578  0.5949 -0.0665
   46CHL1  H27A 3402   1.271   0.347   8.298 -0.3333 -0.1816 -2.7561
   46CHL1  H27B 3403   1.360   0.514   8.318  0.0379 -1.5313  0.4917
   46CHL1  H27C 3404   1.177   0.498   8.295 -1.2451  1.6524 -1.8412
   47CHL1    C3 3405   2.954   0.831   6.599  0.1026 -0.2144 -0.1622
   47CHL1    H3 3406   3.056   0.796   6.625 -0.5537 -1.1458  1.3174
   47CHL1    O3 3407   2.950   0.864   6.460 -0.2398  0.0775  0.4097
   47CHL1   H3' 3408   2.944   0.959   6.447 -0.7325 -0.2083 -1.8149
   47CHL1    C4 3409   2.834   0.734   6.628 -0.2628 -0.1568  0.6560
   47CHL1   H4A 3410   2.736   0.770   6.592 -0.2708 -1.2325 -0.4968
   47CHL1   H4B 3411   2.860   0.648   6.562 -1.4559 -0.4668  0.5617
   47CHL1    C5 3412   2.822   0.694   6.770  0.6278  0.2752 -0.2301
   47CHL1    C6 3413   2.824   0.563   6.807 -1.0160 -0.0808 -0.2449
   47CHL1    H6 3414   2.843   0.491   6.726 -1.3725  0.0122 -0.4097
   47CHL1    C7 3415   2.813   0.516   6.946 -0.1029 -0.5629 -0.1917
   47CHL1   H7A 3416   2.741   0.431   6.947  1.6597 -2.1359  1.0856
   47CHL1   H7B 3417   2.914   0.482   6.977 -1.0090 -2.4269  0.9409
   47CHL1    C8 3418   2.767   0.627   7.050 -0.2339  1.3454 -1.1232
   47CHL1    H8 3419   2.659   0.646   7.035 -0.6121  0.9616  0.8580
   47CHL1   C14 3420   2.789   0.577   7.192  0.2827  0.1557 -0.5782
   47CHL1   H14 3421   2.898   0.567   7.210  0.1417  0.1888  0.3309
   47CHL1   C15 3422   2.724   0.442   7.235 -0.1432  0.2119  0.1511
   47CHL1  H15A 3423   2.623   0.431   7.189  0.5390  0.5407 -1.5002
   47CHL1  H15B 3424   2.790   0.362   7.195 -1.6668 -0.8750 -0.2860
   47CHL1   C16 3425   2.731   0.456   7.395 -0.2311 -0.1641  0.1225
   47CHL1  H16A 3426   2.630   0.443   7.440  0.2166 -3.0938  0.4900
   47CHL1  H16B 3427   2.800   0.382   7.441  1.7834  1.9294  0.6649
   47CHL1   C17 3428   2.775   0.607   7.426  0.0193 -0.0684  0.6932
   47CHL1   H17 3429   2.885   0.613   7.434  0.1913 -1.6966  0.0007
   47CHL1   C13 3430   2.744   0.679   7.299  0.8549  0.2893 -0.2538
   47CHL1   C18 3431   2.591   0.718   7.289  1.2602  0.4881  0.5514
   47CHL1  H18A 3432   2.526   0.634   7.321  1.8526 -0.3590 -0.3936
   47CHL1  H18B 3433   2.570   0.803   7.357  1.4866  0.9235  0.0828
   47CHL1  H18C 3434   2.557   0.751   7.188  0.2313 -2.6232 -0.2410
   47CHL1   C12 3435   2.818   0.815   7.278 -0.1015 -0.1562 -0.3123
   47CHL1  H12A 3436   2.770   0.894   7.339 -1.6441 -0.3234 -1.2682
   47CHL1  H12B 3437   2.925   0.800   7.305  0.0577  0.8841 -0.3432
   47CHL1   C11 3438   2.808   0.861   7.128 -0.2981  0.3308 -0.1121
   47CHL1  H11A 3439   2.703   0.895   7.124 -0.9878 -1.6046  0.5727
   47CHL1  H11B 3440   2.872   0.951   7.118  0.8389 -0.5500 -1.2418
   47CHL1    C9 3441   2.835   0.754   7.015 -1.1778  0.0883  0.3787
   47CHL1    H9 3442   2.943   0.732   7.023 -1.5537 -2.2881 -0.4417
   47CHL1   C10 3443   2.816   0.806   6.869  0.1444 -0.6271 -0.3927
   47CHL1   C19 3444   2.674   0.874   6.863 -0.0780  0.8320 -0.0707
   47CHL1  H19A 3445   2.647   0.884   6.756  2.4015 -2.9016 -1.2321
   47CHL1  H19B 3446   2.599   0.801   6.902 -0.4326  1.5989  0.7208
   47CHL1  H19C 3447   2.663   0.973   6.914 -0.2774  1.2868 -0.9679
   47CHL1    C1 3448   2.919   0.921   6.838 -0.4790 -0.6996  0.8529
   47CHL1   H1A 3449   2.885   1.009   6.896  1.2332  0.0711  0.7261
   47CHL1   H1B 3450   3.017   0.886   6.875 -0.5143  0.2334  1.8693
   47CHL1    C2 3451   2.931   0.959   6.688 -0.6082  0.3561  0.0559
   47CHL1   H2A 3452   3.013   1.029   6.659 -2.9236  2.3259 -2.2192
   47CHL1   H2B 3453   2.835   1.006   6.659 -1.2985 -0.9712  0.1088
   47CHL1   C20 3454   2.732   0.666   7.563  0.3496  0.3261  0.7036
   47CHL1   H20 3455   2.736   0.775   7.541  0.5983 -0.0838 -1.5014
   47CHL1   C21 3456   2.830   0.606   7.662 -0.3210  0.6767 -0.4102
   47CHL1  H21A 3457   2.931   0.649   7.648  0.7636 -0.9739  1.8702
   47CHL1  H21B 3458   2.839   0.495   7.666  0.5881  0.6947  4.9320
   47CHL1  H21C 3459   2.799   0.640   7.762 -2.6201 -1.7426 -0.1744
   47CHL1   C22 3460   2.586   0.641   7.616 -0.3004 -0.0028  0.0678
   47CHL1  H22A 3461   2.521   0.630   7.527  1.7917  0.5575 -1.6234
   47CHL1  H22B 3462   2.583   0.541   7.666  0.0004  0.3647  0.8504
   47CHL1   C23 3463   2.544   0.758   7.706 -0.0383  0.9485  0.5978
   47CHL1  H23A 3464   2.626   0.777   7.778  1.1476  1.4818 -0.8453
   47CHL1  H23B 3465   2.524   0.846   7.642  0.3972  0.6515  0.0465
   47CHL1   C24 3466   2.417   0.725   7.780 -0.2037 -0.1443  0.2601
   47CHL1  H24A 3467   2.441   0.656   7.864  0.0975 -1.5980 -0.9867
   47CHL1  H24B 3468   2.371   0.818   7.820 -1.1490 -0.5618  0.1716
   47CHL1   C25 3469   2.297   0.660   7.712 -0.0308  0.5364  0.6372
   47CHL1   H25 3470   2.345   0.576   7.657 -1.3456  1.0016 -1.3030
   47CHL1   C26 3471   2.188   0.623   7.809  0.1542 -0.1786  0.1064
   47CHL1  H26A 3472   2.118   0.708   7.826  0.9736  0.6190 -0.4444
   47CHL1  H26B 3473   2.131   0.533   7.778  0.1430  0.0294 -0.4887
   47CHL1  H26C 3474   2.236   0.610   7.908  0.6747  2.0770  0.2147
   47CHL1   C27 3475   2.236   0.753   7.608 -0.4459  0.3520  0.7814
   47CHL1  H27A 3476   2.216   0.853   7.651  1.1345  1.2120 -0.3778
   47CHL1  H27B 3477   2.308   0.756   7.523  0.1435  0.0756  1.2660
   47CHL1  H27C 3478   2.139   0.717   7.566 -0.1718 -0.5629  0.9111
   48CHL1    C3 3479   0.139   4.977   6.522 -0.2678 -0.7609 -0.0290
   48CHL1    H3 3480   0.241   4.945   6.553  0.0903  0.8879  0.5913
   48CHL1    O3 3481   0.123   4.947   6.389  0.1543 -0.5195 -0.8134
   48CHL1   H3' 3482   0.033   4.918   6.377  0.2680 -0.6801 -1.3011
   48CHL1    C4 3483   0.037   4.902   6.608 -0.4031 -0.1086 -0.7397
   48CHL1   H4A 3484  -0.066   4.906   6.566  0.0857 -0.7032 -2.0525
   48CHL1   H4B 3485   0.054   4.795   6.585  1.4829  0.6435 -3.2790
   48CHL1    C5 3486   0.044   4.941   6.758  0.3251  0.5065 -0.1961
   48CHL1    C6 3487   0.066   4.839   6.847 -0.9792  0.6293  0.0686
   48CHL1    H6 3488   0.071   4.734   6.814  0.1894 -0.4913  3.3569
   48CHL1    C7 3489   0.068   4.854   6.993  0.1990 -0.8689  0.3412
   48CHL1   H7A 3490  -0.003   4.788   7.047  1.9210 -0.7279  2.9887
   48CHL1   H7B 3491   0.164   4.820   7.037 -0.3032 -1.2602  1.1569
   48CHL1    C8 3492   0.032   5.000   7.045  0.2202 -0.1938 -0.1023
   48CHL1    H8 3493  -0.079   5.010   7.046  0.1876 -0.5215 -0.2181
   48CHL1   C14 3494   0.077   5.045   7.178  0.5671  0.0732 -0.7550
   48CHL1   H14 3495   0.188   5.042   7.180  0.5300 -2.0396 -0.3728
   48CHL1   C15 3496   0.039   4.948   7.295 -0.3081  0.6933  0.1443
   48CHL1  H15A 3497  -0.071   4.938   7.285 -0.1231  0.8715 -2.9295
   48CHL1  H15B 3498   0.101   4.856   7.294  0.5300  1.2312 -1.8555
   48CHL1   C16 3499   0.058   5.030   7.421 -0.2750  0.6695 -0.0428
   48CHL1  H16A 3500  -0.044   5.037   7.465 -0.8293 -1.8708 -0.7398
   48CHL1  H16B 3501   0.142   4.997   7.485 -0.2520  3.1901  1.3560
   48CHL1   C17 3502   0.101   5.174   7.371 -0.1261 -0.3200 -0.1568
   48CHL1   H17 3503   0.211   5.172   7.359  0.0055 -1.8488  1.0642
   48CHL1   C13 3504   0.038   5.187   7.231  0.4836 -0.0432 -0.5323
   48CHL1   C18 3505  -0.112   5.213   7.232 -0.3373  0.1442 -0.4185
   48CHL1  H18A 3506  -0.172   5.145   7.295 -3.1120  0.3120 -2.6913
   48CHL1  H18B 3507  -0.138   5.316   7.266 -0.8609  0.1835 -0.9200
   48CHL1  H18C 3508  -0.158   5.197   7.132 -2.6536  0.1658  0.5865
   48CHL1   C12 3509   0.100   5.287   7.134  0.0090 -0.0077  0.1015
   48CHL1  H12A 3510   0.069   5.390   7.161  0.8599  0.6245 -1.1979
   48CHL1  H12B 3511   0.210   5.283   7.150 -0.2783  0.2886  2.4232
   48CHL1   C11 3512   0.065   5.249   6.979 -0.9684  0.8776 -0.6333
   48CHL1  H11A 3513  -0.039   5.286   6.963 -2.5691 -2.3422  1.3120
   48CHL1  H11B 3514   0.143   5.301   6.920 -0.8900 -2.5772 -3.8922
   48CHL1    C9 3515   0.084   5.103   6.940 -0.0459 -0.6368 -1.0761
   48CHL1    H9 3516   0.194   5.089   6.943 -0.3233 -3.1931 -0.3665
   48CHL1   C10 3517   0.038   5.082   6.796  0.4025  1.0954 -0.0822
   48CHL1   C19 3518  -0.115   5.107   6.767 -0.0193  0.1577 -0.1413
   48CHL1  H19A 3519  -0.149   5.213   6.772 -1.5783 -0.3004 -0.4423
   48CHL1  H19B 3520  -0.147   5.075   6.665 -2.9021  0.0695  0.6856
   48CHL1  H19C 3521  -0.169   5.054   6.849  0.8471  2.1677  1.8482
   48CHL1    C1 3522   0.122   5.158   6.695 -0.3328 -0.5468  0.4287
   48CHL1   H1A 3523   0.118   5.268   6.714  0.0244 -0.5444  0.5100
   48CHL1   H1B 3524   0.225   5.136   6.732 -1.1388 -2.2550  1.8363
   48CHL1    C2 3525   0.112   5.130   6.542  0.1901  0.0897  0.2214
   48CHL1   H2A 3526   0.194   5.189   6.495  2.0190 -1.2599  1.5620
   48CHL1   H2B 3527   0.012   5.154   6.501  1.0288 -0.4965 -2.3534
   48CHL1   C20 3528   0.071   5.277   7.476 -0.2771  0.7090  1.1784
   48CHL1   H20 3529  -0.039   5.293   7.480 -0.5097  0.0351 -1.0558
   48CHL1   C21 3530   0.150   5.407   7.453 -0.2563 -0.2940 -0.2847
   48CHL1  H21A 3531   0.257   5.384   7.469 -0.3311 -0.1168  0.4624
   48CHL1  H21B 3532   0.121   5.490   7.520  3.6786 -2.1418  4.2132
   48CHL1  H21C 3533   0.143   5.435   7.345 -0.1210 -0.0336 -0.2266
   48CHL1   C22 3534   0.115   5.236   7.616  0.2954 -0.2809 -0.1286
   48CHL1  H22A 3535   0.079   5.132   7.631  1.7224 -0.7434  0.2054
   48CHL1  H22B 3536   0.225   5.236   7.625  0.2613  0.1662  0.3281
   48CHL1   C23 3537   0.062   5.327   7.733 -0.3433 -0.4422 -0.5205
   48CHL1  H23A 3538   0.125   5.419   7.730 -0.3280 -0.4429 -0.1662
   48CHL1  H23B 3539  -0.044   5.359   7.722 -0.2274  0.2100  0.1840
   48CHL1   C24 3540   0.083   5.265   7.874  0.3364 -0.3211  0.8783
   48CHL1  H24A 3541   0.058   5.157   7.864  0.1094 -0.2891  1.0850
   48CHL1  H24B 3542   0.192   5.264   7.897 -0.0143 -1.0938  2.7334
   48CHL1   C25 3543   0.014   5.358   7.972  0.1452  0.0584 -0.1947
   48CHL1   H25 3544  -0.095   5.373   7.956 -0.1701 -0.2017  1.5477
   48CHL1   C26 3545   0.016   5.287   8.114  0.3838 -0.0296  1.2140
   48CHL1  H26A 3546  -0.037   5.190   8.114  0.6696 -0.2263 -0.6101
   48CHL1  H26B 3547   0.118   5.264   8.152  1.9259  0.0490 -2.4526
   48CHL1  H26C 3548  -0.042   5.353   8.182 -2.0981  0.5260 -1.2432
   48CHL1   C27 3549   0.086   5.493   7.981  0.2836 -0.3073  0.5629
   48CHL1  H27A 3550   0.186   5.469   7.940 -0.6871 -0.0724 -2.1447
   48CHL1  H27B 3551   0.039   5.573   7.920  1.6824  0.2842  0.2097
   48CHL1  H27C 3552   0.090   5.522   8.089  3.1128  1.1954  0.1690
   49CHL1    C3 3553   2.742   4.914   6.844 -0.9702  0.6068 -0.0180
   49CHL1    H3 3554   2.804   4.829   6.881 -1.4816  0.3177  0.1916
   49CHL1    O3 3555   2.757   4.946   6.706  0.0137  0.4173  0.4362
   49CHL1   H3' 3556   2.671   4.984   6.691 -0.1134  0.0853  0.3122
   49CHL1    C4 3557   2.596   4.865   6.873 -0.1032 -0.2694 -0.0385
   49CHL1   H4A 3558   2.527   4.943   6.832  0.9972 -0.5479 -2.6605
   49CHL1   H4B 3559   2.593   4.774   6.809  2.3519 -0.5574  0.1713
   49CHL1    C5 3560   2.564   4.838   7.019  0.4753  0.3544  0.2940
   49CHL1    C6 3561   2.513   4.720   7.056  0.1640 -0.1539  0.0212
   49CHL1    H6 3562   2.496   4.647   6.974 -3.3001 -0.1783  0.6076
   49CHL1    C7 3563   2.477   4.683   7.198 -0.5365 -0.7599 -0.0749
   49CHL1   H7A 3564   2.383   4.624   7.206 -0.7422 -0.5444 -0.8886
   49CHL1   H7B 3565   2.555   4.607   7.224  0.6029  0.6111  0.6323
   49CHL1    C8 3566   2.487   4.812   7.287  0.3133 -0.0941 -0.2998
   49CHL1    H8 3567   2.385   4.857   7.291 -0.1809 -1.2689  1.1301
   49CHL1   C14 3568   2.510   4.763   7.435 -0.0078 -0.0616  0.1132
   49CHL1   H14 3569   2.613   4.724   7.441  0.5496  1.1870 -0.7396
   49CHL1   C15 3570   2.426   4.652   7.489  0.5750 -0.2220 -0.1309
   49CHL1  H15A 3571   2.321   4.659   7.454  0.3869  4.1448  0.7538
   49CHL1  H15B 3572   2.467   4.557   7.449 -1.1604 -0.7146 -0.8506
   49CHL1   C16 3573   2.444   4.654   7.644  0.2586 -0.6497 -0.8368
   49CHL1  H16A 3574   2.348   4.651   7.700  1.3592 -1.3115  1.1264
   49CHL1  H16B 3575   2.501   4.569   7.688 -0.6001 -1.2541 -0.8674
   49CHL1   C17 3576   2.522   4.790   7.676  0.2146  0.1288  0.2183
   49CHL1   H17 3577   2.632   4.772   7.687  0.4093  1.8868  1.3710
   49CHL1   C13 3578   2.510   4.873   7.542 -0.2827  0.1740 -0.0972
   49CHL1   C18 3579   2.373   4.946   7.547 -0.5967 -0.1952  0.2795
   49CHL1  H18A 3580   2.289   4.874   7.540  0.9180 -1.9736 -0.7495
   49CHL1  H18B 3581   2.360   5.000   7.643  0.3068 -1.7295  1.3193
   49CHL1  H18C 3582   2.371   5.012   7.458  1.8721  2.1617  1.8109
   49CHL1   C12 3583   2.624   4.966   7.512  0.2794  0.4129  0.1452
   49CHL1  H12A 3584   2.634   5.054   7.579 -0.0915  0.8660 -0.3902
   49CHL1  H12B 3585   2.721   4.911   7.515  0.6988  1.0740 -0.7968
   49CHL1   C11 3586   2.612   5.010   7.366 -0.7158 -0.5865  0.4224
   49CHL1  H11A 3587   2.537   5.091   7.350  0.5345  0.8531  1.4625
   49CHL1  H11B 3588   2.708   5.063   7.343 -0.5271  0.4127  3.1831
   49CHL1    C9 3589   2.604   4.903   7.262  0.3590  0.5003  0.1659
   49CHL1    H9 3590   2.698   4.844   7.263  1.1213  1.6502 -0.9058
   49CHL1   C10 3591   2.598   4.947   7.114 -0.6835 -0.6746  1.1064
   49CHL1   C19 3592   2.493   5.055   7.101 -0.3960  1.0438 -0.3603
   49CHL1  H19A 3593   2.395   5.027   7.144  1.2233 -1.2859  2.0921
   49CHL1  H19B 3594   2.538   5.150   7.138  1.3216 -0.2081  0.9216
   49CHL1  H19C 3595   2.472   5.077   6.994 -1.0723  1.5226 -0.1392
   49CHL1    C1 3596   2.744   5.008   7.078  0.3345 -0.3420  0.9238
   49CHL1   H1A 3597   2.746   5.105   7.134  0.3583 -0.0718  0.4555
   49CHL1   H1B 3598   2.819   4.939   7.121 -0.2135  0.1133  2.7072
   49CHL1    C2 3599   2.770   5.035   6.923 -0.4163 -0.0298 -0.1212
   49CHL1   H2A 3600   2.874   5.073   6.912 -0.7530  1.5135  1.5651
   49CHL1   H2B 3601   2.711   5.123   6.889 -1.4633 -1.1246 -1.2583
   49CHL1   C20 3602   2.493   4.856   7.812  0.2338 -0.7659 -0.7924
   49CHL1   H20 3603   2.391   4.896   7.825  0.7897  0.3265  0.4831
   49CHL1   C21 3604   2.592   4.979   7.840 -0.2794 -0.6799  0.3586
   49CHL1  H21A 3605   2.567   5.054   7.762 -0.6324  1.3094  2.2823
   49CHL1  H21B 3606   2.690   4.934   7.812  0.5686  0.3168  1.6226
   49CHL1  H21C 3607   2.577   5.015   7.944  1.4024  0.2710  0.3048
   49CHL1   C22 3608   2.503   4.748   7.932 -0.1051  0.0220 -0.4664
   49CHL1  H22A 3609   2.417   4.681   7.913  1.1688 -1.3776 -1.4730
   49CHL1  H22B 3610   2.591   4.686   7.907  1.4945  1.8735  0.2752
   49CHL1   C23 3611   2.528   4.795   8.074 -0.0671 -0.7143  0.3218
   49CHL1  H23A 3612   2.633   4.817   8.105 -0.5402  2.4146  0.0380
   49CHL1  H23B 3613   2.465   4.885   8.090  0.5432 -0.4818  1.5399
   49CHL1   C24 3614   2.485   4.687   8.182  0.1605  0.6796  0.5298
   49CHL1  H24A 3615   2.384   4.649   8.154 -0.9480  4.0240 -0.5832
   49CHL1  H24B 3616   2.571   4.617   8.184  0.0608  0.5739  1.8588
   49CHL1   C25 3617   2.484   4.741   8.323 -0.4365 -0.0754 -0.0839
   49CHL1   H25 3618   2.564   4.818   8.333  0.8530 -1.5433  1.8125
   49CHL1   C26 3619   2.348   4.811   8.359 -0.2949  0.1472  0.2784
   49CHL1  H26A 3620   2.258   4.746   8.348  1.7313 -2.4438 -2.3284
   49CHL1  H26B 3621   2.359   4.863   8.457 -0.5923 -1.2579  1.0917
   49CHL1  H26C 3622   2.340   4.891   8.282 -0.6222  0.4848  0.6566
   49CHL1   C27 3623   2.504   4.629   8.432 -0.2442 -0.6870 -0.1268
   49CHL1  H27A 3624   2.494   4.678   8.531  0.3057 -0.0150 -0.3958
   49CHL1  H27B 3625   2.419   4.558   8.418 -0.5877  0.1158 -2.5081
   49CHL1  H27C 3626   2.603   4.579   8.423  0.4435  0.4521  0.8171
   50CHL1    C3 3627   4.952   5.562   6.637 -0.0629  0.4342 -0.0681
   50CHL1    H3 3628   4.897   5.466   6.625 -0.6354  0.8729 -1.0282
   50CHL1    O3 3629   4.995   5.602   6.512  1.1345 -0.4195  0.2631
   50CHL1   H3' 3630   5.001   5.525   6.455 -0.6317  0.7739 -1.6738
   50CHL1    C4 3631   4.846   5.672   6.684 -0.6194 -0.1281  0.0104
   50CHL1   H4A 3632   4.894   5.772   6.672 -2.1704  0.7084  0.6105
   50CHL1   H4B 3633   4.756   5.673   6.619  0.5463  2.0515 -1.7092
   50CHL1    C5 3634   4.814   5.657   6.828  0.3741 -0.3768  0.7572
   50CHL1    C6 3635   4.692   5.646   6.872 -0.5895 -0.8741  0.2939
   50CHL1    H6 3636   4.607   5.636   6.803 -0.8271 -0.6380  0.5493
   50CHL1    C7 3637   4.652   5.650   7.014  0.1208  1.3044  0.4782
   50CHL1   H7A 3638   4.570   5.723   7.027  0.1665  1.7729 -1.4483
   50CHL1   H7B 3639   4.610   5.559   7.063  2.6553  0.0487  0.4843
   50CHL1    C8 3640   4.763   5.700   7.111 -0.3765 -0.0466 -0.3602
   50CHL1    H8 3641   4.752   5.810   7.098 -3.2851 -0.5095 -3.5365
   50CHL1   C14 3642   4.738   5.661   7.256  0.7846  0.1225  0.2119
   50CHL1   H14 3643   4.751   5.550   7.257 -2.5048 -0.3553 -0.3858
   50CHL1   C15 3644   4.595   5.680   7.304 -0.3423  1.0388  0.0924
   50CHL1  H15A 3645   4.555   5.774   7.261 -0.7857  0.0969 -1.6332
   50CHL1  H15B 3646   4.527   5.596   7.278  0.0249  0.6060  0.5304
   50CHL1   C16 3647   4.612   5.706   7.449  0.2044 -0.7698 -0.4821
   50CHL1  H16A 3648   4.590   5.809   7.484  1.2497 -1.5405  2.7827
   50CHL1  H16B 3649   4.545   5.641   7.508 -2.8600  2.8983  0.4887
   50CHL1   C17 3650   4.762   5.680   7.479 -0.2778  0.3110 -0.2338
   50CHL1   H17 3651   4.769   5.571   7.494  0.2873  0.5977  1.8192
   50CHL1   C13 3652   4.832   5.721   7.353 -0.1389  0.2346  0.2303
   50CHL1   C18 3653   4.833   5.880   7.349 -0.4656  0.3873  0.3498
   50CHL1  H18A 3654   4.878   5.932   7.436  0.4598 -0.6128  0.4918
   50CHL1  H18B 3655   4.876   5.922   7.255  1.0659 -1.3068  0.2357
   50CHL1  H18C 3656   4.729   5.918   7.355  0.4591  3.0398  0.6951
   50CHL1   C12 3657   4.977   5.671   7.318  0.7184 -0.0437 -0.1616
   50CHL1  H12A 3658   5.057   5.717   7.381 -0.5352  1.0465  0.7102
   50CHL1  H12B 3659   4.985   5.564   7.344 -1.3889  0.0452  1.1266
   50CHL1   C11 3660   5.016   5.691   7.172  1.4086 -0.8197  0.7797
   50CHL1  H11A 3661   5.032   5.801   7.165  0.0115 -0.5412  1.6510
   50CHL1  H11B 3662   5.110   5.635   7.153  2.6403  0.7354  2.0092
   50CHL1    C9 3663   4.903   5.649   7.071 -0.2747 -0.6522 -0.6601
   50CHL1    H9 3664   4.888   5.541   7.093  0.0302 -0.4133  0.7974
   50CHL1   C10 3665   4.943   5.667   6.920 -0.2879  0.2142  0.0759
   50CHL1   C19 3666   5.026   5.804   6.917 -0.1536 -0.0856  0.2450
   50CHL1  H19A 3667   5.046   5.822   6.809  0.3965 -1.7172  0.0610
   50CHL1  H19B 3668   4.973   5.886   6.971  1.2868 -0.2011  1.9101
   50CHL1  H19C 3669   5.128   5.791   6.959 -0.7322 -0.2034  1.6614
   50CHL1    C1 3670   5.044   5.560   6.872  0.2977 -0.2546 -0.1530
   50CHL1   H1A 3671   5.144   5.564   6.921  0.4542  1.1075 -0.5299
   50CHL1   H1B 3672   4.996   5.462   6.891  2.4849 -1.1846  0.9332
   50CHL1    C2 3673   5.072   5.556   6.728 -0.7077  0.5054  0.6371
   50CHL1   H2A 3674   5.130   5.470   6.688 -0.6479 -0.0735  1.9216
   50CHL1   H2B 3675   5.129   5.648   6.702 -1.2279  0.0472 -2.4705
   50CHL1   C20 3676   4.792   5.749   7.615 -0.4268 -0.2314 -0.6262
   50CHL1   H20 3677   4.767   5.857   7.614  0.9383  0.1884  1.6420
   50CHL1   C21 3678   4.945   5.733   7.666  0.9271 -0.0149  0.4762
   50CHL1  H21A 3679   4.971   5.626   7.665 -2.5681 -1.0410  2.5572
   50CHL1  H21B 3680   4.945   5.750   7.776  2.2989  0.6823  0.3827
   50CHL1  H21C 3681   5.008   5.807   7.612  0.3679 -0.1176 -0.3520
   50CHL1   C22 3682   4.706   5.691   7.732  0.2586 -0.5643 -0.4699
   50CHL1  H22A 3683   4.675   5.587   7.707 -1.7385 -0.1558  0.0762
   50CHL1  H22B 3684   4.759   5.664   7.826 -0.4297  2.6919  0.9709
   50CHL1   C23 3685   4.594   5.790   7.770 -0.0958  0.1539  0.4793
   50CHL1  H23A 3686   4.536   5.827   7.682  0.7164 -0.4675 -0.3318
   50CHL1  H23B 3687   4.532   5.737   7.845  0.0106 -1.8731 -0.7921
   50CHL1   C24 3688   4.656   5.914   7.843  0.7111  0.0511 -0.5290
   50CHL1  H24A 3689   4.750   5.883   7.893  1.1637 -3.1321 -2.9987
   50CHL1  H24B 3690   4.679   5.983   7.759 -1.0301  0.5829 -0.5997
   50CHL1   C25 3691   4.548   5.982   7.937 -0.3338 -0.1125  0.1072
   50CHL1   H25 3692   4.469   6.018   7.869 -1.0249 -0.5043  0.6915
   50CHL1   C26 3693   4.498   5.903   8.058  0.0478 -0.0124  0.6506
   50CHL1  H26A 3694   4.432   5.963   8.125 -0.0683  1.0205 -0.3596
   50CHL1  H26B 3695   4.446   5.811   8.021 -0.5655 -0.6017  2.8125
   50CHL1  H26C 3696   4.588   5.869   8.113  0.0605  0.8882  1.2143
   50CHL1   C27 3697   4.617   6.111   7.992  0.5822 -0.0778 -0.0340
   50CHL1  H27A 3698   4.679   6.164   7.917  0.1659  0.1586 -0.2111
   50CHL1  H27B 3699   4.547   6.183   8.039  0.5641 -0.7929  1.0819
   50CHL1  H27C 3700   4.687   6.084   8.074  1.5299  0.1345 -0.7512
   51CHL1    C3 3701   3.563   4.485   6.874 -0.9466  0.2388  0.1353
   51CHL1    H3 3702   3.525   4.392   6.922 -0.5187  0.0529  0.1211
   51CHL1    O3 3703   3.544   4.472   6.733  0.5434 -0.2493 -0.5501
   51CHL1   H3' 3704   3.621   4.506   6.686 -1.2026  0.9747 -2.7710
   51CHL1    C4 3705   3.484   4.603   6.942  0.5064 -0.2299 -0.3449
   51CHL1   H4A 3706   3.529   4.692   6.892  1.5039  0.0137  0.9255
   51CHL1   H4B 3707   3.380   4.594   6.904  0.7957  1.9922 -1.8715
   51CHL1    C5 3708   3.511   4.612   7.093 -0.1607  0.3809 -0.0994
   51CHL1    C6 3709   3.409   4.612   7.179  0.1889 -0.3419  0.0710
   51CHL1    H6 3710   3.308   4.606   7.138 -1.3358 -0.2005  3.4571
   51CHL1    C7 3711   3.412   4.610   7.328 -0.2268  0.5920  0.1376
   51CHL1   H7A 3712   3.345   4.687   7.371  0.4852  2.4586 -1.8814
   51CHL1   H7B 3713   3.388   4.505   7.352 -0.3123  0.7022  0.5398
   51CHL1    C8 3714   3.554   4.624   7.379 -0.0828 -0.4809 -0.2027
   51CHL1    H8 3715   3.582   4.731   7.380 -0.1611 -0.4600  0.5169
   51CHL1   C14 3716   3.580   4.580   7.531 -0.8216  0.8016 -0.6954
   51CHL1   H14 3717   3.576   4.469   7.539  0.6046  0.7820 -0.0613
   51CHL1   C15 3718   3.470   4.619   7.623  0.4847 -0.4808 -0.4230
   51CHL1  H15A 3719   3.425   4.718   7.599  1.8466  0.3303  0.2614
   51CHL1  H15B 3720   3.379   4.556   7.612 -0.0166  0.1815 -0.1670
   51CHL1   C16 3721   3.544   4.613   7.759 -0.4582 -0.0618 -0.0938
   51CHL1  H16A 3722   3.536   4.717   7.798 -0.2856 -0.4732  1.0738
   51CHL1  H16B 3723   3.497   4.555   7.840  2.2698  0.3124  1.9260
   51CHL1   C17 3724   3.693   4.574   7.730 -0.1251  0.0605 -0.6428
   51CHL1   H17 3725   3.708   4.465   7.738  2.4240  0.2793 -1.6669
   51CHL1   C13 3726   3.712   4.624   7.589 -0.1284  0.0061 -0.4471
   51CHL1   C18 3727   3.730   4.780   7.579  0.2286 -0.1309 -0.9051
   51CHL1  H18A 3728   3.714   4.831   7.482 -0.1370 -2.0091 -1.8707
   51CHL1  H18B 3729   3.659   4.824   7.653  3.1525  0.0797  2.0228
   51CHL1  H18C 3730   3.832   4.809   7.613  0.4444  1.5897 -2.8290
   51CHL1   C12 3731   3.818   4.550   7.500  0.2030  0.4232  0.9787
   51CHL1  H12A 3732   3.913   4.591   7.540 -0.9770  3.6607  0.7591
   51CHL1  H12B 3733   3.819   4.439   7.506  0.3154  0.2952 -0.9884
   51CHL1   C11 3734   3.807   4.586   7.354  1.0855 -0.4603 -0.0628
   51CHL1  H11A 3735   3.839   4.690   7.333 -1.2212 -0.2171 -3.0523
   51CHL1  H11B 3736   3.888   4.534   7.299  1.2547  0.8054 -1.0717
   51CHL1    C9 3737   3.660   4.560   7.296  0.7108 -0.1753  1.3478
   51CHL1    H9 3738   3.641   4.452   7.307 -0.0781 -0.1684  0.1651
   51CHL1   C10 3739   3.653   4.598   7.144  0.1359  0.0141 -0.0871
   51CHL1   C19 3740   3.725   4.732   7.111  0.0880  0.9245 -0.0321
   51CHL1  H19A 3741   3.831   4.731   7.144 -0.4458  2.2727  1.9195
   51CHL1  H19B 3742   3.704   4.760   7.006 -0.8507 -0.4923 -0.2487
   51CHL1  H19C 3743   3.689   4.818   7.172 -0.1204 -0.4301  1.8344
   51CHL1    C1 3744   3.729   4.488   7.059  0.0830 -0.3559  0.1819
   51CHL1   H1A 3745   3.836   4.489   7.088 -0.1911  0.7589  1.2554
   51CHL1   H1B 3746   3.691   4.390   7.094  1.5958 -1.1019 -0.1723
   51CHL1    C2 3747   3.708   4.489   6.910  0.2621 -0.2971  0.4347
   51CHL1   H2A 3748   3.747   4.393   6.870 -0.4618  0.5000 -2.3833
   51CHL1   H2B 3749   3.755   4.575   6.858  0.3913 -0.3977  0.3830
   51CHL1   C20 3750   3.791   4.632   7.832 -0.0853  0.8231  0.3429
   51CHL1   H20 3751   3.800   4.742   7.825  0.2016  0.7341 -0.8701
   51CHL1   C21 3752   3.931   4.565   7.819  0.2900  0.1080 -0.0389
   51CHL1  H21A 3753   3.996   4.590   7.905  1.8907 -1.0027 -0.8740
   51CHL1  H21B 3754   3.982   4.601   7.726 -0.4567 -2.3922 -1.5147
   51CHL1  H21C 3755   3.919   4.455   7.822 -0.6161  0.1342 -1.6706
   51CHL1   C22 3756   3.737   4.591   7.977 -0.9392 -0.1547  0.3466
   51CHL1  H22A 3757   3.628   4.605   7.994 -0.1406  2.2153  5.3396
   51CHL1  H22B 3758   3.764   4.485   7.997 -1.7529 -0.3020  0.6743
   51CHL1   C23 3759   3.815   4.661   8.094 -0.7107 -0.0218  0.2628
   51CHL1  H23A 3760   3.925   4.654   8.095 -0.7101 -1.6229  3.7594
   51CHL1  H23B 3761   3.812   4.770   8.069  0.7991  0.4054  1.8013
   51CHL1   C24 3762   3.760   4.648   8.233 -1.0520 -0.7091  0.8642
   51CHL1  H24A 3763   3.655   4.684   8.223 -0.7370  0.0976  0.2548
   51CHL1  H24B 3764   3.774   4.540   8.250  0.4700 -0.3760  1.9482
   51CHL1   C25 3765   3.845   4.725   8.334  0.6211 -0.0668  0.3082
   51CHL1   H25 3766   3.858   4.827   8.293  0.7693 -0.2100  0.0008
   51CHL1   C26 3767   3.780   4.734   8.472  0.0273  0.1363 -0.8140
   51CHL1  H26A 3768   3.785   4.633   8.519  3.3575  0.1415 -0.9442
   51CHL1  H26B 3769   3.837   4.793   8.547 -0.7951 -1.1420  0.8994
   51CHL1  H26C 3770   3.674   4.767   8.475 -0.5208 -1.5014 -1.1626
   51CHL1   C27 3771   3.985   4.666   8.349 -0.4399  0.2910 -0.3345
   51CHL1  H27A 3772   3.992   4.559   8.378  0.9944  0.5748  0.5093
   51CHL1  H27B 3773   4.043   4.678   8.255 -0.2785  0.2019 -0.2462
   51CHL1  H27C 3774   4.041   4.730   8.421 -0.4012  0.3534 -0.4183
   52CHL1    C3 3775   0.562   4.276   6.999 -0.3428 -0.3047  0.2767
   52CHL1    H3 3776   0.609   4.377   7.000  0.1759 -0.5017  3.2087
   52CHL1    O3 3777   0.562   4.233   6.866  0.5839 -0.3641 -0.2101
   52CHL1   H3' 3778   0.472   4.209   6.844  0.1337 -0.8839  1.9151
   52CHL1    C4 3779   0.632   4.174   7.084 -0.3392 -0.3890 -0.6666
   52CHL1   H4A 3780   0.611   4.067   7.063 -3.8485  0.4238 -1.8596
   52CHL1   H4B 3781   0.739   4.195   7.062 -0.5439  0.7212 -0.6549
   52CHL1    C5 3782   0.624   4.219   7.230  0.6446 -0.2269 -0.4614
   52CHL1    C6 3783   0.734   4.235   7.304 -0.0915 -0.6311 -0.0419
   52CHL1    H6 3784   0.837   4.212   7.273  0.6461  0.7260  1.2369
   52CHL1    C7 3785   0.740   4.282   7.451 -0.5051 -0.1805  0.7581
   52CHL1   H7A 3786   0.814   4.225   7.511  0.9775  1.0472  0.1610
   52CHL1   H7B 3787   0.780   4.385   7.445  0.9299 -0.8062 -2.0406
   52CHL1    C8 3788   0.601   4.284   7.516  0.9626  0.0854  0.0596
   52CHL1    H8 3789   0.578   4.177   7.536 -0.6827  0.3626 -0.2592
   52CHL1   C14 3790   0.598   4.362   7.646 -0.1350  0.0082  0.6173
   52CHL1   H14 3791   0.598   4.471   7.621  0.2883 -0.6922 -3.0445
   52CHL1   C15 3792   0.716   4.337   7.743  0.3429 -0.0756 -0.3663
   52CHL1  H15A 3793   0.723   4.226   7.752 -1.3840 -0.1751  0.1213
   52CHL1  H15B 3794   0.820   4.355   7.708  1.1525 -3.2865  0.0940
   52CHL1   C16 3795   0.659   4.381   7.881 -0.1205  0.0687 -0.2819
   52CHL1  H16A 3796   0.669   4.295   7.951 -1.5149 -0.1546 -0.3217
   52CHL1  H16B 3797   0.711   4.468   7.925  0.5495 -0.7205  0.5247
   52CHL1   C17 3798   0.510   4.409   7.859  0.9366 -0.3797 -0.1679
   52CHL1   H17 3799   0.517   4.518   7.836  0.2749 -0.4874 -0.9633
   52CHL1   C13 3800   0.468   4.345   7.723  0.1172  0.0775  0.1621
   52CHL1   C18 3801   0.436   4.195   7.746 -0.2157  0.2972 -0.3661
   52CHL1  H18A 3802   0.334   4.200   7.791  0.3284 -0.5768  1.0368
   52CHL1  H18B 3803   0.421   4.132   7.656 -2.7600 -1.1887  0.9775
   52CHL1  H18C 3804   0.495   4.136   7.819 -0.7251  1.8949  1.4126
   52CHL1   C12 3805   0.357   4.405   7.640 -0.3913 -0.7422  0.6381
   52CHL1  H12A 3806   0.253   4.384   7.673 -0.4170 -0.7608  0.5457
   52CHL1  H12B 3807   0.371   4.515   7.641  1.0100 -0.8910  1.9765
   52CHL1   C11 3808   0.354   4.339   7.504  0.2901  0.9215  0.9120
   52CHL1  H11A 3809   0.324   4.234   7.522  1.3820  0.8703  2.7093
   52CHL1  H11B 3810   0.278   4.386   7.438  1.2354  2.5536  0.9426
   52CHL1    C9 3811   0.494   4.344   7.428 -0.1584 -0.3366 -0.2762
   52CHL1    H9 3812   0.515   4.452   7.416  3.1767 -0.5357  2.1894
   52CHL1   C10 3813   0.487   4.260   7.290  0.8121  0.3662  0.3091
   52CHL1   C19 3814   0.407   4.124   7.312 -0.2514 -0.6058  0.3364
   52CHL1  H19A 3815   0.402   4.055   7.225  3.7111 -0.2314 -0.3614
   52CHL1  H19B 3816   0.451   4.074   7.401  0.7144 -0.5392 -0.0924
   52CHL1  H19C 3817   0.302   4.150   7.336  0.1851  0.8036  0.7766
   52CHL1    C1 3818   0.403   4.346   7.190  0.4810 -0.1152  0.6237
   52CHL1   H1A 3819   0.296   4.354   7.216  0.2253  0.1853 -0.4563
   52CHL1   H1B 3820   0.444   4.449   7.202  0.7688 -0.3402  1.6683
   52CHL1    C2 3821   0.417   4.288   7.043 -0.3619 -0.7086 -0.6328
   52CHL1   H2A 3822   0.363   4.350   6.968  0.1907  0.3093 -0.2073
   52CHL1   H2B 3823   0.377   4.184   7.042 -0.6119 -0.6304  0.3388
   52CHL1   C20 3824   0.424   4.401   7.986 -1.2103 -0.2015 -0.7108
   52CHL1   H20 3825   0.430   4.297   8.025  1.3686  0.6704  1.5371
   52CHL1   C21 3826   0.275   4.431   7.953  0.1185  0.2998 -0.1782
   52CHL1  H21A 3827   0.252   4.535   7.919  0.3692  0.0080 -1.2874
   52CHL1  H21B 3828   0.212   4.429   8.044 -0.9570  3.1914 -0.7243
   52CHL1  H21C 3829   0.219   4.368   7.881 -0.6027  0.5434  0.1589
   52CHL1   C22 3830   0.469   4.499   8.102  0.5641  0.4589 -0.1210
   52CHL1  H22A 3831   0.516   4.585   8.050  2.8127 -0.2491  0.6370
   52CHL1  H22B 3832   0.383   4.545   8.155  1.0039  0.8789  0.2358
   52CHL1   C23 3833   0.556   4.440   8.207  0.2493 -0.5723 -0.7357
   52CHL1  H23A 3834   0.514   4.346   8.249  1.5640 -1.0454 -0.4336
   52CHL1  H23B 3835   0.653   4.403   8.166  1.0234  0.4196  0.1576
   52CHL1   C24 3836   0.575   4.531   8.324  0.2969  1.0066  0.7608
   52CHL1  H24A 3837   0.475   4.556   8.367  1.5504  4.3875  2.0351
   52CHL1  H24B 3838   0.636   4.484   8.404  0.2166 -1.9383 -0.7665
   52CHL1   C25 3839   0.631   4.664   8.284  0.0845 -0.1088  0.1867
   52CHL1   H25 3840   0.581   4.704   8.193  3.1762 -1.8707 -2.5022
   52CHL1   C26 3841   0.600   4.775   8.395  0.3567 -0.2587 -0.1123
   52CHL1  H26A 3842   0.658   4.868   8.375  0.4984 -0.2187  0.4682
   52CHL1  H26B 3843   0.491   4.798   8.397  0.6903  1.6880 -1.3012
   52CHL1  H26C 3844   0.629   4.729   8.491  1.8549  0.6428 -0.0984
   52CHL1   C27 3845   0.779   4.652   8.256  0.4152 -0.1594 -0.2392
   52CHL1  H27A 3846   0.831   4.595   8.335  1.6651 -0.1412 -1.0151
   52CHL1  H27B 3847   0.791   4.594   8.162  0.6355 -1.0549  0.3339
   52CHL1  H27C 3848   0.836   4.745   8.234 -0.4012 -0.2589 -3.1744
   53CHL1    C3 3849   3.237   0.613   6.801  0.2145 -0.8967  0.6533
   53CHL1    H3 3850   3.131   0.644   6.793  0.7314  1.0962  1.0440
   53CHL1    O3 3851   3.282   0.572   6.673  0.5555 -0.1171 -0.0523
   53CHL1   H3' 3852   3.377   0.570   6.678  0.6031 -1.9013 -0.9308
   53CHL1    C4 3853   3.322   0.740   6.837  0.3005  0.7982 -0.1913
   53CHL1   H4A 3854   3.429   0.715   6.828  0.0549 -1.0281  1.3664
   53CHL1   H4B 3855   3.289   0.809   6.756  1.0382  1.7602  0.3014
   53CHL1    C5 3856   3.300   0.796   6.973 -0.4800  0.6019 -0.1347
   53CHL1    C6 3857   3.269   0.923   6.989 -0.1973  0.1302  0.1760
   53CHL1    H6 3858   3.276   0.985   6.899  0.9754  1.1181  0.9299
   53CHL1    C7 3859   3.245   0.993   7.118 -0.1942  1.0052 -0.6616
   53CHL1   H7A 3860   3.298   1.090   7.132  1.1194  0.2891 -0.4036
   53CHL1   H7B 3861   3.137   1.018   7.124 -0.3349  0.0091  2.1418
   53CHL1    C8 3862   3.287   0.899   7.237 -0.7153 -0.3610 -0.1311
   53CHL1    H8 3863   3.397   0.906   7.257 -0.5549  1.6583 -1.3997
   53CHL1   C14 3864   3.218   0.954   7.368  0.7315 -0.3339  0.7225
   53CHL1   H14 3865   3.109   0.944   7.351  0.4864  2.2462  0.4497
   53CHL1   C15 3866   3.233   1.105   7.396  0.0527  0.0055  0.8196
   53CHL1  H15A 3867   3.335   1.144   7.378  0.0220  0.1682  0.9902
   53CHL1  H15B 3868   3.160   1.166   7.339  2.2835  1.4756 -0.6329
   53CHL1   C16 3869   3.207   1.106   7.555 -0.6708  0.7220  0.5270
   53CHL1  H16A 3870   3.290   1.152   7.614  2.3171 -2.5530 -0.7977
   53CHL1  H16B 3871   3.110   1.158   7.573 -0.7695  0.4149  0.8805
   53CHL1   C17 3872   3.185   0.963   7.602 -0.0735  1.1575  0.0950
   53CHL1   H17 3873   3.079   0.929   7.596  0.5702 -1.4768  1.9105
   53CHL1   C13 3874   3.248   0.870   7.488  0.3355  0.0233  0.0995
   53CHL1   C18 3875   3.396   0.869   7.520  0.1569  0.4557  0.8447
   53CHL1  H18A 3876   3.439   0.971   7.523 -0.2871  0.7364 -1.3060
   53CHL1  H18B 3877   3.416   0.812   7.614 -1.1001 -1.5660 -0.0603
   53CHL1  H18C 3878   3.449   0.813   7.440  0.1358  1.7222 -0.0747
   53CHL1   C12 3879   3.196   0.727   7.466  0.0549  0.3360  0.6876
   53CHL1  H12A 3880   3.215   0.664   7.556 -0.8067 -0.1444  0.5436
   53CHL1  H12B 3881   3.085   0.725   7.463  0.0275  1.0036  0.9635
   53CHL1   C11 3882   3.251   0.662   7.335 -0.2772  0.0406 -0.0126
   53CHL1  H11A 3883   3.358   0.654   7.364 -0.2430  2.6991  0.9254
   53CHL1  H11B 3884   3.206   0.561   7.335  0.7300 -0.4145  0.5598
   53CHL1    C9 3885   3.240   0.754   7.215 -0.5290  0.4553  0.2982
   53CHL1    H9 3886   3.132   0.763   7.195 -0.3019  1.8238 -0.4007
   53CHL1   C10 3887   3.299   0.687   7.086 -0.7698 -0.4993 -0.4463
   53CHL1   C19 3888   3.438   0.643   7.121  0.4427 -0.0831 -0.2293
   53CHL1  H19A 3889   3.504   0.638   7.033  1.1665 -0.8768  0.3485
   53CHL1  H19B 3890   3.487   0.718   7.187  0.5713 -1.6045  1.4903
   53CHL1  H19C 3891   3.449   0.550   7.180  1.8695  0.8717  1.1074
   53CHL1    C1 3892   3.216   0.562   7.046 -0.3875  0.0485  0.0050
   53CHL1   H1A 3893   3.237   0.485   7.123  1.1333  0.7918  0.3724
   53CHL1   H1B 3894   3.106   0.578   7.058 -0.1526  0.7733  1.4923
   53CHL1    C2 3895   3.250   0.507   6.910  0.6521 -0.5676 -0.0076
   53CHL1   H2A 3896   3.191   0.417   6.882  0.0512 -0.3331  0.4825
   53CHL1   H2B 3897   3.359   0.488   6.904  1.1588  2.3266 -2.0986
   53CHL1   C20 3898   3.221   0.940   7.748 -0.4018  0.6338 -0.0314
   53CHL1   H20 3899   3.330   0.960   7.761  0.0285 -1.7977  0.5539
   53CHL1   C21 3900   3.198   0.796   7.790  0.3382 -0.1312  0.2402
   53CHL1  H21A 3901   3.273   0.723   7.751  0.3720 -0.2353  0.4942
   53CHL1  H21B 3902   3.097   0.759   7.764  0.2353  1.2009 -1.3730
   53CHL1  H21C 3903   3.209   0.795   7.901  1.9319 -1.3483  0.1221
   53CHL1   C22 3904   3.155   1.031   7.849 -0.3998  0.0136 -0.5329
   53CHL1  H22A 3905   3.209   1.022   7.946  0.8233 -0.8788 -1.2663
   53CHL1  H22B 3906   3.180   1.138   7.837  1.6004  0.4976  4.8311
   53CHL1   C23 3907   3.003   1.022   7.865 -0.2278  0.1124 -0.1065
   53CHL1  H23A 3908   2.957   1.041   7.766  0.3326 -0.9133 -0.5744
   53CHL1  H23B 3909   2.983   0.924   7.914 -1.8381  0.4984  0.0592
   53CHL1   C24 3910   2.944   1.124   7.968 -0.2233  0.5763  0.3239
   53CHL1  H24A 3911   3.007   1.123   8.060  3.5928 -0.3625 -2.0995
   53CHL1  H24B 3912   2.938   1.228   7.928  0.5132  0.1329 -0.9764
   53CHL1   C25 3913   2.804   1.076   8.010  0.3229  0.0198  0.2799
   53CHL1   H25 3914   2.811   0.967   8.030 -4.7903 -1.3442 -3.1847
   53CHL1   C26 3915   2.750   1.140   8.139  0.2119 -0.5241 -0.1442
   53CHL1  H26A 3916   2.700   1.234   8.108 -1.2330 -1.3060 -0.2578
   53CHL1  H26B 3917   2.670   1.070   8.173 -1.7289  0.9322 -1.5285
   53CHL1  H26C 3918   2.822   1.141   8.224 -1.4500  0.1303  1.2973
   53CHL1   C27 3919   2.703   1.085   7.893 -0.0964  0.3721 -0.4507
   53CHL1  H27A 3920   2.752   1.029   7.810 -0.0894  0.8674 -0.7858
   53CHL1  H27B 3921   2.602   1.045   7.914  0.0676 -0.5860 -1.3972
   53CHL1  H27C 3922   2.702   1.193   7.864  1.3806  0.5710  0.1580
   54CHL1    C3 3923   3.470   2.024   6.920 -0.3685  0.4536 -0.8085
   54CHL1    H3 3924   3.480   2.134   6.914 -1.0559  0.5822  0.1672
   54CHL1    O3 3925   3.463   1.975   6.796 -0.5636  0.2639  0.4454
   54CHL1   H3' 3926   3.474   1.880   6.804 -0.9846  0.2866  1.4375
   54CHL1    C4 3927   3.586   1.961   6.997  0.0964  0.4091 -0.1282
   54CHL1   H4A 3928   3.578   1.851   7.005 -1.9033  0.5451  0.1788
   54CHL1   H4B 3929   3.674   1.992   6.936  0.0890 -0.7658 -0.7512
   54CHL1    C5 3930   3.592   2.015   7.141  0.0134  0.3551 -0.1367
   54CHL1    C6 3931   3.701   2.075   7.193  0.6715 -0.1503 -0.3393
   54CHL1    H6 3932   3.793   2.091   7.135 -0.2906  0.4524 -1.7541
   54CHL1    C7 3933   3.696   2.133   7.334  0.3135 -0.6586  0.1864
   54CHL1   H7A 3934   3.793   2.114   7.384  0.6859  2.8056  0.9853
   54CHL1   H7B 3935   3.693   2.243   7.344 -0.5035 -0.7758  1.3450
   54CHL1    C8 3936   3.580   2.084   7.423  0.8281 -0.2334 -0.3539
   54CHL1    H8 3937   3.585   1.977   7.454 -0.2185 -0.2454 -0.1636
   54CHL1   C14 3938   3.563   2.178   7.536  0.3149 -0.2952  0.2913
   54CHL1   H14 3939   3.542   2.273   7.483 -2.8550 -1.8466 -1.5653
   54CHL1   C15 3940   3.691   2.213   7.627  0.2702 -0.1475  0.5855
   54CHL1  H15A 3941   3.739   2.121   7.667  2.1366  0.5340  0.0269
   54CHL1  H15B 3942   3.767   2.263   7.564  2.1946 -3.4886 -0.0174
   54CHL1   C16 3943   3.627   2.301   7.742  1.1734  0.1106 -0.1028
   54CHL1  H16A 3944   3.669   2.263   7.838 -1.5803 -1.3821  0.6039
   54CHL1  H16B 3945   3.653   2.409   7.728  2.2590 -0.4179 -2.6030
   54CHL1   C17 3946   3.473   2.282   7.729 -0.0060 -0.3930  0.5272
   54CHL1   H17 3947   3.442   2.374   7.677  0.0181 -1.5514 -1.6668
   54CHL1   C13 3948   3.446   2.157   7.632 -0.3928 -0.5058 -0.4093
   54CHL1   C18 3949   3.469   2.030   7.718 -0.5957  0.9919  0.2216
   54CHL1  H18A 3950   3.382   2.014   7.785 -0.3317 -1.9386  0.0222
   54CHL1  H18B 3951   3.463   1.942   7.650  0.7306  1.1125 -0.0771
   54CHL1  H18C 3952   3.562   2.031   7.778  0.6392 -0.2423 -1.5464
   54CHL1   C12 3953   3.314   2.160   7.552  0.0016  0.8419 -0.6578
   54CHL1  H12A 3954   3.229   2.128   7.615  2.1234 -1.4015  1.2642
   54CHL1  H12B 3955   3.296   2.266   7.523  0.8720  1.3356  0.5557
   54CHL1   C11 3956   3.315   2.062   7.426 -0.0191  0.1285 -1.4241
   54CHL1  H11A 3957   3.312   1.957   7.463 -1.4458  0.0773 -1.6202
   54CHL1  H11B 3958   3.228   2.097   7.366  2.0463  2.1198 -3.4224
   54CHL1    C9 3959   3.449   2.082   7.343  0.1948  0.1614 -0.3254
   54CHL1    H9 3960   3.443   2.182   7.295  0.4472 -0.2645 -1.2608
   54CHL1   C10 3961   3.456   2.000   7.220  0.3525  1.4250  0.1541
   54CHL1   C19 3962   3.455   1.851   7.260 -0.4241 -0.3145 -0.6884
   54CHL1  H19A 3963   3.358   1.818   7.303  0.2293 -0.0824  1.0522
   54CHL1  H19B 3964   3.465   1.793   7.165 -1.7950  2.4203 -2.6370
   54CHL1  H19C 3965   3.532   1.834   7.338 -0.8562 -0.1436 -0.2234
   54CHL1    C1 3966   3.333   2.043   7.127  0.6911 -0.0580  0.4772
   54CHL1   H1A 3967   3.229   2.027   7.161 -0.8705  1.7880 -2.9134
   54CHL1   H1B 3968   3.322   2.153   7.129 -2.3575 -0.2294 -1.0382
   54CHL1    C2 3969   3.339   1.988   6.984 -0.2492 -0.1594 -0.0218
   54CHL1   H2A 3970   3.253   2.040   6.936 -0.8217 -1.6051 -0.6133
   54CHL1   H2B 3971   3.327   1.877   6.984  3.1995 -0.7203 -2.0472
   54CHL1   C20 3972   3.406   2.273   7.868  0.1981 -0.2600 -0.2330
   54CHL1   H20 3973   3.437   2.181   7.923 -0.1270 -0.1814  0.0887
   54CHL1   C21 3974   3.251   2.275   7.840  0.7892 -0.2227  0.0075
   54CHL1  H21A 3975   3.193   2.288   7.934 -1.5387  4.0628 -1.7065
   54CHL1  H21B 3976   3.220   2.174   7.808  1.1052 -0.5174  0.6261
   54CHL1  H21C 3977   3.212   2.355   7.772  0.0596  1.7302  2.5532
   54CHL1   C22 3978   3.439   2.401   7.949  0.0207  0.2462  0.2114
   54CHL1  H22A 3979   3.548   2.422   7.944  0.0515  0.0971  0.2518
   54CHL1  H22B 3980   3.383   2.490   7.915  0.2431 -0.1866 -1.3364
   54CHL1   C23 3981   3.394   2.392   8.098  1.3213  0.1292 -0.0558
   54CHL1  H23A 3982   3.288   2.364   8.112  1.2149  1.4037  2.1397
   54CHL1  H23B 3983   3.443   2.303   8.144 -0.7065  0.3282  2.6824
   54CHL1   C24 3984   3.429   2.518   8.177 -0.2655 -0.5654 -0.1885
   54CHL1  H24A 3985   3.538   2.535   8.181 -0.2716  0.0034 -1.7955
   54CHL1  H24B 3986   3.398   2.606   8.117 -3.6804 -0.8967  0.8826
   54CHL1   C25 3987   3.354   2.528   8.311 -0.0573 -0.5060 -0.2528
   54CHL1   H25 3988   3.377   2.435   8.367 -1.6580 -0.0821  1.2224
   54CHL1   C26 3989   3.397   2.655   8.389 -0.1764 -0.4583  0.5579
   54CHL1  H26A 3990   3.348   2.662   8.489  2.6576  1.6973  1.9292
   54CHL1  H26B 3991   3.505   2.642   8.411 -0.1527 -0.7247  0.2835
   54CHL1  H26C 3992   3.384   2.750   8.333  1.2295 -0.3591  0.3573
   54CHL1   C27 3993   3.202   2.533   8.291  0.1309 -0.0926 -0.3055
   54CHL1  H27A 3994   3.179   2.600   8.206  0.1279  0.0742 -0.1734
   54CHL1  H27B 3995   3.169   2.430   8.263  4.2858 -1.0517 -2.4785
   54CHL1  H27C 3996   3.149   2.565   8.383 -0.1232  1.5209 -0.9904
   55CHL1    C3 3997   2.527   5.472   6.847  0.7761  0.2932 -0.5202
   55CHL1    H3 3998   2.568   5.371   6.870 -0.8629 -0.3794 -0.4034
   55CHL1    O3 3999   2.546   5.495   6.705  0.0193 -0.8697 -1.0747
   55CHL1   H3' 4000   2.559   5.588   6.684  1.0673 -0.9256 -0.7277
   55CHL1    C4 4001   2.376   5.475   6.882  0.0026  0.1265 -0.8097
   55CHL1   H4A 4002   2.337   5.579   6.874  1.1803  0.7661  1.1220
   55CHL1   H4B 4003   2.320   5.406   6.815 -0.8483 -1.3530  1.3036
   55CHL1    C5 4004   2.355   5.448   7.028  0.2848 -0.4538 -0.4931
   55CHL1    C6 4005   2.268   5.343   7.062 -0.2971  0.1101  0.6778
   55CHL1    H6 4006   2.211   5.283   6.990  2.6337 -1.6028 -0.3877
   55CHL1    C7 4007   2.238   5.305   7.205 -0.2984  0.1950  0.4892
   55CHL1   H7A 4008   2.129   5.292   7.220 -0.3162 -1.0891 -0.5609
   55CHL1   H7B 4009   2.282   5.205   7.224 -0.4560 -0.2767 -1.3994
   55CHL1    C8 4010   2.307   5.406   7.307  0.1334  0.0904  0.1380
   55CHL1    H8 4011   2.235   5.490   7.309 -0.9577 -0.7435 -1.5676
   55CHL1   C14 4012   2.317   5.340   7.443 -0.4285 -0.9981  0.1728
   55CHL1   H14 4013   2.385   5.254   7.426  1.2793  0.3205  0.0243
   55CHL1   C15 4014   2.189   5.275   7.505  0.6597 -0.7498  0.5961
   55CHL1  H15A 4015   2.096   5.330   7.478 -1.0373 -3.6215  0.1761
   55CHL1  H15B 4016   2.170   5.169   7.478  1.9138 -0.8746  0.1269
   55CHL1   C16 4017   2.211   5.276   7.656  0.2311 -0.9322 -0.0079
   55CHL1  H16A 4018   2.140   5.348   7.702  1.6900  1.1755 -0.8711
   55CHL1  H16B 4019   2.209   5.172   7.695 -0.8231 -1.7225 -2.0621
   55CHL1   C17 4020   2.355   5.339   7.679  0.1450  0.2712  0.7388
   55CHL1   H17 4021   2.420   5.252   7.655  0.0740  0.5574 -0.5324
   55CHL1   C13 4022   2.378   5.429   7.554 -0.3728 -0.7064 -1.0552
   55CHL1   C18 4023   2.309   5.565   7.574 -0.0811 -0.0855  0.1759
   55CHL1  H18A 4024   2.368   5.630   7.643  2.0849 -0.3845 -1.2724
   55CHL1  H18B 4025   2.292   5.617   7.477  3.5100  2.7773  0.8230
   55CHL1  H18C 4026   2.209   5.556   7.620 -0.1864  1.5110  0.3349
   55CHL1   C12 4027   2.527   5.439   7.504  0.4176 -0.3920 -0.4274
   55CHL1  H12A 4028   2.590   5.499   7.574 -0.2804 -0.7714  0.5396
   55CHL1  H12B 4029   2.562   5.333   7.495 -2.0142 -1.4771  1.7786
   55CHL1   C11 4030   2.529   5.511   7.370 -0.0139 -0.3653  0.3035
   55CHL1  H11A 4031   2.493   5.615   7.381  1.1459  0.0536  0.3286
   55CHL1  H11B 4032   2.629   5.520   7.322  0.1022  0.7010  0.7351
   55CHL1    C9 4033   2.448   5.444   7.263 -0.1398  0.4332 -0.3495
   55CHL1    H9 4034   2.493   5.344   7.241 -1.3739 -0.1339 -0.3769
   55CHL1   C10 4035   2.444   5.527   7.134 -0.2053  0.3893  0.6806
   55CHL1   C19 4036   2.382   5.669   7.147  0.0604 -0.3749 -0.2107
   55CHL1  H19A 4037   2.282   5.677   7.194 -0.2966 -0.0379 -1.0017
   55CHL1  H19B 4038   2.445   5.742   7.202 -2.7803  1.4550  0.8414
   55CHL1  H19C 4039   2.372   5.707   7.043  0.8797  1.4183  0.3197
   55CHL1    C1 4040   2.584   5.527   7.069 -0.2392  0.3563  0.1419
   55CHL1   H1A 4041   2.650   5.595   7.127  0.0431  0.2147 -0.0114
   55CHL1   H1B 4042   2.614   5.420   7.065 -1.5638  0.0017 -1.0677
   55CHL1    C2 4043   2.594   5.577   6.930  0.0347 -0.2862 -0.0740
   55CHL1   H2A 4044   2.704   5.586   6.918  0.2105  1.0803  1.9388
   55CHL1   H2B 4045   2.559   5.682   6.918  1.0696  0.0196 -0.5291
   55CHL1   C20 4046   2.376   5.386   7.821 -0.1382  0.0023 -0.0353
   55CHL1   H20 4047   2.305   5.469   7.843 -1.8852 -1.6424  0.7891
   55CHL1   C21 4048   2.513   5.450   7.842 -0.3905 -0.2199  0.2579
   55CHL1  H21A 4049   2.534   5.480   7.946  0.8822  0.7584 -0.2597
   55CHL1  H21B 4050   2.504   5.548   7.789 -0.8772  1.1322  2.7024
   55CHL1  H21C 4051   2.605   5.404   7.801 -0.7996 -0.5104 -0.3595
   55CHL1   C22 4052   2.359   5.281   7.933 -0.5412  0.4589 -0.1799
   55CHL1  H22A 4053   2.281   5.210   7.897  0.4798 -1.8992  1.9958
   55CHL1  H22B 4054   2.451   5.221   7.948 -0.5888  0.0630 -1.3589
   55CHL1   C23 4055   2.317   5.344   8.062 -0.2569 -0.3785 -0.6314
   55CHL1  H23A 4056   2.407   5.398   8.100 -0.4435 -0.0448 -0.6631
   55CHL1  H23B 4057   2.248   5.428   8.042  0.9052  0.3365 -1.8068
   55CHL1   C24 4058   2.278   5.244   8.179  0.2989  0.9325 -0.1970
   55CHL1  H24A 4059   2.183   5.191   8.156  0.9141 -0.5104  0.4776
   55CHL1  H24B 4060   2.359   5.169   8.187 -1.1618 -0.6840  0.0024
   55CHL1   C25 4061   2.256   5.315   8.314 -0.0272  0.3393 -0.8930
   55CHL1   H25 4062   2.343   5.379   8.341 -1.3729  0.6650  3.4405
   55CHL1   C26 4063   2.127   5.397   8.322  0.0982 -0.3850 -0.2433
   55CHL1  H26A 4064   2.108   5.443   8.421 -1.5583 -1.5823  0.0325
   55CHL1  H26B 4065   2.129   5.479   8.247  0.8121 -0.4638 -0.3146
   55CHL1  H26C 4066   2.040   5.331   8.299 -1.2198  1.3809 -0.4993
   55CHL1   C27 4067   2.240   5.205   8.432  0.8752 -0.7358 -0.6284
   55CHL1  H27A 4068   2.333   5.145   8.443  0.9474 -0.3806  1.0805
   55CHL1  H27B 4069   2.222   5.260   8.527  0.0902 -1.1011 -0.5538
   55CHL1  H27C 4070   2.156   5.134   8.416 -0.4969  0.3884  1.1338
   56CHL1    C3 4071   1.088   2.920   6.737 -0.2705 -0.1363  0.6754
   56CHL1    H3 4072   1.193   2.955   6.752  0.4891 -0.4369 -2.9578
   56CHL1    O3 4073   1.054   2.890   6.603  0.4165 -0.5926  0.2559
   56CHL1   H3' 4074   1.074   2.796   6.597  0.3822 -0.5516 -0.6937
   56CHL1    C4 4075   1.069   2.793   6.819  0.0197  0.1307 -0.2829
   56CHL1   H4A 4076   0.967   2.751   6.812  1.1236 -3.4401  2.2194
   56CHL1   H4B 4077   1.140   2.713   6.790  2.6099  1.5474  1.6647
   56CHL1    C5 4078   1.091   2.825   6.966  0.0573 -0.6865  0.9179
   56CHL1    C6 4079   1.170   2.748   7.036 -0.0740  1.0054 -0.7282
   56CHL1    H6 4080   1.221   2.662   6.989 -0.1555 -0.1365  1.1631
   56CHL1    C7 4081   1.200   2.770   7.183 -0.4660  0.6834 -0.0333
   56CHL1   H7A 4082   1.224   2.671   7.228  0.7749  0.4533 -1.1419
   56CHL1   H7B 4083   1.281   2.845   7.193  1.7153 -1.4179 -0.9620
   56CHL1    C8 4084   1.073   2.832   7.251  0.7308 -0.1745 -0.3369
   56CHL1    H8 4085   0.991   2.758   7.241  1.2395 -0.5857 -1.5956
   56CHL1   C14 4086   1.103   2.852   7.398 -0.6526  0.1331 -0.4719
   56CHL1   H14 4087   1.191   2.921   7.397 -0.9833  0.5762  0.1679
   56CHL1   C15 4088   1.150   2.730   7.484  0.3398 -0.1273  0.2506
   56CHL1  H15A 4089   1.077   2.647   7.484  1.6975 -1.4061  1.7654
   56CHL1  H15B 4090   1.248   2.682   7.463  0.1632  0.2313 -1.4635
   56CHL1   C16 4091   1.135   2.785   7.625  0.6806 -0.2708  0.1213
   56CHL1  H16A 4092   1.077   2.711   7.685  0.1744  0.4414  0.5267
   56CHL1  H16B 4093   1.235   2.809   7.666  1.2314  2.0167 -2.3203
   56CHL1   C17 4094   1.057   2.930   7.611  0.0878 -0.6862  0.2002
   56CHL1   H17 4095   1.135   3.009   7.609 -0.0580 -0.4820  1.4969
   56CHL1   C13 4096   0.998   2.918   7.473  0.0732 -0.2103  0.1465
   56CHL1   C18 4097   0.875   2.826   7.481 -0.4043 -0.8567 -0.1341
   56CHL1  H18A 4098   0.786   2.871   7.529 -0.5631 -1.9779  0.6704
   56CHL1  H18B 4099   0.842   2.801   7.377  0.0005  0.4006 -0.5770
   56CHL1  H18C 4100   0.894   2.733   7.539 -0.2799 -0.7810 -0.0568
   56CHL1   C12 4101   0.972   3.056   7.409 -0.1939 -0.4307 -0.2964
   56CHL1  H12A 4102   0.887   3.102   7.464 -1.3688 -0.3148 -2.1152
   56CHL1  H12B 4103   1.070   3.108   7.412 -0.6828  0.4958  0.3140
   56CHL1   C11 4104   0.934   3.045   7.262  0.6365 -0.1529  0.4515
   56CHL1  H11A 4105   0.837   2.992   7.252  1.0843 -1.1105  1.0163
   56CHL1  H11B 4106   0.929   3.142   7.207 -0.8476 -0.1074  0.6384
   56CHL1    C9 4107   1.040   2.965   7.180 -0.4024  0.1676 -0.7285
   56CHL1    H9 4108   1.133   3.026   7.182 -0.5034  0.3031  0.0357
   56CHL1   C10 4109   1.003   2.933   7.032 -0.5489 -0.2052 -0.7082
   56CHL1   C19 4110   0.861   2.887   7.037  0.2436 -0.4147  0.3840
   56CHL1  H19A 4111   0.833   2.809   7.110  0.6137 -2.2955 -1.3956
   56CHL1  H19B 4112   0.795   2.976   7.048 -0.1261 -0.6290 -0.0965
   56CHL1  H19C 4113   0.828   2.856   6.936 -0.8065  3.2699 -0.5588
   56CHL1    C1 4114   1.023   3.064   6.936  0.5858 -0.1633 -0.9200
   56CHL1   H1A 4115   0.956   3.148   6.962 -0.9060 -0.5070 -3.3888
   56CHL1   H1B 4116   1.128   3.094   6.956  0.0218  0.0401  2.2999
   56CHL1    C2 4117   0.998   3.037   6.788  0.7136  0.6445 -0.4310
   56CHL1   H2A 4118   1.019   3.138   6.745 -0.9476  0.9972 -0.5031
   56CHL1   H2B 4119   0.890   3.019   6.772  0.1611  0.9484  2.4947
   56CHL1   C20 4120   0.972   2.951   7.741 -0.2485 -0.6832  0.1754
   56CHL1   H20 4121   0.906   2.864   7.758 -1.7895  0.5920  1.0313
   56CHL1   C21 4122   0.880   3.076   7.732 -0.8443 -0.6291  0.0796
   56CHL1  H21A 4123   0.821   3.093   7.824 -1.1861 -1.4235  0.0143
   56CHL1  H21B 4124   0.807   3.070   7.649 -1.1467  2.1068  0.0318
   56CHL1  H21C 4125   0.949   3.163   7.728 -0.9029 -0.4991  1.4380
   56CHL1   C22 4126   1.065   2.966   7.871  0.2297  0.3409 -0.4362
   56CHL1  H22A 4127   1.120   2.870   7.859 -0.1020  0.2894 -1.7140
   56CHL1  H22B 4128   1.127   3.058   7.862 -1.3615  1.8333  2.6178
   56CHL1   C23 4129   0.993   2.966   8.006  0.5253 -0.0466  0.2753
   56CHL1  H23A 4130   0.935   3.061   8.008 -0.2001 -0.4506 -0.5139
   56CHL1  H23B 4131   0.921   2.881   7.998  0.7815 -0.0862 -2.5665
   56CHL1   C24 4132   1.081   2.942   8.132  0.7081  0.0129  0.4255
   56CHL1  H24A 4133   1.127   2.841   8.124  0.4968  0.0468 -2.0622
   56CHL1  H24B 4134   1.161   3.019   8.122  1.6407 -0.6381  2.4068
   56CHL1   C25 4135   0.999   2.969   8.264  0.2733 -0.2194  0.4116
   56CHL1   H25 4136   0.907   2.907   8.266 -0.6131  1.0368  2.5743
   56CHL1   C26 4137   1.074   2.926   8.390 -0.6136 -0.4658  0.7877
   56CHL1  H26A 4138   1.091   2.816   8.394 -1.6371 -0.6935 -0.5291
   56CHL1  H26B 4139   1.031   2.972   8.482  0.7986 -1.1897  1.8556
   56CHL1  H26C 4140   1.176   2.967   8.377 -1.0502  0.5680  0.5655
   56CHL1   C27 4141   0.969   3.119   8.274  0.1794  0.6984 -0.3251
   56CHL1  H27A 4142   0.913   3.141   8.367  0.2064  1.3537 -0.4607
   56CHL1  H27B 4143   1.059   3.184   8.268  0.7740  0.0440  0.8968
   56CHL1  H27C 4144   0.909   3.161   8.191 -2.4271 -0.5605  0.8301
   57SAPC     N 4145   2.062   4.751  11.087  0.3947  0.2122  0.2331
   57SAPC   C12 4146   2.131   4.828  10.971 -0.0834  0.2735 -0.5613
   57SAPC  H12A 4147   2.235   4.803  10.957 -0.1542  0.6150 -1.7682
   57SAPC  H12B 4148   2.119   4.933  10.992 -1.3394  0.2835 -1.2731
   57SAPC   C13 4149   1.921   4.812  11.104 -0.9006  0.1718 -0.3263
   57SAPC  H13A 4150   1.866   4.792  11.013 -2.1030  0.7166  0.2515
   57SAPC  H13B 4151   1.859   4.770  11.181 -0.7312 -1.2864 -0.9603
   57SAPC  H13C 4152   1.930   4.920  11.112 -0.5095  0.0788  0.5030
   57SAPC   C14 4153   2.048   4.604  11.060  0.5982  0.1948 -0.1168
   57SAPC  H14A 4154   2.023   4.538  11.142  1.6243 -1.5653 -1.1589
   57SAPC  H14B 4155   1.987   4.587  10.973  2.9563  2.2097 -2.3420
   57SAPC  H14C 4156   2.132   4.556  11.012 -0.0667 -0.1326 -0.9748
   57SAPC   C15 4157   2.135   4.779  11.214 -1.0363  1.1479 -0.4940
   57SAPC  H15A 4158   2.162   4.883  11.230  0.6468  0.8892 -1.4522
   57SAPC  H15B 4159   2.074   4.744  11.296  2.3025 -0.2117  1.6126
   57SAPC  H15C 4160   2.227   4.723  11.221 -2.6504 -1.9487 -2.0358
   57SAPC   C11 4161   2.067   4.821  10.832 -0.4404 -0.2118  0.0535
   57SAPC  H11A 4162   2.069   4.714  10.802  0.2504 -0.6074  1.4295
   57SAPC  H11B 4163   2.132   4.871  10.757  0.2309 -2.6301 -1.0445
   57SAPC     P 4164   1.901   5.019  10.799  0.3000  0.3477  0.0971
   57SAPC   O13 4165   1.756   5.050  10.828  0.0366  0.3162 -0.0548
   57SAPC   O14 4166   2.004   5.102  10.864  0.1380 -0.0648 -0.4517
   57SAPC   O12 4167   1.929   4.870  10.832  0.0470 -0.2002  0.5467
   57SAPC   O11 4168   1.924   5.023  10.643  0.3442 -0.0718 -0.5724
   57SAPC    C1 4169   1.871   4.909  10.569 -0.0998  0.3811  0.3577
   57SAPC    HA 4170   1.917   4.809  10.588  1.0070  0.2047 -2.6185
   57SAPC    HB 4171   1.765   4.889  10.594  0.1701  0.8071  1.9495
   57SAPC    C2 4172   1.897   4.930  10.423  0.6360  0.4449  0.9615
   57SAPC    HS 4173   1.867   4.839  10.366  0.0270  2.1658 -1.5969
   57SAPC   O21 4174   2.033   4.964  10.400 -0.4044 -0.2586 -0.3771
   57SAPC   C21 4175   2.114   4.865  10.410  0.2351 -0.1600 -0.4751
   57SAPC   O22 4176   2.087   4.747  10.427  0.5215 -0.1451  0.0205
   57SAPC   C22 4177   2.247   4.926  10.380  0.7708 -0.2002  0.5050
   57SAPC   H2R 4178   2.277   5.009  10.447 -0.9633  1.4737 -0.6967
   57SAPC   H2S 4179   2.328   4.850  10.388 -0.9470 -2.4048 -1.6930
   57SAPC    C3 4180   1.816   5.041  10.347 -0.6638  0.4348  0.3618
   57SAPC    HX 4181   1.830   5.143  10.390  0.6929  0.2168  0.4868
   57SAPC    HY 4182   1.709   5.024  10.370 -0.4990 -2.3156 -0.6184
   57SAPC   O31 4183   1.834   5.011  10.209  0.3153 -0.5484 -0.3220
   57SAPC   C31 4184   1.909   5.093  10.135  0.1921  0.3052 -0.6084
   57SAPC   O32 4185   1.968   5.191  10.177 -0.1144 -0.6759  0.5131
   57SAPC   C32 4186   1.898   5.052   9.992 -0.1161 -0.0448  0.9640
   57SAPC   H2X 4187   1.800   5.092   9.958  0.5894  1.1943  0.3163
   57SAPC   H2Y 4188   1.896   4.941   9.991 -0.2311 -0.0425 -0.1737
   57SAPC   C23 4189   2.256   4.989  10.232  0.0543  0.1653  0.9317
   57SAPC   H3R 4190   2.342   5.059  10.242 -0.0570  0.3299  0.7669
   57SAPC   H3S 4191   2.171   5.054  10.200 -0.3223 -0.4366  0.7034
   57SAPC   C24 4192   2.285   4.889  10.118 -0.0890 -0.3435  1.0702
   57SAPC   H4R 4193   2.359   4.809  10.141  1.1653 -0.1370 -1.8409
   57SAPC   H4S 4194   2.338   4.942  10.036 -0.2305 -1.1918  0.4216
   57SAPC   C25 4195   2.160   4.811  10.079  0.2868 -0.7792 -0.3637
   57SAPC   H5R 4196   2.112   4.769  10.169 -1.8825  0.3961 -0.9038
   57SAPC   C26 4197   2.131   4.766   9.957  0.6796 -0.2800 -0.6011
   57SAPC   H6R 4198   2.043   4.704   9.936 -1.5089  2.4547 -0.1367
   57SAPC   C27 4199   2.217   4.777   9.837 -0.5898 -0.1899  0.4426
   57SAPC   H7R 4200   2.274   4.871   9.845 -0.9422  0.1541 -0.7602
   57SAPC   H7S 4201   2.170   4.777   9.736  0.7529 -3.1562 -0.3031
   57SAPC   C28 4202   2.312   4.661   9.830  0.5225 -0.0738  0.6991
   57SAPC   H8R 4203   2.363   4.636   9.925 -0.6333  0.9594  1.6104
   57SAPC   C29 4204   2.338   4.585   9.719  1.0318  0.0101 -0.1879
   57SAPC   H9R 4205   2.414   4.507   9.735  0.9351 -0.0352  0.0659
   57SAPC  C210 4206   2.273   4.592   9.582 -0.6072 -0.6174  0.5226
   57SAPC  H10R 4207   2.291   4.695   9.544 -1.5007 -0.4457  0.5576
   57SAPC  H10S 4208   2.163   4.595   9.592 -0.4847  1.8748  2.1747
   57SAPC  C211 4209   2.323   4.482   9.489  0.3325 -0.4832  0.7306
   57SAPC  H11R 4210   2.390   4.410   9.537 -2.0698 -3.2853  0.1949
   57SAPC  C212 4211   2.283   4.474   9.359 -0.0152  0.1745  0.1249
   57SAPC  H12R 4212   2.322   4.396   9.293 -1.8526 -1.0714  0.4478
   57SAPC  C213 4213   2.185   4.576   9.301  0.1533  0.9443  0.0862
   57SAPC  H13R 4214   2.177   4.670   9.359  2.2866  2.2290 -1.5545
   57SAPC  H13S 4215   2.084   4.532   9.296 -0.0181  1.4922 -1.8040
   57SAPC  C214 4216   2.229   4.627   9.164 -0.1794  0.1944  0.8800
   57SAPC  H14R 4217   2.291   4.718   9.169 -0.5666  0.4924  0.2837
   57SAPC  C215 4218   2.193   4.574   9.049  0.2436  0.1267 -0.2682
   57SAPC  H15R 4219   2.228   4.626   8.958  0.4169  0.2470 -0.1343
   57SAPC  C216 4220   2.101   4.456   9.036  0.3677 -0.4804  0.9693
   57SAPC  H16R 4221   2.044   4.449   8.941  1.3619 -1.4587  0.4241
   57SAPC  H16S 4222   2.023   4.452   9.115  1.1024 -1.7319  1.6742
   57SAPC  C217 4223   2.178   4.321   9.043  0.2011 -0.1222 -0.5978
   57SAPC  H17R 4224   2.155   4.289   9.147 -3.0859  1.5644 -0.6921
   57SAPC  H17S 4225   2.289   4.332   9.041  0.4562 -1.7772  0.9567
   57SAPC  C218 4226   2.142   4.221   8.932 -0.6838 -0.3259 -0.2959
   57SAPC  H18R 4227   2.185   4.262   8.839  1.3715  1.2008  1.2357
   57SAPC  H18S 4228   2.031   4.218   8.927 -0.6323 -0.9826 -1.4232
   57SAPC  C219 4229   2.212   4.084   8.948  0.1889 -0.5224  0.1050
   57SAPC  H19R 4230   2.182   4.061   9.053  0.8970  2.5879  1.0960
   57SAPC  H19S 4231   2.322   4.092   8.956  0.3954 -2.7034 -0.0621
   57SAPC  C220 4232   2.167   3.978   8.854  0.8595 -0.2463  0.0451
   57SAPC  H20R 4233   2.186   3.877   8.896  0.6415  0.0706  0.9373
   57SAPC  H20S 4234   2.210   3.975   8.751  0.4331  0.3634 -0.1562
   57SAPC  H20T 4235   2.057   3.974   8.847  0.5947  1.7217  1.8463
   57SAPC   C33 4236   2.002   5.122   9.904 -0.6022 -1.1473  0.7691
   57SAPC   H3X 4237   2.104   5.124   9.949 -0.8105 -1.6964  1.2735
   57SAPC   H3Y 4238   1.983   5.231   9.891  2.4737 -0.4021  1.5628
   57SAPC   C34 4239   2.004   5.057   9.763 -0.0003  0.4546 -0.3617
   57SAPC   H4X 4240   1.905   5.080   9.719  0.0881 -0.2013 -0.9106
   57SAPC   H4Y 4241   2.010   4.946   9.763 -1.4696  0.2443  3.0030
   57SAPC   C35 4242   2.111   5.115   9.672 -0.3569 -0.4165  0.3166
   57SAPC   H5X 4243   2.208   5.098   9.723  0.3010 -1.8001 -1.2932
   57SAPC   H5Y 4244   2.090   5.223   9.657  0.8526 -0.2390 -0.2218
   57SAPC   C36 4245   2.126   5.046   9.534  0.3154  0.0487 -0.6174
   57SAPC   H6X 4246   2.141   4.938   9.552 -3.1399 -0.5395 -0.4673
   57SAPC   H6Y 4247   2.218   5.080   9.481  0.4423  0.2925 -0.2446
   57SAPC   C37 4248   2.004   5.069   9.431 -0.8044 -0.3446 -0.4711
   57SAPC   H7X 4249   1.992   5.177   9.411  1.1858 -0.1083 -0.5395
   57SAPC   H7Y 4250   1.919   5.026   9.489 -2.0790  1.0908 -1.2062
   57SAPC   C38 4251   2.020   5.010   9.291  0.1836 -0.1029 -0.6308
   57SAPC   H8X 4252   2.097   4.930   9.294  0.3679  0.0951 -0.0515
   57SAPC   H8Y 4253   2.049   5.099   9.232  0.2399 -0.7020 -1.5415
   57SAPC   C39 4254   1.891   4.959   9.241 -0.2038 -1.0786  0.7541
   57SAPC   H9X 4255   1.894   4.965   9.130 -0.1682  0.9641  0.8281
   57SAPC   H9Y 4256   1.812   5.030   9.276  0.0077 -0.6681  0.3961
   57SAPC  C310 4257   1.849   4.812   9.273 -0.1931  0.0119 -0.1873
   57SAPC  H10X 4258   1.840   4.801   9.383 -1.4990  0.9491 -0.1819
   57SAPC  H10Y 4259   1.935   4.750   9.238  1.4970  1.6857  0.8145
   57SAPC  C311 4260   1.729   4.747   9.202  0.5931  0.7544  1.0848
   57SAPC  H11X 4261   1.632   4.800   9.217 -0.9625 -1.8810  0.8165
   57SAPC  H11Y 4262   1.707   4.649   9.248  0.6729  0.9121  1.4620
   57SAPC  C312 4263   1.742   4.734   9.052  0.2030  0.5960  0.0126
   57SAPC  H12X 4264   1.851   4.733   9.031 -0.1727  1.6176 -2.3981
   57SAPC  H12Y 4265   1.706   4.820   8.991 -0.5755  0.9497  0.9455
   57SAPC  C313 4266   1.677   4.615   8.989  0.1600 -0.5063 -0.4245
   57SAPC  H13X 4267   1.566   4.629   8.992  0.2439  0.0317  0.2287
   57SAPC  H13Y 4268   1.707   4.528   9.051 -1.0434 -1.2269 -0.8090
   57SAPC  C314 4269   1.715   4.583   8.839  0.5162 -0.0962  0.3911
   57SAPC  H14X 4270   1.826   4.580   8.838  0.5703  1.1320 -0.7745
   57SAPC  H14Y 4271   1.692   4.676   8.782  0.2021 -0.5319 -0.2007
   57SAPC  C315 4272   1.643   4.464   8.776  0.0701  0.6909 -0.0238
   57SAPC  H15X 4273   1.538   4.494   8.757 -0.2443 -0.0323  0.5423
   57SAPC  H15Y 4274   1.637   4.380   8.848 -1.0658  1.0024  0.2613
   57SAPC  C316 4275   1.717   4.417   8.647 -0.8022  0.2398 -0.0834
   57SAPC  H16X 4276   1.826   4.410   8.667 -0.5897  0.5973 -1.0631
   57SAPC  H16Y 4277   1.702   4.491   8.565  2.8720  0.3832 -0.8221
   57SAPC  C317 4278   1.676   4.282   8.590  0.6182  0.2489 -0.4680
   57SAPC  H17X 4279   1.651   4.214   8.674  0.1666  0.4368 -0.4501
   57SAPC  H17Y 4280   1.765   4.240   8.538  0.2250 -0.4251 -0.6049
   57SAPC  C318 4281   1.565   4.295   8.491  0.7434 -0.1354  0.0618
   57SAPC  H18X 4282   1.598   4.350   8.401  1.2520  2.6391  1.8340
   57SAPC  H18Y 4283   1.482   4.354   8.536  1.3049 -0.2816  1.3275
   57SAPC  H18Z 4284   1.523   4.193   8.476 -3.8970  1.8431 -2.4053
   58SAPC     N 4285   4.587   2.799  10.539 -0.5284 -0.3119 -0.0941
   58SAPC   C12 4286   4.681   2.788  10.665  0.3915 -0.1157 -0.2257
   58SAPC  H12A 4287   4.750   2.710  10.636  2.5519  1.4672  0.5050
   58SAPC  H12B 4288   4.629   2.750  10.751  1.4032  2.2452  1.5196
   58SAPC   C13 4289   4.507   2.673  10.510 -0.0409 -0.6335 -0.2075
   58SAPC  H13A 4290   4.443   2.684  10.424 -0.8469  2.9218  0.6917
   58SAPC  H13B 4291   4.579   2.601  10.474 -1.4939 -1.5739 -1.3442
   58SAPC  H13C 4292   4.465   2.639  10.604 -1.7361 -0.4889 -0.8671
   58SAPC   C14 4293   4.487   2.899  10.580 -0.0594  0.1068 -0.1608
   58SAPC  H14A 4294   4.442   2.943  10.492  0.7885 -2.0822 -1.7879
   58SAPC  H14B 4295   4.410   2.875  10.652  0.5238  2.5651  1.3786
   58SAPC  H14C 4296   4.543   2.980  10.623 -0.8974 -0.4451  2.1375
   58SAPC   C15 4297   4.659   2.851  10.416 -0.4935 -0.0015 -0.3602
   58SAPC  H15A 4298   4.741   2.916  10.445 -2.0286  2.1093 -0.5287
   58SAPC  H15B 4299   4.695   2.766  10.361 -1.2370 -1.4021  1.2025
   58SAPC  H15C 4300   4.590   2.909  10.356 -0.6839 -0.2997 -0.4286
   58SAPC   C11 4301   4.758   2.903  10.726 -0.1731 -0.3592 -0.0117
   58SAPC  H11A 4302   4.797   2.871  10.825  0.2856  1.2324  0.3448
   58SAPC  H11B 4303   4.681   2.980  10.750  1.6129  2.3319 -2.2786
   58SAPC     P 4304   4.989   2.878  10.616  0.4467 -0.1155 -0.1203
   58SAPC   O13 4305   5.102   2.954  10.674 -0.7959 -0.0141 -0.6648
   58SAPC   O14 4306   4.972   2.732  10.650 -0.6836 -0.3546 -0.2191
   58SAPC   O12 4307   4.854   2.955  10.629 -0.3083  0.6999 -1.0181
   58SAPC   O11 4308   5.002   2.890  10.460  0.5370  0.0556 -0.0360
   58SAPC    C1 4309   5.069   3.008  10.410  0.2575  0.6420 -0.3547
   58SAPC    HA 4310   5.021   3.100  10.449 -0.1067  0.6194 -0.7392
   58SAPC    HB 4311   5.176   3.008  10.440  0.1964  1.3694 -0.1297
   58SAPC    C2 4312   5.067   3.023  10.257 -0.1534  0.8210  0.1822
   58SAPC    HS 4313   4.965   3.064  10.237  0.0840  0.7811 -1.1677
   58SAPC   O21 4314   5.096   2.896  10.190  0.0902 -0.2093  0.7830
   58SAPC   C21 4315   4.981   2.827  10.165  0.6603 -0.4130  0.5706
   58SAPC   O22 4316   4.869   2.875  10.167  0.9425 -0.3812  0.1519
   58SAPC   C22 4317   5.011   2.679  10.132 -0.2157  0.4183 -0.3201
   58SAPC   H2R 4318   4.914   2.625  10.125  0.4272 -0.6039 -1.6801
   58SAPC   H2S 4319   5.050   2.674  10.028 -0.9604 -3.4566 -0.5575
   58SAPC    C3 4320   5.174   3.132  10.220 -0.4284  0.1916 -0.3409
   58SAPC    HX 4321   5.277   3.090  10.213 -0.3707  0.0659  0.9723
   58SAPC    HY 4322   5.174   3.219  10.288 -1.8052 -0.3605  0.4007
   58SAPC   O31 4323   5.154   3.185  10.089 -0.4187  0.2953 -0.4939
   58SAPC   C31 4324   5.093   3.306  10.084  0.0900  0.5095 -0.0620
   58SAPC   O32 4325   5.042   3.368  10.179  0.0090  0.1335 -0.1330
   58SAPC   C32 4326   5.089   3.363   9.941  0.1429  0.0730  0.6651
   58SAPC   H2X 4327   5.077   3.472   9.961  0.0562  0.4926 -1.4835
   58SAPC   H2Y 4328   4.996   3.329   9.891  0.4930 -1.6461  1.1191
   58SAPC   C23 4329   5.103   2.611  10.234  0.0904  0.0719 -0.2000
   58SAPC   H3R 4330   5.057   2.618  10.335  0.8508 -0.7892  0.2243
   58SAPC   H3S 4331   5.199   2.666  10.247  0.3440 -0.4798  0.3182
   58SAPC   C24 4332   5.137   2.461  10.198  0.2585 -0.5070  0.0315
   58SAPC   H4R 4333   5.224   2.435  10.262 -0.7001  0.9509  2.0468
   58SAPC   H4S 4334   5.168   2.474  10.092  1.4997 -1.8147  0.2167
   58SAPC   C25 4335   5.031   2.358  10.208 -0.1209  0.1182  0.3719
   58SAPC   H5R 4336   5.006   2.326  10.310  1.2296 -3.6261 -0.2979
   58SAPC   C26 4337   4.981   2.278  10.112  0.2010  0.5552  0.2509
   58SAPC   H6R 4338   4.896   2.215  10.142  0.3973  0.3318  0.3390
   58SAPC   C27 4339   5.031   2.269   9.970  0.4305 -0.9047  0.8953
   58SAPC   H7R 4340   5.021   2.168   9.925 -2.6072 -0.0820 -0.5216
   58SAPC   H7S 4341   5.134   2.309   9.962 -0.6753  2.1127  0.1133
   58SAPC   C28 4342   4.951   2.376   9.897 -0.0066 -0.2119  0.6703
   58SAPC   H8R 4343   4.847   2.365   9.931  1.2465 -1.7137  4.6585
   58SAPC   C29 4344   4.988   2.464   9.804 -0.5375  0.7659  0.4123
   58SAPC   H9R 4345   4.914   2.541   9.774 -0.0480  1.6824  1.4905
   58SAPC  C210 4346   5.122   2.476   9.735 -0.9085 -0.5484  0.1650
   58SAPC  H10R 4347   5.197   2.460   9.815 -0.7003 -0.1306  0.0580
   58SAPC  H10S 4348   5.144   2.573   9.685  1.5280 -0.3527  1.4712
   58SAPC  C211 4349   5.139   2.373   9.625 -0.7799  0.0188 -0.3227
   58SAPC  H11R 4350   5.112   2.270   9.655  0.4711 -0.3512 -0.4131
   58SAPC  C212 4351   5.198   2.372   9.505 -0.3313 -0.5488 -0.4495
   58SAPC  H12R 4352   5.198   2.277   9.450 -0.2651 -1.2876  0.7855
   58SAPC  C213 4353   5.263   2.493   9.449  0.4094  0.2927  0.9947
   58SAPC  H13R 4354   5.358   2.469   9.396  0.1959  0.1193  0.6892
   58SAPC  H13S 4355   5.285   2.574   9.522  0.3124  0.6309  0.6533
   58SAPC  C214 4356   5.165   2.544   9.349  0.3935 -0.8570 -0.0151
   58SAPC  H14R 4357   5.063   2.568   9.385  0.7594  1.8698 -0.5478
   58SAPC  C215 4358   5.182   2.556   9.219 -0.1870 -0.1228 -1.0085
   58SAPC  H15R 4359   5.103   2.618   9.176 -1.8675  0.3425  2.3824
   58SAPC  C216 4360   5.307   2.506   9.145 -0.7775  0.6604 -0.2538
   58SAPC  H16R 4361   5.396   2.481   9.207  0.1469  0.3145 -1.6581
   58SAPC  H16S 4362   5.346   2.580   9.071 -2.3763 -1.2772 -3.2104
   58SAPC  C217 4363   5.274   2.372   9.069  0.7648 -0.0698  0.4614
   58SAPC  H17R 4364   5.186   2.381   9.002  1.6656 -3.4038 -1.3832
   58SAPC  H17S 4365   5.248   2.293   9.143  1.9615 -1.7267 -0.8122
   58SAPC  C218 4366   5.371   2.307   8.977  0.2351  0.0804  0.0315
   58SAPC  H18R 4367   5.443   2.247   9.037  1.5513 -0.0014 -1.5708
   58SAPC  H18S 4368   5.436   2.388   8.938 -1.4203  0.8848 -1.1513
   58SAPC  C219 4369   5.300   2.245   8.857 -0.5905 -0.2183  0.2707
   58SAPC  H19R 4370   5.220   2.174   8.884  0.4904 -0.8450  1.9542
   58SAPC  H19S 4371   5.376   2.181   8.807 -0.2094  0.5403 -0.1482
   58SAPC  C220 4372   5.250   2.348   8.760 -0.4712  0.0077 -0.5401
   58SAPC  H20R 4373   5.201   2.312   8.667 -0.3690  1.4916 -1.2028
   58SAPC  H20S 4374   5.336   2.412   8.731  1.3076 -1.7555  0.5794
   58SAPC  H20T 4375   5.171   2.410   8.808 -0.0442 -0.6994  1.1575
   58SAPC   C33 4376   5.211   3.327   9.857 -0.0873 -0.3408 -0.5094
   58SAPC   H3X 4377   5.203   3.222   9.824  1.4258 -0.1334 -1.6706
   58SAPC   H3Y 4378   5.305   3.336   9.916 -1.3606 -0.5661  1.6682
   58SAPC   C34 4379   5.234   3.428   9.738  0.0051 -0.3189 -0.5835
   58SAPC   H4X 4380   5.282   3.517   9.783  0.8097 -1.1860  0.3373
   58SAPC   H4Y 4381   5.138   3.460   9.693  0.3205  0.2791 -0.8357
   58SAPC   C35 4382   5.315   3.380   9.615 -0.0646  0.6720 -0.8998
   58SAPC   H5X 4383   5.248   3.307   9.565  1.3248 -0.5605 -1.0430
   58SAPC   H5Y 4384   5.390   3.306   9.650 -1.0540 -0.5519 -1.2911
   58SAPC   C36 4385   5.382   3.483   9.519 -0.9797  0.5996  0.1888
   58SAPC   H6X 4386   5.492   3.468   9.529 -0.8625 -0.3019 -1.9776
   58SAPC   H6Y 4387   5.349   3.581   9.558  0.0293  0.4728  1.4204
   58SAPC   C37 4388   5.353   3.457   9.374  0.6777  0.6853  0.5195
   58SAPC   H7X 4389   5.385   3.352   9.358 -1.0372  0.2179  0.0099
   58SAPC   H7Y 4390   5.419   3.521   9.311  1.7156 -1.9355 -1.2523
   58SAPC   C38 4391   5.207   3.482   9.329  0.7682  0.5606  0.1430
   58SAPC   H8X 4392   5.171   3.586   9.344 -0.1640  0.2570  0.0725
   58SAPC   H8Y 4393   5.146   3.415   9.393  0.1607 -2.1349 -2.9520
   58SAPC   C39 4394   5.166   3.432   9.189 -0.8003 -0.2776 -0.1591
   58SAPC   H9X 4395   5.062   3.469   9.174 -0.7581  0.2525  0.7774
   58SAPC   H9Y 4396   5.149   3.322   9.183 -2.2201 -0.0657 -0.4961
   58SAPC  C310 4397   5.272   3.483   9.087  0.5327 -0.7026  0.0812
   58SAPC  H10X 4398   5.375   3.450   9.113  1.6127  2.2403 -0.0746
   58SAPC  H10Y 4399   5.270   3.594   9.084 -2.1111 -0.7158 -1.2901
   58SAPC  C311 4400   5.257   3.417   8.947  0.1493 -0.2889  0.6198
   58SAPC  H11X 4401   5.231   3.313   8.977  4.0915 -1.5491  0.2099
   58SAPC  H11Y 4402   5.347   3.396   8.886 -0.6020  0.8262 -0.9432
   58SAPC  C312 4403   5.150   3.480   8.863 -0.4536  0.6568 -0.9234
   58SAPC  H12X 4404   5.084   3.557   8.908 -0.4496  0.1490 -0.0366
   58SAPC  H12Y 4405   5.082   3.397   8.837 -0.5982  0.0746  1.1647
   58SAPC  C313 4406   5.226   3.543   8.738  1.0326 -0.4962  0.3867
   58SAPC  H13X 4407   5.291   3.461   8.702 -1.7032 -1.3932 -3.0977
   58SAPC  H13Y 4408   5.276   3.637   8.770  0.3751  0.2860 -0.8109
   58SAPC  C314 4409   5.128   3.567   8.626  0.5562  0.9467  0.5373
   58SAPC  H14X 4410   5.180   3.621   8.543  0.0205 -2.0746 -1.9468
   58SAPC  H14Y 4411   5.043   3.633   8.656  1.0796  1.3388  1.1896
   58SAPC  C315 4412   5.064   3.447   8.558 -0.4894  0.4200 -0.2596
   58SAPC  H15X 4413   5.111   3.363   8.613  1.9199  1.3451 -0.7680
   58SAPC  H15Y 4414   5.082   3.451   8.449 -0.0760  1.0053 -0.1755
   58SAPC  C316 4415   4.916   3.437   8.582  0.8169  0.1855 -0.8097
   58SAPC  H16X 4416   4.867   3.532   8.553  4.6237  2.4588 -0.4776
   58SAPC  H16Y 4417   4.891   3.424   8.689  2.1723  1.0610 -0.3568
   58SAPC  C317 4418   4.850   3.322   8.498  0.3107 -0.4905  0.1267
   58SAPC  H17X 4419   4.893   3.226   8.536 -0.1241 -0.3784  0.9317
   58SAPC  H17Y 4420   4.878   3.335   8.392  0.0479  0.4029  0.1594
   58SAPC  C318 4421   4.705   3.331   8.532  0.2054 -0.4741 -0.2869
   58SAPC  H18X 4422   4.685   3.307   8.638  0.8389 -0.5250 -0.1731
   58SAPC  H18Y 4423   4.653   3.249   8.478 -2.9985  1.1641  0.0405
   58SAPC  H18Z 4424   4.670   3.432   8.499  1.3890 -0.4416 -1.5438
   59SAPC     N 4425   6.782   5.017  11.283  0.0062  0.1157 -0.3526
   59SAPC   C12 4426   6.759   5.016  11.130  0.5684  0.2208 -0.1620
   59SAPC  H12A 4427   6.659   5.052  11.115  0.4349 -0.4416 -0.9294
   59SAPC  H12B 4428   6.756   4.916  11.090 -1.9025  0.0079  0.4540
   59SAPC   C13 4429   6.758   5.151  11.352 -0.3134  0.4148 -1.1063
   59SAPC  H13A 4430   6.831   5.222  11.318 -1.2547  1.1163 -1.7162
   59SAPC  H13B 4431   6.659   5.191  11.335 -0.3952  0.7788  0.1193
   59SAPC  H13C 4432   6.761   5.133  11.459 -3.2577 -0.2872 -1.0456
   59SAPC   C14 4433   6.689   4.929  11.358  0.1609  0.1596 -0.4964
   59SAPC  H14A 4434   6.587   4.940  11.323 -0.4601 -2.5915  0.1796
   59SAPC  H14B 4435   6.716   4.826  11.338 -1.0218 -0.7182  2.0397
   59SAPC  H14C 4436   6.703   4.945  11.464 -3.5316  0.9922 -0.0075
   59SAPC   C15 4437   6.927   4.975  11.311 -0.2947  0.4512 -0.1526
   59SAPC  H15A 4438   6.946   4.881  11.263  1.0200 -0.1799  1.5280
   59SAPC  H15B 4439   6.987   5.056  11.271 -2.5735  2.0713 -0.5083
   59SAPC  H15C 4440   6.941   4.978  11.418  1.5539  0.3554 -0.3746
   59SAPC   C11 4441   6.846   5.107  11.038 -0.1967 -0.3833  0.1169
   59SAPC  H11A 4442   6.819   5.092  10.931  2.3696  1.9230 -1.0192
   59SAPC  H11B 4443   6.952   5.072  11.044 -0.4475 -1.2345 -0.2736
   59SAPC     P 4444   6.707   5.337  11.033  0.4689  0.4520  0.0450
   59SAPC   O13 4445   6.590   5.252  11.057 -0.0653 -0.8963  0.6022
   59SAPC   O14 4446   6.716   5.464  11.112  0.2762 -0.0959  1.4007
   59SAPC   O12 4447   6.840   5.250  11.065  0.6392 -0.0722 -0.3766
   59SAPC   O11 4448   6.718   5.378  10.882 -0.3898  0.3606  0.3048
   59SAPC    C1 4449   6.835   5.443  10.835  0.1515 -0.2192  0.5364
   59SAPC    HA 4450   6.824   5.553  10.839 -1.9047 -0.3360 -0.5898
   59SAPC    HB 4451   6.923   5.415  10.897  1.9624  0.8723 -1.4062
   59SAPC    C2 4452   6.868   5.405  10.689  0.4266  0.1493 -0.4020
   59SAPC    HS 4453   6.961   5.461  10.664 -0.3107  1.0267 -1.2642
   59SAPC   O21 4454   6.751   5.433  10.602 -0.4177  0.0218  0.0648
   59SAPC   C21 4455   6.753   5.546  10.536  0.6527  0.1069  0.2154
   59SAPC   O22 4456   6.830   5.638  10.557  0.4566  0.3381 -0.5871
   59SAPC   C22 4457   6.642   5.541  10.438 -0.3463 -0.0384  0.0575
   59SAPC   H2R 4458   6.615   5.439  10.403  2.4128 -1.5102  1.9167
   59SAPC   H2S 4459   6.558   5.588  10.494  1.3933  1.3066  1.6607
   59SAPC    C3 4460   6.908   5.255  10.677  0.3159 -0.5895 -0.0185
   59SAPC    HX 4461   6.816   5.194  10.686 -1.7296  2.4813  1.7783
   59SAPC    HY 4462   6.981   5.223  10.755  0.6751 -0.1692 -0.1723
   59SAPC   O31 4463   6.978   5.226  10.554 -0.4921 -0.3177  0.7555
   59SAPC   C31 4464   6.973   5.101  10.507 -1.0408  0.4589  0.1074
   59SAPC   O32 4465   6.928   5.002  10.565 -0.4113  0.0236  0.5796
   59SAPC   C32 4466   7.045   5.096  10.373  0.4814 -0.0237  0.3871
   59SAPC   H2X 4467   7.156   5.086  10.375  0.7417  0.5137 -3.7783
   59SAPC   H2Y 4468   7.032   5.197  10.328  0.8705  0.3171  1.0101
   59SAPC   C23 4469   6.670   5.619  10.308  0.5733  0.0635  0.8211
   59SAPC   H3R 4470   6.715   5.720  10.318 -0.4954  0.5197  1.1866
   59SAPC   H3S 4471   6.571   5.634  10.260  0.3416 -0.5491  1.0887
   59SAPC   C24 4472   6.760   5.548  10.209  0.6678 -0.0985  0.0907
   59SAPC   H4R 4473   6.860   5.522  10.248  1.2168  0.7403 -0.7338
   59SAPC   H4S 4474   6.777   5.626  10.131  2.0093  0.0285  0.4863
   59SAPC   C25 4475   6.687   5.440  10.133  0.0594 -0.3259 -0.3565
   59SAPC   H5R 4476   6.614   5.383  10.191  0.2101 -1.1849 -0.9945
   59SAPC   C26 4477   6.707   5.401  10.002 -0.0417 -0.0354  0.5231
   59SAPC   H6R 4478   6.651   5.317   9.959  1.7007 -0.4660 -1.0410
   59SAPC   C27 4479   6.810   5.474   9.910  0.5597  0.7097  0.5411
   59SAPC   H7R 4480   6.905   5.418   9.901 -0.8936 -1.8987  0.4639
   59SAPC   H7S 4481   6.835   5.578   9.939  1.4738  1.7377 -3.4116
   59SAPC   C28 4482   6.734   5.511   9.786 -0.5433  0.0719 -0.5958
   59SAPC   H8R 4483   6.674   5.602   9.802 -2.5189 -1.1422 -0.8811
   59SAPC   C29 4484   6.746   5.452   9.665  0.7227 -0.0731 -0.5710
   59SAPC   H9R 4485   6.672   5.478   9.588 -0.2194  0.0534  0.3614
   59SAPC  C210 4486   6.842   5.345   9.627  0.2065  0.2437 -0.1509
   59SAPC  H10R 4487   6.787   5.278   9.558 -0.4962  0.0417  0.5933
   59SAPC  H10S 4488   6.855   5.274   9.712  0.3651 -2.6366 -2.4490
   59SAPC  C211 4489   6.978   5.384   9.560  1.1258  0.1627 -0.2505
   59SAPC  H11R 4490   7.058   5.410   9.631  1.1248  0.2255 -0.2721
   59SAPC  C212 4491   7.012   5.382   9.429 -0.0993 -0.3676  0.2137
   59SAPC  H12R 4492   7.117   5.391   9.400 -0.8342  2.8843 -1.9273
   59SAPC  C213 4493   6.922   5.342   9.312  0.4449 -0.0057 -0.8610
   59SAPC  H13R 4494   6.841   5.283   9.360  0.0247  1.2821  0.0339
   59SAPC  H13S 4495   6.966   5.270   9.238 -0.6653 -0.7522 -0.8214
   59SAPC  C214 4496   6.843   5.454   9.251  0.7038  0.5176 -0.1848
   59SAPC  H14R 4497   6.875   5.552   9.290  1.6666  0.4347 -0.7248
   59SAPC  C215 4498   6.760   5.438   9.148 -1.3115  0.1758  0.7109
   59SAPC  H15R 4499   6.700   5.527   9.123 -1.1283  0.0835 -0.0801
   59SAPC  C216 4500   6.724   5.312   9.074 -0.5787  0.3400  0.7949
   59SAPC  H16R 4501   6.615   5.303   9.057 -0.6456  3.1028 -0.8884
   59SAPC  H16S 4502   6.749   5.218   9.128  2.1521  1.5002  1.7329
   59SAPC  C217 4503   6.805   5.302   8.936  0.3056  0.1725  0.3433
   59SAPC  H17R 4504   6.782   5.392   8.875  0.3251 -1.0541 -1.5522
   59SAPC  H17S 4505   6.756   5.217   8.883  4.4319 -1.9597 -0.4526
   59SAPC  C218 4506   6.959   5.279   8.949  0.7986 -0.3597 -0.1210
   59SAPC  H18R 4507   6.974   5.189   9.012 -2.4042 -2.9372 -2.6676
   59SAPC  H18S 4508   7.011   5.356   9.010  1.2837 -0.7002 -0.0998
   59SAPC  C219 4509   7.026   5.261   8.809 -0.1728 -0.3696  0.2850
   59SAPC  H19R 4510   6.956   5.241   8.725 -1.4371  0.3780  1.1277
   59SAPC  H19S 4511   7.080   5.164   8.806 -0.6189 -0.6103 -0.9069
   59SAPC  C220 4512   7.120   5.374   8.779 -0.3218  0.0608 -0.4143
   59SAPC  H20R 4513   7.170   5.366   8.680  1.2741  2.5354  0.0967
   59SAPC  H20S 4514   7.201   5.369   8.854 -1.4773 -1.1929  0.8162
   59SAPC  H20T 4515   7.059   5.467   8.772 -1.0847 -0.4787 -1.1151
   59SAPC   C33 4516   6.980   4.985  10.286 -0.3926  0.0587  0.6201
   59SAPC   H3X 4517   6.939   4.902  10.347  0.4022 -0.8799 -0.0940
   59SAPC   H3Y 4518   7.056   4.921  10.237 -0.2210 -0.7900  1.9454
   59SAPC   C34 4519   6.886   5.032  10.169  0.2248  0.6815 -0.3717
   59SAPC   H4X 4520   6.848   5.135  10.182 -0.5900  0.4538 -0.8746
   59SAPC   H4Y 4521   6.791   4.976  10.181 -0.5356  1.8671 -0.7483
   59SAPC   C35 4522   6.920   4.992  10.030 -0.4837 -0.2881 -0.3787
   59SAPC   H5X 4523   6.957   4.887  10.036 -1.9864 -0.7645  2.0775
   59SAPC   H5Y 4524   7.003   5.054   9.991 -1.1070 -0.0250 -1.3497
   59SAPC   C36 4525   6.802   5.014   9.936 -0.4140  0.0604  0.3735
   59SAPC   H6X 4526   6.768   5.119   9.942 -0.4449 -0.0006  1.7452
   59SAPC   H6Y 4527   6.719   4.943   9.956 -0.1830 -0.3168  0.0107
   59SAPC   C37 4528   6.854   4.996   9.790  0.2887  0.1448 -0.8924
   59SAPC   H7X 4529   6.954   5.043   9.794  0.8626 -0.9765 -1.4573
   59SAPC   H7Y 4530   6.778   5.040   9.722 -1.3033 -0.7728  0.2371
   59SAPC   C38 4531   6.890   4.853   9.754  0.0189  0.0755 -0.3435
   59SAPC   H8X 4532   6.796   4.794   9.758 -1.1465  1.9197  1.1817
   59SAPC   H8Y 4533   6.963   4.808   9.825 -1.1800 -2.1166 -0.4132
   59SAPC   C39 4534   6.957   4.850   9.618  0.5932  0.0090 -0.4766
   59SAPC   H9X 4535   6.983   4.744   9.595 -3.7844 -1.8746  1.9796
   59SAPC   H9Y 4536   7.045   4.917   9.606  0.7624 -0.2905 -0.9782
   59SAPC  C310 4537   6.856   4.888   9.511 -0.2162  0.8901 -0.3003
   59SAPC  H10X 4538   6.822   4.994   9.511  0.5984  1.1698  0.1832
   59SAPC  H10Y 4539   6.765   4.825   9.511 -2.2020  3.5986  0.3271
   59SAPC  C311 4540   6.916   4.877   9.366 -0.6573  0.4522  0.0436
   59SAPC  H11X 4541   6.972   4.783   9.350 -3.0205 -1.5762  2.6950
   59SAPC  H11Y 4542   6.985   4.963   9.354 -0.6843  0.3201 -1.1719
   59SAPC  C312 4543   6.812   4.901   9.260 -0.1325  0.0735  0.4930
   59SAPC  H12X 4544   6.740   4.981   9.286 -1.1184  0.2670 -2.4589
   59SAPC  H12Y 4545   6.758   4.803   9.255 -1.5388  0.7996  0.8584
   59SAPC  C313 4546   6.860   4.918   9.113 -0.0585 -0.4230 -0.1005
   59SAPC  H13X 4547   6.923   4.830   9.085  0.2910  0.1132 -1.0710
   59SAPC  H13Y 4548   6.918   5.013   9.107 -0.3568 -0.1220  1.5405
   59SAPC  C314 4549   6.750   4.906   9.006 -0.1946 -0.5499  0.0809
   59SAPC  H14X 4550   6.670   4.980   9.029 -0.3934  0.0006 -2.2185
   59SAPC  H14Y 4551   6.706   4.804   9.003 -0.9981 -0.2111  0.0167
   59SAPC  C315 4552   6.800   4.943   8.869  0.3140  0.7808  0.1481
   59SAPC  H15X 4553   6.857   4.857   8.827 -2.8832 -1.3993 -0.0932
   59SAPC  H15Y 4554   6.869   5.027   8.846 -1.0590  1.8793 -0.0630
   59SAPC  C316 4555   6.681   4.974   8.772  0.0540 -0.1751 -0.6062
   59SAPC  H16X 4556   6.721   4.972   8.668  0.2544  0.9729 -0.5591
   59SAPC  H16Y 4557   6.638   5.074   8.791  1.2665  0.2722 -0.1094
   59SAPC  C317 4558   6.569   4.877   8.785  0.3915  0.1113  0.3009
   59SAPC  H17X 4559   6.530   4.875   8.889  0.5087 -1.3497  0.3315
   59SAPC  H17Y 4560   6.606   4.775   8.760 -1.9043 -0.2759 -1.9475
   59SAPC  C318 4561   6.451   4.906   8.693 -0.8816 -0.2581  0.5784
   59SAPC  H18X 4562   6.369   4.833   8.713 -0.7474 -0.3976  0.6205
   59SAPC  H18Y 4563   6.489   4.911   8.589  0.7615  1.1590  1.2109
   59SAPC  H18Z 4564   6.420   5.012   8.699  1.2713  0.5566 -1.2477
   60SAPC     N 4565   0.581   1.600  10.882  0.2163 -0.6037 -0.1573
   60SAPC   C12 4566   0.621   1.745  10.844  0.3478 -0.2114  0.0766
   60SAPC  H12A 4567   0.584   1.810  10.923  1.0800  0.7298 -0.3270
   60SAPC  H12B 4568   0.572   1.772  10.752  1.6607 -0.7395 -0.8138
   60SAPC   C13 4569   0.550   1.516  10.766  0.6013  0.2007  0.7309
   60SAPC  H13A 4570   0.469   1.555  10.706 -1.2041 -0.8950  2.3537
   60SAPC  H13B 4571   0.630   1.509  10.694  0.9059  3.0423  0.6700
   60SAPC  H13C 4572   0.526   1.415  10.795  0.4157  0.1571  0.4348
   60SAPC   C14 4573   0.689   1.532  10.959 -0.6241  0.5414  0.8816
   60SAPC  H14A 4574   0.722   1.581  11.049  0.5220  0.9823  0.2426
   60SAPC  H14B 4575   0.669   1.430  10.988  0.9580 -0.3387 -0.8987
   60SAPC  H14C 4576   0.776   1.528  10.896 -0.1493  0.8902  1.5127
   60SAPC   C15 4577   0.465   1.605  10.983 -0.0133 -0.0466  0.6738
   60SAPC  H15A 4578   0.472   1.520  11.049  2.2711 -1.1406 -0.8278
   60SAPC  H15B 4579   0.478   1.691  11.047  1.8804  0.6517 -0.5589
   60SAPC  H15C 4580   0.366   1.600  10.942 -0.5342 -0.8890  1.9873
   60SAPC   C11 4581   0.773   1.786  10.839 -0.1089 -0.1341 -0.6117
   60SAPC  H11A 4582   0.820   1.754  10.934 -3.0655 -3.9170 -0.1698
   60SAPC  H11B 4583   0.784   1.896  10.845 -0.7062 -0.1455  2.9018
   60SAPC     P 4584   0.833   1.751  10.582  0.4407  0.2348 -0.2590
   60SAPC   O13 4585   0.799   1.897  10.569 -0.1935 -0.0665 -0.3289
   60SAPC   O14 4586   0.952   1.694  10.513  0.1733 -0.3256 -0.4907
   60SAPC   O12 4587   0.839   1.712  10.733  0.2955 -0.0010 -0.4128
   60SAPC   O11 4588   0.711   1.669  10.534  0.2893 -0.1441  0.0143
   60SAPC    C1 4589   0.707   1.553  10.450 -0.5297  0.2378 -0.5042
   60SAPC    HA 4590   0.794   1.486  10.470 -0.7333  0.5001  1.4985
   60SAPC    HB 4591   0.619   1.496  10.488 -1.6835  1.7139 -0.8556
   60SAPC    C2 4592   0.703   1.582  10.299 -0.3343  0.7509 -0.1546
   60SAPC    HS 4593   0.672   1.487  10.249  0.6459  0.1930  0.2644
   60SAPC   O21 4594   0.833   1.627  10.257  0.2593  0.5997 -0.1578
   60SAPC   C21 4595   0.911   1.523  10.230  0.0188 -0.0372 -0.0309
   60SAPC   O22 4596   0.882   1.405  10.248  0.2884  0.5866  0.4791
   60SAPC   C22 4597   1.035   1.577  10.167  1.4469  0.5672  0.5454
   60SAPC   H2R 4598   1.011   1.639  10.078  0.4563  0.0747  0.4555
   60SAPC   H2S 4599   1.086   1.641  10.242 -0.9464  1.9468  1.1045
   60SAPC    C3 4600   0.596   1.682  10.256  0.6177 -0.4220  0.3508
   60SAPC    HX 4601   0.617   1.787  10.287 -0.9511  0.3359 -0.9839
   60SAPC    HY 4602   0.500   1.660  10.306 -0.1178  1.0239 -0.3520
   60SAPC   O31 4603   0.569   1.669  10.112  0.5588  0.3156  0.9073
   60SAPC   C31 4604   0.527   1.782  10.048 -0.0006  0.5703  0.0981
   60SAPC   O32 4605   0.509   1.886  10.106 -0.2846 -0.0087  0.2777
   60SAPC   C32 4606   0.514   1.760   9.895 -0.6675  0.2522  0.7411
   60SAPC   H2X 4607   0.450   1.670   9.884 -0.9619  0.5605 -0.1489
   60SAPC   H2Y 4608   0.618   1.752   9.857 -0.4580  3.3991  0.4360
   60SAPC   C23 4609   1.139   1.463  10.140 -0.3380  0.5221  0.4909
   60SAPC   H3R 4610   1.142   1.408  10.236 -2.4995  0.0589  0.3383
   60SAPC   H3S 4611   1.243   1.500  10.127 -0.4193  0.7355  0.4480
   60SAPC   C24 4612   1.096   1.372  10.023  0.2201  0.7626  0.1710
   60SAPC   H4R 4613   1.062   1.444   9.946 -2.9440 -0.9622 -0.1890
   60SAPC   H4S 4614   1.010   1.310  10.057  0.6426 -0.8694 -1.5801
   60SAPC   C25 4615   1.206   1.280   9.971 -0.3961  0.1477  0.5330
   60SAPC   H5R 4616   1.248   1.201  10.034  0.1878 -1.3865 -1.6518
   60SAPC   C26 4617   1.272   1.299   9.851 -0.0048 -0.5822  0.2260
   60SAPC   H6R 4618   1.341   1.218   9.822  0.3156 -0.9720  1.9733
   60SAPC   C27 4619   1.256   1.404   9.750  0.0176 -1.1250 -0.7545
   60SAPC   H7R 4620   1.361   1.434   9.728 -0.3399  0.8105 -0.0083
   60SAPC   H7S 4621   1.219   1.501   9.791  0.3646 -0.9254 -0.9039
   60SAPC   C28 4622   1.183   1.362   9.628  0.1787 -0.6954  0.2925
   60SAPC   H8R 4623   1.073   1.369   9.635  0.2450 -0.8207  1.7017
   60SAPC   C29 4624   1.236   1.297   9.523 -0.6962  0.5006 -0.1784
   60SAPC   H9R 4625   1.170   1.270   9.439 -0.8730 -0.5466  0.2817
   60SAPC  C210 4626   1.385   1.252   9.515  0.4621 -0.1903  0.3168
   60SAPC  H10R 4627   1.395   1.174   9.593  1.7835 -0.6583 -0.2974
   60SAPC  H10S 4628   1.442   1.340   9.552 -0.7603  0.8207 -0.1180
   60SAPC  C211 4629   1.428   1.190   9.384 -0.1486 -0.2828  0.2843
   60SAPC  H11R 4630   1.421   1.081   9.369  0.1377 -0.0902 -1.4584
   60SAPC  C212 4631   1.465   1.269   9.271  0.2190  0.9556  0.2864
   60SAPC  H12R 4632   1.494   1.219   9.178 -1.2120 -0.0332  0.3226
   60SAPC  C213 4633   1.472   1.418   9.274 -0.0606  0.2718 -0.2456
   60SAPC  H13R 4634   1.436   1.452   9.373  1.0296 -1.9695  1.0102
   60SAPC  H13S 4635   1.408   1.472   9.200 -0.5063 -1.3361 -1.0843
   60SAPC  C214 4636   1.619   1.450   9.259  0.0829  0.7607 -0.4610
   60SAPC  H14R 4637   1.693   1.424   9.336  1.5747  0.6279 -1.8680
   60SAPC  C215 4638   1.664   1.522   9.160  0.4594 -0.8462  0.1194
   60SAPC  H15R 4639   1.770   1.550   9.153  0.6763 -1.6382  0.0757
   60SAPC  C216 4640   1.577   1.583   9.053  0.3383 -0.0260 -0.0660
   60SAPC  H16R 4641   1.622   1.678   9.017  1.5389 -0.1823  0.9787
   60SAPC  H16S 4642   1.479   1.622   9.091  0.5231 -0.4495  0.8822
   60SAPC  C217 4643   1.548   1.483   8.939 -0.0457 -0.0672  0.3926
   60SAPC  H17R 4644   1.452   1.430   8.958 -0.2894 -0.6099 -2.0169
   60SAPC  H17S 4645   1.619   1.398   8.937  0.6888  0.4082  3.1336
   60SAPC  C218 4646   1.527   1.558   8.797 -0.5248 -1.0587 -0.7061
   60SAPC  H18R 4647   1.604   1.638   8.790 -1.2463 -0.2435  0.3450
   60SAPC  H18S 4648   1.431   1.614   8.791 -0.0208 -0.3334 -2.8081
   60SAPC  C219 4649   1.526   1.465   8.673  0.7778 -0.2522 -0.1337
   60SAPC  H19R 4650   1.467   1.374   8.694  0.6052  0.1648  1.2884
   60SAPC  H19S 4651   1.628   1.430   8.647 -0.7938 -2.5661 -4.2147
   60SAPC  C220 4652   1.483   1.542   8.548  0.5705 -0.6300  0.1658
   60SAPC  H20R 4653   1.558   1.619   8.521  0.3552 -1.0501 -1.7795
   60SAPC  H20S 4654   1.388   1.592   8.573 -0.3448 -2.4981  0.6065
   60SAPC  H20T 4655   1.474   1.467   8.466 -0.6066  0.2070 -0.4873
   60SAPC   C33 4656   0.452   1.885   9.831  0.0305 -0.2118  0.0512
   60SAPC   H3X 4657   0.531   1.962   9.817  1.2582 -1.5291 -0.5128
   60SAPC   H3Y 4658   0.369   1.919   9.896 -0.4465  0.8314 -1.0438
   60SAPC   C34 4659   0.382   1.856   9.693 -0.3430 -0.2940  0.1982
   60SAPC   H4X 4660   0.368   1.959   9.654 -2.7904  0.0833  1.8526
   60SAPC   H4Y 4661   0.286   1.807   9.720 -0.2077  0.1119  1.4736
   60SAPC   C35 4662   0.461   1.764   9.599 -0.0061 -0.0932 -0.6051
   60SAPC   H5X 4663   0.477   1.660   9.634  0.0014  0.4154  0.9658
   60SAPC   H5Y 4664   0.553   1.816   9.565  0.0640 -0.2875 -0.7131
   60SAPC   C36 4665   0.386   1.748   9.462 -0.3396  0.2086 -0.0202
   60SAPC   H6X 4666   0.350   1.847   9.428 -0.9839  0.8939  2.4211
   60SAPC   H6Y 4667   0.293   1.687   9.466  0.1149 -0.6399 -1.5613
   60SAPC   C37 4668   0.467   1.685   9.352 -0.1112  0.5813  0.3000
   60SAPC   H7X 4669   0.551   1.635   9.406  0.9742  2.3431  0.3162
   60SAPC   H7Y 4670   0.528   1.756   9.292  0.3700  0.4252  0.5916
   60SAPC   C38 4671   0.398   1.569   9.273  0.5717 -0.2006  0.0267
   60SAPC   H8X 4672   0.296   1.608   9.252  0.3213  0.6133  2.3912
   60SAPC   H8Y 4673   0.389   1.482   9.341 -0.5972 -0.1383 -0.0153
   60SAPC   C39 4674   0.478   1.535   9.149  0.1052  0.1373  0.2486
   60SAPC   H9X 4675   0.589   1.532   9.157  0.1053 -0.4015  0.0327
   60SAPC   H9Y 4676   0.466   1.607   9.066  2.7188  2.3904  1.6331
   60SAPC  C310 4677   0.441   1.394   9.094 -0.0505  0.1048  0.1745
   60SAPC  H10X 4678   0.330   1.389   9.093 -0.0268 -0.6429  0.4576
   60SAPC  H10Y 4679   0.469   1.305   9.156  0.1396  0.6955  0.9535
   60SAPC  C311 4680   0.497   1.372   8.948  0.0933  0.3035  0.0783
   60SAPC  H11X 4681   0.605   1.351   8.963 -0.4322 -4.1948 -1.1294
   60SAPC  H11Y 4682   0.483   1.461   8.883 -1.4459  2.3191  2.9441
   60SAPC  C312 4683   0.433   1.252   8.877  0.0302 -0.8413 -0.0045
   60SAPC  H12X 4684   0.338   1.284   8.830 -0.7618  2.0543  3.1840
   60SAPC  H12Y 4685   0.410   1.178   8.957  0.4558 -1.0336 -0.0550
   60SAPC  C313 4686   0.518   1.176   8.775  0.3550  0.2067  0.6907
   60SAPC  H13X 4687   0.463   1.082   8.754  0.5072 -0.1927  2.0055
   60SAPC  H13Y 4688   0.605   1.141   8.834 -0.3367 -1.6312  0.6838
   60SAPC  C314 4689   0.544   1.261   8.646 -0.0771  0.4592 -0.5363
   60SAPC  H14X 4690   0.570   1.363   8.681  0.9918 -0.7662  2.6313
   60SAPC  H14Y 4691   0.456   1.263   8.578 -0.1207 -2.3895 -0.6656
   60SAPC  C315 4692   0.648   1.201   8.549  0.9492 -0.3053 -0.2604
   60SAPC  H15X 4693   0.602   1.107   8.510  2.0867 -0.1262 -2.1928
   60SAPC  H15Y 4694   0.742   1.193   8.607  1.3866  4.3594 -0.0004
   60SAPC  C316 4695   0.676   1.296   8.432  0.2181  0.7197 -0.6505
   60SAPC  H16X 4696   0.679   1.400   8.472 -1.8721  0.2116  1.0048
   60SAPC  H16Y 4697   0.608   1.284   8.345 -1.9103  3.9547  0.3968
   60SAPC  C317 4698   0.823   1.287   8.385 -0.2104  0.3742 -0.1056
   60SAPC  H17X 4699   0.840   1.192   8.329  1.4573  1.2371 -1.1512
   60SAPC  H17Y 4700   0.899   1.298   8.465  0.2211  0.9528 -0.5783
   60SAPC  C318 4701   0.862   1.398   8.276 -0.0741  0.0991  0.5028
   60SAPC  H18X 4702   0.825   1.369   8.175 -2.8095 -5.0572  2.5810
   60SAPC  H18Y 4703   0.970   1.421   8.288  0.2647 -1.2752  0.2251
   60SAPC  H18Z 4704   0.812   1.490   8.314 -0.7787  0.0340 -0.2447
   61SAPC     N 4705   2.822   4.242  11.066  0.2094  0.2077  0.2059
   61SAPC   C12 4706   2.745   4.152  10.974 -0.0299  0.1822  0.7263
   61SAPC  H12A 4707   2.669   4.205  10.917 -1.5050  0.3846  2.7694
   61SAPC  H12B 4708   2.691   4.077  11.029 -0.8840 -1.5574 -2.2610
   61SAPC   C13 4709   2.725   4.320  11.150  0.5616  0.8903 -0.1122
   61SAPC  H13A 4710   2.770   4.387  11.222 -1.1607  1.4319  0.5115
   61SAPC  H13B 4711   2.660   4.374  11.083 -0.3699 -0.8294 -0.6759
   61SAPC  H13C 4712   2.660   4.249  11.199  0.3013  1.0958 -0.1612
   61SAPC   C14 4713   2.887   4.158  11.170  0.5068  0.6413  0.1646
   61SAPC  H14A 4714   2.954   4.222  11.227  0.7503 -0.5169  1.2317
   61SAPC  H14B 4715   2.811   4.111  11.230  2.9115 -1.3772  1.8614
   61SAPC  H14C 4716   2.949   4.081  11.127  2.2899  1.6206  0.8306
   61SAPC   C15 4717   2.918   4.342  11.006 -0.3999 -0.0647  0.2583
   61SAPC  H15A 4718   2.963   4.398  11.087  0.4929 -1.6529  0.9221
   61SAPC  H15B 4719   2.993   4.289  10.950 -0.0790 -1.2603  1.7314
   61SAPC  H15C 4720   2.871   4.421  10.951  0.6576 -0.2341 -0.9456
   61SAPC   C11 4721   2.835   4.069  10.882 -0.3027 -0.6280  0.6621
   61SAPC  H11A 4722   2.913   4.132  10.834 -0.9535  0.0374  0.4581
   61SAPC  H11B 4723   2.773   4.039  10.795 -1.3157 -0.0078  1.1492
   61SAPC     P 4724   2.821   3.820  10.955 -0.1593  0.0766 -0.0496
   61SAPC   O13 4725   2.895   3.742  11.053 -0.3793 -0.0328  0.2649
   61SAPC   O14 4726   2.682   3.842  10.984 -0.4514 -0.1973  0.0844
   61SAPC   O12 4727   2.888   3.960  10.952 -0.3894  0.5809 -0.3782
   61SAPC   O11 4728   2.835   3.773  10.802 -0.6162  0.1413 -0.5068
   61SAPC    C1 4729   2.972   3.777  10.750 -0.5045 -0.2696  0.1541
   61SAPC    HA 4730   3.035   3.851  10.804 -0.2765 -1.0682  1.0245
   61SAPC    HB 4731   3.028   3.682  10.734  0.8359  0.7802 -1.7425
   61SAPC    C2 4732   2.974   3.834  10.602  0.1189 -0.5908 -0.1301
   61SAPC    HS 4733   2.921   3.932  10.604 -0.2778 -0.8196  0.6731
   61SAPC   O21 4734   2.906   3.735  10.517  0.4856 -0.3289 -0.3364
   61SAPC   C21 4735   2.856   3.783  10.396 -0.4866  0.0436 -0.2974
   61SAPC   O22 4736   2.856   3.904  10.368 -0.1987  0.0493 -0.5513
   61SAPC   C22 4737   2.793   3.675  10.307  0.0784 -0.3577  0.3467
   61SAPC   H2R 4738   2.881   3.610  10.295  1.3863  0.5185  3.9400
   61SAPC   H2S 4739   2.715   3.626  10.370 -2.9706  1.3199 -1.8297
   61SAPC    C3 4740   3.126   3.844  10.564 -0.7732  0.5587 -0.5290
   61SAPC    HX 4741   3.162   3.742  10.589 -1.4779  0.7719  1.5517
   61SAPC    HY 4742   3.179   3.908  10.639 -0.4378 -0.3819  0.0505
   61SAPC   O31 4743   3.145   3.906  10.431  0.4158  0.0250 -0.1541
   61SAPC   C31 4744   3.131   4.038  10.434  0.2831  0.2956  0.1603
   61SAPC   O32 4745   3.101   4.101  10.534 -0.1708  0.5046 -0.4052
   61SAPC   C32 4746   3.178   4.088  10.294  0.6784  0.1136 -0.9834
   61SAPC   H2X 4747   3.156   4.015  10.213  1.0522 -0.3332 -0.6945
   61SAPC   H2Y 4748   3.288   4.079  10.306  0.5037 -0.3303  0.5397
   61SAPC   C23 4749   2.728   3.730  10.174  0.2593  0.2488  0.2597
   61SAPC   H3R 4750   2.805   3.794  10.126  0.0571  0.8521  0.7281
   61SAPC   H3S 4751   2.645   3.798  10.204 -0.3803 -1.7511  3.6282
   61SAPC   C24 4752   2.678   3.610  10.084  0.3198 -0.5176  0.3251
   61SAPC   H4R 4753   2.611   3.546  10.145 -0.9919  2.9363  2.8469
   61SAPC   H4S 4754   2.765   3.548  10.054 -0.7266 -2.0010  0.2608
   61SAPC   C25 4755   2.619   3.650   9.953 -0.0508  0.7939  0.0203
   61SAPC   H5R 4756   2.566   3.746   9.957  1.8971  1.9448  4.5623
   61SAPC   C26 4757   2.633   3.578   9.838  1.1339  0.0257  0.0594
   61SAPC   H6R 4758   2.588   3.614   9.744  1.6415 -0.6441 -0.4604
   61SAPC   C27 4759   2.701   3.446   9.814 -0.0316  0.1120  0.8428
   61SAPC   H7R 4760   2.679   3.386   9.724  0.8353  0.8665  0.1087
   61SAPC   H7S 4761   2.678   3.375   9.896 -0.3665 -0.1730  0.5021
   61SAPC   C28 4762   2.859   3.462   9.800  1.1968  0.2104  0.1045
   61SAPC   H8R 4763   2.918   3.481   9.891 -1.5170 -0.2864  2.1297
   61SAPC   C29 4764   2.934   3.439   9.693 -0.4177  0.0139 -0.1889
   61SAPC   H9R 4765   3.041   3.466   9.697 -0.6341  0.9187 -0.4223
   61SAPC  C210 4766   2.890   3.398   9.553 -0.0776 -0.1584 -0.4723
   61SAPC  H10R 4767   2.833   3.305   9.576  0.0751 -0.0128  0.5236
   61SAPC  H10S 4768   2.970   3.360   9.487 -0.1091 -1.2465  0.0886
   61SAPC  C211 4769   2.795   3.491   9.480 -0.8232  0.3065  0.4417
   61SAPC  H11R 4770   2.782   3.593   9.517 -0.6350  0.4755  0.0406
   61SAPC  C212 4771   2.731   3.452   9.361  0.0789  0.3308  1.0169
   61SAPC  H12R 4772   2.656   3.523   9.326  1.2223  1.5403  0.9465
   61SAPC  C213 4773   2.744   3.319   9.287  0.4335 -0.0735 -0.4665
   61SAPC  H13R 4774   2.771   3.233   9.352  0.5508  1.0067  0.9853
   61SAPC  H13S 4775   2.826   3.322   9.212 -0.8505  0.0338 -1.9184
   61SAPC  C214 4776   2.624   3.295   9.207  0.4903  0.2105  0.8634
   61SAPC  H14R 4777   2.570   3.205   9.240  1.9300 -1.0730 -0.0970
   61SAPC  C215 4778   2.577   3.355   9.093  0.3256  0.2323 -0.4730
   61SAPC  H15R 4779   2.500   3.312   9.028  1.1216 -1.2807 -0.4619
   61SAPC  C216 4780   2.643   3.471   9.018 -0.3742 -0.0490  0.1312
   61SAPC  H16R 4781   2.733   3.515   9.066 -0.0296 -0.5681 -0.0219
   61SAPC  H16S 4782   2.571   3.554   9.005 -1.3504 -0.8302  0.4530
   61SAPC  C217 4783   2.701   3.422   8.885  0.4755 -0.4086 -0.5907
   61SAPC  H17R 4784   2.767   3.335   8.903 -0.1497 -0.5540  1.1520
   61SAPC  H17S 4785   2.756   3.507   8.839 -0.8717  0.9871  0.2644
   61SAPC  C218 4786   2.596   3.385   8.785 -0.2478 -0.7227 -0.5492
   61SAPC  H18R 4787   2.612   3.450   8.696 -0.4520 -0.4698 -0.4033
   61SAPC  H18S 4788   2.489   3.396   8.814  0.5944 -0.5595  2.8949
   61SAPC  C219 4789   2.617   3.241   8.740  0.0604 -0.3955 -0.5503
   61SAPC  H19R 4790   2.596   3.186   8.835  2.4980  2.0718  1.6086
   61SAPC  H19S 4791   2.722   3.221   8.708  0.2096  1.2107 -1.1959
   61SAPC  C220 4792   2.518   3.212   8.635  0.3683 -0.0010  0.1437
   61SAPC  H20R 4793   2.527   3.300   8.568  1.9002  0.4352  0.8713
   61SAPC  H20S 4794   2.419   3.200   8.685  0.1272 -1.2067 -0.5972
   61SAPC  H20T 4795   2.538   3.121   8.576 -3.0239 -0.7128 -0.1083
   61SAPC   C33 4796   3.134   4.228  10.258 -0.0395  0.3320 -0.1395
   61SAPC   H3X 4797   3.155   4.289  10.348 -0.8229  0.3355  0.0464
   61SAPC   H3Y 4798   3.025   4.235  10.241 -0.1653  0.9215  0.8293
   61SAPC   C34 4799   3.222   4.285  10.145 -0.7102 -0.5376  0.1768
   61SAPC   H4X 4800   3.330   4.278  10.169 -0.9387 -0.9007  1.1478
   61SAPC   H4Y 4801   3.203   4.394  10.134  2.1952 -0.0443 -0.8402
   61SAPC   C35 4802   3.208   4.216  10.009 -0.3449  0.1941 -0.6982
   61SAPC   H5X 4803   3.201   4.106  10.023 -2.4194  0.1714 -1.5876
   61SAPC   H5Y 4804   3.296   4.246   9.948 -1.4346  3.0372 -0.9967
   61SAPC   C36 4805   3.076   4.261   9.946 -0.4823  0.1056  0.4093
   61SAPC   H6X 4806   3.084   4.370   9.925  1.2635  0.2884  1.7705
   61SAPC   H6Y 4807   3.001   4.253  10.028 -0.9515  0.8208  0.0619
   61SAPC   C37 4808   3.016   4.179   9.825 -0.1188  0.0222 -0.7983
   61SAPC   H7X 4809   2.906   4.194   9.813 -0.0082  0.1702 -1.6795
   61SAPC   H7Y 4810   3.054   4.076   9.842  1.1597  0.7938  1.4266
   61SAPC   C38 4811   3.094   4.222   9.693 -0.6774 -0.0860  0.8389
   61SAPC   H8X 4812   3.204   4.211   9.703 -0.6321 -2.2296 -1.1225
   61SAPC   H8Y 4813   3.070   4.325   9.662 -0.6321 -0.1521  0.5859
   61SAPC   C39 4814   3.036   4.140   9.573  0.1605 -0.6174  0.0559
   61SAPC   H9X 4815   2.929   4.168   9.560 -0.0173 -1.2708  0.0548
   61SAPC   H9Y 4816   3.047   4.035   9.608 -0.9900 -0.7447  0.0790
   61SAPC  C310 4817   3.115   4.164   9.441 -0.8543 -0.0697  0.4436
   61SAPC  H10X 4818   3.221   4.141   9.465 -0.0187  2.4354 -0.5643
   61SAPC  H10Y 4819   3.120   4.274   9.430  0.1977 -0.2073 -0.8079
   61SAPC  C311 4820   3.052   4.094   9.315 -0.3922 -0.3378 -0.3484
   61SAPC  H11X 4821   2.954   4.141   9.293 -0.2223  0.9270  1.3817
   61SAPC  H11Y 4822   3.048   3.991   9.355  2.2738 -0.6889 -0.7737
   61SAPC  C312 4823   3.147   4.088   9.199  0.1246  0.0593  0.5495
   61SAPC  H12X 4824   3.224   4.012   9.224  1.6756 -0.1740 -4.0435
   61SAPC  H12Y 4825   3.204   4.183   9.188 -0.5054  0.7800  2.8747
   61SAPC  C313 4826   3.087   4.038   9.063 -0.0756  0.9787 -0.0562
   61SAPC  H13X 4827   3.029   4.122   9.018 -0.4321 -0.3663 -2.2686
   61SAPC  H13Y 4828   3.016   3.959   9.095 -0.4057  1.5117  0.5428
   61SAPC  C314 4829   3.195   3.987   8.963  0.1108 -0.0901 -1.0375
   61SAPC  H14X 4830   3.244   3.893   8.996  2.5106  1.2143 -0.6334
   61SAPC  H14Y 4831   3.284   4.052   8.947  1.3273 -1.3251  0.4276
   61SAPC  C315 4832   3.134   3.952   8.831 -1.0263  0.9353  0.2308
   61SAPC  H15X 4833   3.089   4.040   8.781  1.1529  0.2721 -3.2399
   61SAPC  H15Y 4834   3.052   3.879   8.850  0.3203 -0.8021 -0.3252
   61SAPC  C316 4835   3.234   3.880   8.739  0.0269 -0.3983 -0.3838
   61SAPC  H16X 4836   3.182   3.861   8.642  0.9086 -0.2283 -0.9100
   61SAPC  H16Y 4837   3.277   3.787   8.783  0.6381  0.0740  0.0274
   61SAPC  C317 4838   3.347   3.979   8.706 -0.0912 -0.0121  0.3755
   61SAPC  H17X 4839   3.411   3.991   8.796 -1.1124  0.5915  1.0544
   61SAPC  H17Y 4840   3.309   4.077   8.672 -1.4443 -1.1528 -1.5693
   61SAPC  C318 4841   3.439   3.913   8.598 -0.2459 -0.4372  0.5592
   61SAPC  H18X 4842   3.511   3.995   8.576 -0.6362 -0.2113  0.1038
   61SAPC  H18Y 4843   3.382   3.896   8.504  1.3653 -0.9980 -0.3545
   61SAPC  H18Z 4844   3.488   3.815   8.615  1.3003  0.2985  0.4943
   62SAPC     N 4845   1.007   1.181  10.587 -0.1684 -0.3317  0.9837
   62SAPC   C12 4846   1.022   1.134  10.732 -0.1903  0.2366 -0.9190
   62SAPC  H12A 4847   0.935   1.164  10.788 -0.5076 -1.9565 -0.1279
   62SAPC  H12B 4848   1.105   1.182  10.781 -0.1733 -1.5728  0.9420
   62SAPC   C13 4849   0.878   1.120  10.540  0.1348  0.0141 -0.0971
   62SAPC  H13A 4850   0.865   1.139  10.434 -2.2114 -0.9797 -0.0619
   62SAPC  H13B 4851   0.899   1.015  10.552  0.8712  0.1210 -0.3785
   62SAPC  H13C 4852   0.792   1.158  10.594 -0.1293 -0.4140 -0.2117
   62SAPC   C14 4853   1.010   1.332  10.573 -0.6552  0.7147 -0.0992
   62SAPC  H14A 4854   1.003   1.367  10.472 -0.0238  1.5593  0.1456
   62SAPC  H14B 4855   0.925   1.375  10.625 -0.2173  2.7001 -0.9761
   62SAPC  H14C 4856   1.100   1.363  10.623  0.4166 -3.1031  0.6516
   62SAPC   C15 4857   1.110   1.124  10.501  0.0283  0.0546 -0.6795
   62SAPC  H15A 4858   1.111   1.016  10.505  1.5472  0.0854  0.6031
   62SAPC  H15B 4859   1.101   1.162  10.400 -0.7568  0.5390 -0.4369
   62SAPC  H15C 4860   1.205   1.167  10.530  0.0603  0.6112 -1.5749
   62SAPC   C11 4861   1.048   0.982  10.767  0.0289 -0.0482  0.9126
   62SAPC  H11A 4862   1.078   0.978  10.874  2.4181  1.4684  0.3850
   62SAPC  H11B 4863   1.140   0.953  10.710 -1.6155 -1.5893 -1.1090
   62SAPC     P 4864   0.821   0.848  10.826  0.4337 -0.5369  0.3152
   62SAPC   O13 4865   0.888   0.773  10.935 -0.1484 -0.3666  0.1977
   62SAPC   O14 4866   0.726   0.961  10.870  0.3946  0.2853  0.1255
   62SAPC   O12 4867   0.930   0.912  10.727 -0.3814  0.7033  0.0966
   62SAPC   O11 4868   0.737   0.747  10.727  0.2838 -0.0849 -0.3718
   62SAPC    C1 4869   0.797   0.629  10.665 -0.5706  0.3298 -0.6852
   62SAPC    HA 4870   0.890   0.592  10.714 -0.5068 -0.5507 -1.4529
   62SAPC    HB 4871   0.734   0.539  10.653  0.0693 -0.2198 -0.0473
   62SAPC    C2 4872   0.843   0.677  10.525 -0.4901  0.8892 -0.2865
   62SAPC    HS 4873   0.911   0.764  10.538 -2.5186  2.3916  0.9676
   62SAPC   O21 4874   0.720   0.703  10.457  0.3917 -0.0044  0.4234
   62SAPC   C21 4875   0.732   0.788  10.360 -0.5871  0.0393 -0.9041
   62SAPC   O22 4876   0.824   0.869  10.341 -0.5042  0.0586  0.0724
   62SAPC   C22 4877   0.601   0.774  10.284 -0.6793  0.3892 -0.2675
   62SAPC   H2R 4878   0.590   0.666  10.262  0.5131  0.7204 -2.8507
   62SAPC   H2S 4879   0.518   0.810  10.348 -0.1660 -1.6559  1.6566
   62SAPC    C3 4880   0.930   0.567  10.454  0.2453 -0.8222  0.0364
   62SAPC    HX 4881   0.884   0.468  10.474  0.3930 -0.5131  2.1642
   62SAPC    HY 4882   1.020   0.570  10.520 -0.8536  1.3150  1.5727
   62SAPC   O31 4883   0.951   0.587  10.309 -0.0816 -0.1397 -0.5007
   62SAPC   C31 4884   1.054   0.667  10.281  0.1992  0.3419  0.1473
   62SAPC   O32 4885   1.121   0.725  10.367  0.1447  0.5842  0.1445
   62SAPC   C32 4886   1.063   0.675  10.125  0.1684  0.2149  0.1241
   62SAPC   H2X 4887   1.091   0.780  10.103 -0.8019  0.5980  0.6750
   62SAPC   H2Y 4888   0.961   0.671  10.082 -0.6082  1.9130  1.6611
   62SAPC   C23 4889   0.589   0.848  10.147 -0.0790 -0.3131  0.6499
   62SAPC   H3R 4890   0.653   0.794  10.074  0.2676  3.4834 -2.1193
   62SAPC   H3S 4891   0.632   0.950  10.146 -0.3522 -0.1853 -1.4762
   62SAPC   C24 4892   0.451   0.855  10.091 -0.4264 -0.0604 -0.4412
   62SAPC   H4R 4893   0.383   0.917  10.152 -0.7967  0.6835 -1.5716
   62SAPC   H4S 4894   0.406   0.753  10.099 -0.8163 -0.0864 -2.4336
   62SAPC   C25 4895   0.437   0.893   9.942  0.7020 -0.0456 -0.0729
   62SAPC   H5R 4896   0.396   0.993   9.921  1.1446 -0.5066 -3.7781
   62SAPC   C26 4897   0.461   0.820   9.834  0.7278  0.2176 -0.2294
   62SAPC   H6R 4898   0.461   0.864   9.733  3.1499 -3.2315 -1.9604
   62SAPC   C27 4899   0.494   0.676   9.824 -0.4660 -0.2575  0.3532
   62SAPC   H7R 4900   0.591   0.654   9.874 -1.6186 -1.1157  2.3645
   62SAPC   H7S 4901   0.518   0.641   9.721 -2.6348  1.7365 -0.9153
   62SAPC   C28 4902   0.387   0.582   9.879  0.5804 -0.3324  0.4340
   62SAPC   H8R 4903   0.397   0.538   9.979  0.7778  1.0521  1.0436
   62SAPC   C29 4904   0.268   0.566   9.817 -0.0458  0.1230 -0.3600
   62SAPC   H9R 4905   0.198   0.502   9.871 -0.3609  0.7913  0.0351
   62SAPC  C210 4906   0.229   0.628   9.684  0.4828  0.1860 -0.0666
   62SAPC  H10R 4907   0.303   0.700   9.643 -1.1251  0.9496 -1.7705
   62SAPC  H10S 4908   0.134   0.683   9.697  0.0950  0.0223 -1.8734
   62SAPC  C211 4909   0.206   0.517   9.587 -0.3979 -0.3154  0.0499
   62SAPC  H11R 4910   0.197   0.420   9.637  3.6930 -1.4916 -1.1049
   62SAPC  C212 4911   0.194   0.530   9.453 -0.1531 -0.3253  0.1178
   62SAPC  H12R 4912   0.183   0.439   9.392 -1.4021 -1.2130  1.5967
   62SAPC  C213 4913   0.191   0.659   9.376  0.1334  0.3840  0.1832
   62SAPC  H13R 4914   0.170   0.752   9.433 -1.5427 -0.4278  0.9727
   62SAPC  H13S 4915   0.098   0.638   9.319  0.5714 -1.3335  0.0336
   62SAPC  C214 4916   0.305   0.670   9.276  0.8548  0.0007 -0.8282
   62SAPC  H14R 4917   0.406   0.658   9.318  0.8385  1.0042 -0.4781
   62SAPC  C215 4918   0.291   0.683   9.141 -0.0021  1.1071  0.5862
   62SAPC  H15R 4919   0.382   0.689   9.081 -0.5882 -1.4463 -0.6892
   62SAPC  C216 4920   0.155   0.672   9.063  0.3866  0.2385 -0.3585
   62SAPC  H16R 4921   0.089   0.759   9.083 -1.3814 -1.1172 -0.0361
   62SAPC  H16S 4922   0.101   0.587   9.109  0.2475  0.7282  0.4051
   62SAPC  C217 4923   0.163   0.643   8.915 -0.1086  0.2947  0.2748
   62SAPC  H17R 4924   0.063   0.630   8.868  0.4396 -1.5521 -0.4886
   62SAPC  H17S 4925   0.208   0.543   8.899 -1.7527 -0.3677 -0.4578
   62SAPC  C218 4926   0.241   0.744   8.836 -0.4725 -0.4412 -0.1305
   62SAPC  H18R 4927   0.344   0.763   8.873 -0.2104 -0.4477 -0.8275
   62SAPC  H18S 4928   0.194   0.844   8.837  0.2303 -0.1135  0.6268
   62SAPC  C219 4929   0.260   0.696   8.692 -0.4172  0.1604  0.1095
   62SAPC  H19R 4930   0.165   0.671   8.640 -0.0187 -1.9315  0.3292
   62SAPC  H19S 4931   0.308   0.596   8.695 -0.7840  0.0081  1.7106
   62SAPC  C220 4932   0.350   0.793   8.611 -0.1254  0.2399  0.1869
   62SAPC  H20R 4933   0.459   0.784   8.633 -0.3749 -0.9146  1.1188
   62SAPC  H20S 4934   0.318   0.899   8.622 -0.6298  0.0710  0.3380
   62SAPC  H20T 4935   0.341   0.768   8.504  0.5286 -0.2812  0.2462
   62SAPC   C33 4936   1.156   0.575  10.060 -0.6628  0.4133 -0.3924
   62SAPC   H3X 4937   1.144   0.476  10.108 -0.9861  1.6954  2.3558
   62SAPC   H3Y 4938   1.258   0.608  10.088 -0.9591 -0.1309  1.4295
   62SAPC   C34 4939   1.125   0.571   9.906 -0.1783 -0.1277  0.0722
   62SAPC   H4X 4940   1.133   0.672   9.862 -2.7351  0.6348  1.1352
   62SAPC   H4Y 4941   1.022   0.533   9.891 -0.3666  1.3704 -3.4137
   62SAPC   C35 4942   1.225   0.484   9.824  0.1213 -0.1855 -0.1302
   62SAPC   H5X 4943   1.223   0.380   9.863 -1.2241 -0.1778 -0.1481
   62SAPC   H5Y 4944   1.327   0.523   9.842  0.7752 -1.8054 -0.1712
   62SAPC   C36 4945   1.217   0.474   9.674 -0.3556 -0.5026 -0.2273
   62SAPC   H6X 4946   1.223   0.571   9.621 -0.4582 -0.8598 -0.9057
   62SAPC   H6Y 4947   1.120   0.434   9.637  0.0806 -1.1044 -0.7566
   62SAPC   C37 4948   1.335   0.392   9.613  0.1823 -0.0378 -0.4015
   62SAPC   H7X 4949   1.338   0.291   9.657 -1.4297 -0.9968 -2.3082
   62SAPC   H7Y 4950   1.430   0.445   9.635  1.0354 -1.8249  0.3351
   62SAPC   C38 4951   1.330   0.381   9.458  0.2644 -0.1017 -0.7155
   62SAPC   H8X 4952   1.309   0.480   9.414  1.9253  0.1903 -0.9329
   62SAPC   H8Y 4953   1.245   0.318   9.425  0.9478 -0.7024 -1.3961
   62SAPC   C39 4954   1.464   0.311   9.403  0.3581 -0.3741  0.3624
   62SAPC   H9X 4955   1.482   0.224   9.470  1.2554 -0.6752 -0.2425
   62SAPC   H9Y 4956   1.544   0.388   9.404  2.1425 -2.0823  2.8513
   62SAPC  C310 4957   1.445   0.255   9.264  0.5434 -0.3649  0.7261
   62SAPC  H10X 4958   1.402   0.331   9.196  2.1623  0.4746  0.5950
   62SAPC  H10Y 4959   1.378   0.167   9.275 -1.7628  1.0376 -1.1586
   62SAPC  C311 4960   1.573   0.192   9.204 -0.3302 -0.3679 -0.3023
   62SAPC  H11X 4961   1.608   0.135   9.293  1.3580  0.2089 -0.5636
   62SAPC  H11Y 4962   1.634   0.283   9.189 -0.5314 -0.3808 -1.2456
   62SAPC  C312 4963   1.563   0.100   9.080  0.1598 -0.3959  0.1064
   62SAPC  H12X 4964   1.488   0.025   9.114  0.8621 -1.7236 -1.1316
   62SAPC  H12Y 4965   1.657   0.046   9.054  0.2382 -0.1296 -0.1711
   62SAPC  C313 4966   1.516   0.186   8.960 -0.2008  0.4728  0.4635
   62SAPC  H13X 4967   1.584   0.273   8.950  0.9632 -0.3587  0.8988
   62SAPC  H13Y 4968   1.410   0.216   8.973 -0.1987  0.1599  1.2609
   62SAPC  C314 4969   1.501   0.105   8.835 -0.2241 -0.2498 -0.2568
   62SAPC  H14X 4970   1.421   0.030   8.852  0.7211 -1.2462 -0.1004
   62SAPC  H14Y 4971   1.599   0.060   8.807  0.1241  0.6485 -0.5268
   62SAPC  C315 4972   1.454   0.209   8.721  0.7541  0.5901 -0.5071
   62SAPC  H15X 4973   1.368   0.261   8.768  1.8387  2.1555 -0.1906
   62SAPC  H15Y 4974   1.415   0.154   8.633  0.3940  0.0172  0.0082
   62SAPC  C316 4975   1.563   0.306   8.670  0.3389  0.1451 -0.7298
   62SAPC  H16X 4976   1.647   0.239   8.643 -0.0081 -0.0477 -1.3443
   62SAPC  H16Y 4977   1.601   0.369   8.754  3.3443  0.9712 -2.5702
   62SAPC  C317 4978   1.521   0.380   8.540 -0.4477  0.4393  0.3276
   62SAPC  H17X 4979   1.433   0.442   8.565 -0.3373  0.4694  0.6480
   62SAPC  H17Y 4980   1.493   0.293   8.477 -0.3425  0.7079 -0.0899
   62SAPC  C318 4981   1.630   0.468   8.480  0.3022  0.0383 -0.8957
   62SAPC  H18X 4982   1.657   0.445   8.375 -0.3564  0.1180 -1.0800
   62SAPC  H18Y 4983   1.723   0.450   8.538  0.0712 -4.1383 -1.5058
   62SAPC  H18Z 4984   1.587   0.570   8.482 -0.2946 -0.2184  0.2059
   63SAPC     N 4985   3.665   2.655   6.221  0.6906  0.4882  0.4807
   63SAPC   C12 4986   3.733   2.738   6.318  0.4231 -0.3523  0.0213
   63SAPC  H12A 4987   3.818   2.794   6.283 -0.6501  1.7744  0.5949
   63SAPC  H12B 4988   3.771   2.672   6.395  1.3286 -1.3667 -1.2604
   63SAPC   C13 4989   3.631   2.740   6.102 -0.7651 -1.1337  0.3276
   63SAPC  H13A 4990   3.587   2.682   6.022 -1.2469  0.3031 -0.4963
   63SAPC  H13B 4991   3.569   2.823   6.134  1.1750  0.4764  0.1125
   63SAPC  H13C 4992   3.720   2.790   6.065  0.2006 -3.2173 -0.2882
   63SAPC   C14 4993   3.765   2.552   6.182  0.2075  0.6064  0.1409
   63SAPC  H14A 4994   3.854   2.606   6.155 -0.2480  2.3167  1.8298
   63SAPC  H14B 4995   3.791   2.492   6.268 -1.9647  0.6727  0.9110
   63SAPC  H14C 4996   3.726   2.478   6.114  1.1596 -1.3155  1.5778
   63SAPC   C15 4997   3.542   2.591   6.262 -0.1333  0.2537 -0.4170
   63SAPC  H15A 4998   3.468   2.664   6.289  0.8412  1.0048  0.2855
   63SAPC  H15B 4999   3.502   2.530   6.182  2.4089 -2.0474 -0.0647
   63SAPC  H15C 5000   3.549   2.525   6.348 -0.0754  2.7094  1.5869
   63SAPC   C11 5001   3.655   2.856   6.390 -0.2528  0.7816 -0.6928
   63SAPC  H11A 5002   3.717   2.887   6.477 -1.6212  0.0775  0.5934
   63SAPC  H11B 5003   3.558   2.819   6.429 -0.1366  1.0930 -0.0898
   63SAPC     P 5004   3.745   3.055   6.244 -0.1531 -0.1627 -0.0095
   63SAPC   O13 5005   3.877   2.989   6.265 -0.4796 -0.8757 -0.4600
   63SAPC   O14 5006   3.721   3.096   6.102  0.0105  0.8451  0.3040
   63SAPC   O12 5007   3.631   2.961   6.298 -0.1464 -0.1803 -0.0445
   63SAPC   O11 5008   3.724   3.176   6.341  0.3134  0.1856 -0.1117
   63SAPC    C1 5009   3.598   3.247   6.341 -0.0533 -0.2533 -0.4173
   63SAPC    HA 5010   3.602   3.345   6.289 -2.7451  0.8134  1.1602
   63SAPC    HB 5011   3.516   3.198   6.285 -1.3080 -0.3723  1.4298
   63SAPC    C2 5012   3.556   3.271   6.490  0.1597  0.2073 -0.4067
   63SAPC    HS 5013   3.462   3.331   6.488 -0.0268 -0.0987 -0.8735
   63SAPC   O21 5014   3.660   3.336   6.572 -0.4021  0.6096 -0.5619
   63SAPC   C21 5015   3.681   3.464   6.538  0.3960 -0.6439 -0.1618
   63SAPC   O22 5016   3.595   3.529   6.474 -0.3858 -0.0048 -0.0249
   63SAPC   C22 5017   3.805   3.526   6.606 -0.2535  0.3072 -0.1075
   63SAPC   H2R 5018   3.774   3.580   6.698  0.4700  3.0408 -1.3580
   63SAPC   H2S 5019   3.881   3.445   6.617 -0.7500 -0.9638 -4.2213
   63SAPC    C3 5020   3.539   3.136   6.553 -0.1421  0.4833 -0.5498
   63SAPC    HX 5021   3.632   3.077   6.537 -0.1566  0.4867 -0.6425
   63SAPC    HY 5022   3.465   3.077   6.496 -0.4645 -0.6443  0.9748
   63SAPC   O31 5023   3.503   3.149   6.690 -0.2452  0.6490  0.3543
   63SAPC   C31 5024   3.601   3.138   6.779  0.0060 -0.3076  0.8110
   63SAPC   O32 5025   3.716   3.100   6.764  0.7743 -0.1901 -0.2912
   63SAPC   C32 5026   3.539   3.182   6.914  0.2818  0.4815  0.2967
   63SAPC   H2X 5027   3.578   3.111   6.990  2.4115  1.2860  0.0259
   63SAPC   H2Y 5028   3.428   3.180   6.906  0.2449  2.7173 -0.2786
   63SAPC   C23 5029   3.876   3.639   6.519 -0.2732 -0.1657  0.3276
   63SAPC   H3R 5030   3.798   3.696   6.464 -0.8437  0.8571  2.1293
   63SAPC   H3S 5031   3.931   3.586   6.438  1.7055  1.4491  0.5224
   63SAPC   C24 5032   3.952   3.730   6.613 -0.7784 -0.4706 -0.0449
   63SAPC   H4R 5033   4.030   3.670   6.664  0.6910  0.1065 -1.4964
   63SAPC   H4S 5034   3.882   3.769   6.690 -0.7795  0.4005 -0.4708
   63SAPC   C25 5035   4.016   3.851   6.542 -0.0357  0.1259  0.0114
   63SAPC   H5R 5036   4.001   3.851   6.433 -0.8001 -1.4157  0.0931
   63SAPC   C26 5037   4.085   3.944   6.609  0.9303  0.4702  0.2018
   63SAPC   H6R 5038   4.110   4.029   6.544 -2.2121  1.0144 -0.4552
   63SAPC   C27 5039   4.115   3.940   6.758  0.9007 -0.6777  0.0929
   63SAPC   H7R 5040   4.128   3.841   6.805 -0.2725  0.3280  2.7346
   63SAPC   H7S 5041   4.028   3.978   6.817  0.7694 -2.0444  0.8119
   63SAPC   C28 5042   4.236   4.017   6.788 -0.1008 -0.0784 -0.2510
   63SAPC   H8R 5043   4.329   3.962   6.806  0.6012  0.6901 -1.4077
   63SAPC   C29 5044   4.238   4.153   6.816  0.4637  0.2304  0.0102
   63SAPC   H9R 5045   4.330   4.200   6.855  0.4923  1.2473 -1.2120
   63SAPC  C210 5046   4.131   4.257   6.804  0.2481  0.0268  0.6041
   63SAPC  H10R 5047   4.047   4.229   6.871  0.1319 -0.8620  0.0944
   63SAPC  H10S 5048   4.089   4.265   6.702 -0.2217 -1.4966  0.6515
   63SAPC  C211 5049   4.185   4.391   6.835 -0.0525  1.2829 -0.7470
   63SAPC  H11R 5050   4.227   4.449   6.752 -1.4602  1.1861 -1.5564
   63SAPC  C212 5051   4.206   4.435   6.960 -0.3979 -0.8053  0.5258
   63SAPC  H12R 5052   4.240   4.539   6.969  0.6101 -0.6532 -3.3588
   63SAPC  C213 5053   4.182   4.363   7.092  0.0493  0.1065  0.6470
   63SAPC  H13R 5054   4.279   4.318   7.122  0.0371 -0.7526 -0.5051
   63SAPC  H13S 5055   4.110   4.280   7.080 -1.6823  1.6681 -0.4641
   63SAPC  C214 5056   4.130   4.456   7.193 -0.0366 -0.6094 -1.2089
   63SAPC  H14R 5057   4.083   4.541   7.141  1.3436 -0.6797 -2.6920
   63SAPC  C215 5058   4.154   4.439   7.324 -0.3663  0.0986 -0.8215
   63SAPC  H15R 5059   4.118   4.509   7.400 -1.6666 -0.4923 -0.8744
   63SAPC  C216 5060   4.226   4.321   7.386  0.5638 -0.2913  0.3519
   63SAPC  H16R 5061   4.331   4.306   7.356  0.5790 -0.9586  0.7112
   63SAPC  H16S 5062   4.172   4.230   7.350 -0.2615  0.3017  0.0530
   63SAPC  C217 5063   4.226   4.316   7.541 -0.1504 -0.0478 -0.0456
   63SAPC  H17R 5064   4.127   4.332   7.589  0.8754 -0.4353  2.3301
   63SAPC  H17S 5065   4.286   4.405   7.567  0.8932 -0.4940 -0.8632
   63SAPC  C218 5066   4.284   4.187   7.601 -0.1616  0.9718  0.9029
   63SAPC  H18R 5067   4.339   4.193   7.697 -0.7555  0.0696  1.3112
   63SAPC  H18S 5068   4.350   4.144   7.523 -0.7012 -1.2748  1.6112
   63SAPC  C219 5069   4.178   4.070   7.615  0.1102  0.1687 -0.9039
   63SAPC  H19R 5070   4.123   4.050   7.521 -1.0191 -3.5853  0.3619
   63SAPC  H19S 5071   4.106   4.109   7.690  0.5703 -0.9557  0.1622
   63SAPC  C220 5072   4.223   3.934   7.660  0.4192 -0.8634 -0.1617
   63SAPC  H20R 5073   4.278   3.880   7.580 -0.0715 -0.1457 -1.0023
   63SAPC  H20S 5074   4.152   3.856   7.694  2.2589 -2.5166  0.1138
   63SAPC  H20T 5075   4.303   3.946   7.737  0.8344 -0.3309 -0.6615
   63SAPC   C33 5076   3.570   3.327   6.943 -0.3451 -0.0685 -0.4936
   63SAPC   H3X 5077   3.501   3.386   6.878 -2.4823  0.9600  2.4997
   63SAPC   H3Y 5078   3.679   3.346   6.933  0.3079 -2.5435  1.0594
   63SAPC   C34 5079   3.535   3.365   7.089  0.7492 -0.3622 -0.0158
   63SAPC   H4X 5080   3.425   3.357   7.099  0.4460  2.9288  0.4704
   63SAPC   H4Y 5081   3.562   3.473   7.090  0.8784 -0.3948  0.1166
   63SAPC   C35 5082   3.610   3.290   7.202 -0.1364 -0.3738  0.1606
   63SAPC   H5X 5083   3.716   3.280   7.172 -0.2087 -0.9777  0.0853
   63SAPC   H5Y 5084   3.572   3.186   7.213  0.7930 -0.8308 -0.7352
   63SAPC   C36 5085   3.606   3.363   7.343  0.5094 -0.1802 -0.2495
   63SAPC   H6X 5086   3.507   3.412   7.358  1.1786  0.5274  2.4071
   63SAPC   H6Y 5087   3.678   3.447   7.331 -0.3684  0.6384  0.0962
   63SAPC   C37 5088   3.647   3.285   7.465 -0.5782  0.6595  0.5346
   63SAPC   H7X 5089   3.753   3.307   7.489 -0.3832  0.1430  0.1594
   63SAPC   H7Y 5090   3.652   3.177   7.442  1.9932  1.1584 -1.7899
   63SAPC   C38 5091   3.573   3.300   7.599  0.4376 -0.1533  0.3102
   63SAPC   H8X 5092   3.577   3.406   7.633 -3.4234 -0.2058  1.4535
   63SAPC   H8Y 5093   3.635   3.247   7.674  0.1353 -1.2730 -0.2128
   63SAPC   C39 5094   3.420   3.261   7.604 -0.3835  0.0744  0.0405
   63SAPC   H9X 5095   3.413   3.164   7.551  1.1641  0.2634 -0.5802
   63SAPC   H9Y 5096   3.378   3.336   7.533  2.4247  0.9719 -0.8108
   63SAPC  C310 5097   3.355   3.251   7.741  0.3212  0.7180 -1.0322
   63SAPC  H10X 5098   3.402   3.180   7.812 -2.4340 -0.2152 -0.0052
   63SAPC  H10Y 5099   3.252   3.213   7.722  1.5532 -2.6367 -1.7139
   63SAPC  C311 5100   3.346   3.383   7.818  0.5582 -0.1016  0.5197
   63SAPC  H11X 5101   3.298   3.458   7.751  0.3107 -0.2963  0.4772
   63SAPC  H11Y 5102   3.444   3.425   7.850  0.9209 -3.4986  4.7582
   63SAPC  C312 5103   3.265   3.381   7.954 -0.7160 -0.1793  0.2997
   63SAPC  H12X 5104   3.173   3.320   7.945 -1.0997  0.3095  0.8192
   63SAPC  H12Y 5105   3.238   3.488   7.970 -4.2223 -0.6205 -1.8042
   63SAPC  C313 5106   3.345   3.345   8.079  0.0288  0.5773  0.6262
   63SAPC  H13X 5107   3.438   3.406   8.084  0.5818 -0.3203  1.8237
   63SAPC  H13Y 5108   3.371   3.238   8.069 -1.2022  0.3107  0.1742
   63SAPC  C314 5109   3.261   3.364   8.210 -0.4773  0.0043 -0.0709
   63SAPC  H14X 5110   3.209   3.268   8.230 -1.6620  0.1769 -2.1013
   63SAPC  H14Y 5111   3.177   3.431   8.181 -0.4970 -0.6962 -1.7280
   63SAPC  C315 5112   3.342   3.425   8.326 -0.2207  0.3798 -0.1380
   63SAPC  H15X 5113   3.276   3.451   8.411  0.0120 -0.8417  0.4339
   63SAPC  H15Y 5114   3.392   3.520   8.297 -0.2839  0.7376  0.8614
   63SAPC  C316 5115   3.452   3.329   8.380  0.4435  0.4355 -1.0946
   63SAPC  H16X 5116   3.498   3.265   8.301  1.0116 -1.2649  0.5499
   63SAPC  H16Y 5117   3.404   3.257   8.450  0.1670  0.3984 -1.3171
   63SAPC  C317 5118   3.564   3.399   8.458  0.1983 -0.2381 -0.3767
   63SAPC  H17X 5119   3.605   3.478   8.392 -1.3156 -0.7962 -2.0527
   63SAPC  H17Y 5120   3.656   3.338   8.473  0.1224 -0.5969 -1.2985
   63SAPC  C318 5121   3.527   3.458   8.590 -0.3833 -0.2305 -0.0704
   63SAPC  H18X 5122   3.507   3.567   8.581  5.3466  1.0497 -1.3555
   63SAPC  H18Y 5123   3.605   3.466   8.669 -0.1996  3.3920 -0.4850
   63SAPC  H18Z 5124   3.439   3.408   8.636 -0.6178  0.6155  0.4172
   64SAPC     N 5125   6.553   2.682   5.878  0.1463 -0.3556 -0.3533
   64SAPC   C12 5126   6.660   2.591   5.817 -0.1997 -0.6326  0.3343
   64SAPC  H12A 5127   6.758   2.635   5.830 -0.4701 -0.0829  0.5374
   64SAPC  H12B 5128   6.648   2.571   5.712 -0.1670 -0.8493  0.3721
   64SAPC   C13 5129   6.426   2.605   5.890 -0.3844  0.0322  0.6869
   64SAPC  H13A 5130   6.451   2.529   5.962  1.6445 -1.1900 -1.1685
   64SAPC  H13B 5131   6.346   2.670   5.923  0.4171  0.3999  2.0152
   64SAPC  H13C 5132   6.389   2.560   5.799 -0.7139  0.6857  0.4917
   64SAPC   C14 5133   6.590   2.727   6.013  0.0385 -0.5201 -0.0338
   64SAPC  H14A 5134   6.499   2.763   6.058 -0.6224 -1.1224 -0.8749
   64SAPC  H14B 5135   6.634   2.645   6.068  1.7880 -1.0091 -2.0430
   64SAPC  H14C 5136   6.670   2.800   6.016  0.0919 -0.4933 -1.4447
   64SAPC   C15 5137   6.527   2.810   5.797  0.0004  0.1910  0.2236
   64SAPC  H15A 5138   6.618   2.866   5.781 -0.6537  1.6055  1.3076
   64SAPC  H15B 5139   6.474   2.780   5.708 -2.5962 -0.3099  1.8321
   64SAPC  H15C 5140   6.464   2.874   5.856  0.5451  0.3292  0.6651
   64SAPC   C11 5141   6.671   2.453   5.878 -0.4670  0.1176 -0.3552
   64SAPC  H11A 5142   6.773   2.432   5.838 -0.4791  1.0350 -0.8904
   64SAPC  H11B 5143   6.610   2.372   5.833  1.5933 -0.3485 -2.5295
   64SAPC     P 5144   6.599   2.351   6.116 -0.0471  0.2172 -0.2191
   64SAPC   O13 5145   6.456   2.385   6.109  0.0173  0.0554  0.1455
   64SAPC   O14 5146   6.643   2.214   6.099  0.7265  0.2580 -0.1703
   64SAPC   O12 5147   6.684   2.448   6.024  0.0355 -0.1648 -0.1792
   64SAPC   O11 5148   6.647   2.400   6.260  0.2188  0.2943  0.3765
   64SAPC    C1 5149   6.784   2.366   6.303  0.9439 -0.2133 -0.7096
   64SAPC    HA 5150   6.850   2.348   6.215 -0.0668 -0.1365 -1.5054
   64SAPC    HB 5151   6.825   2.446   6.368 -2.0219  1.8891 -1.2114
   64SAPC    C2 5152   6.787   2.234   6.388 -0.6792 -0.3018  0.0304
   64SAPC    HS 5153   6.726   2.162   6.329 -0.7945  0.4846 -0.8329
   64SAPC   O21 5154   6.729   2.261   6.513  0.4646 -0.0403 -0.2644
   64SAPC   C21 5155   6.637   2.178   6.561 -0.4906  0.3725 -0.1911
   64SAPC   O22 5156   6.579   2.089   6.501  0.0439 -0.5567  0.6145
   64SAPC   C22 5157   6.611   2.218   6.704 -0.6019 -0.3700 -0.0558
   64SAPC   H2R 5158   6.664   2.314   6.718  0.6017 -1.0726  0.3370
   64SAPC   H2S 5159   6.500   2.223   6.716 -0.6814 -0.6074 -0.6874
   64SAPC    C3 5160   6.931   2.184   6.415 -0.3225 -0.5881  0.5808
   64SAPC    HX 5161   7.000   2.261   6.457  1.4874 -1.2705 -0.9880
   64SAPC    HY 5162   6.961   2.151   6.313  1.2810  1.3379  0.3600
   64SAPC   O31 5163   6.926   2.081   6.512  0.7623  0.5505  0.0756
   64SAPC   C31 5164   6.917   1.954   6.479 -0.1149 -0.3033  0.2482
   64SAPC   O32 5165   6.908   1.908   6.366  0.3308  0.6618 -0.4328
   64SAPC   C32 5166   6.924   1.875   6.605  0.2126 -0.1590  0.3130
   64SAPC   H2X 5167   6.934   1.770   6.569 -1.8138  0.5886 -2.8677
   64SAPC   H2Y 5168   6.837   1.903   6.667  0.6221  0.0057  0.8195
   64SAPC   C23 5169   6.676   2.113   6.797  0.0554  0.6142 -0.3029
   64SAPC   H3R 5170   6.776   2.077   6.763 -0.4370 -0.6663 -0.4479
   64SAPC   H3S 5171   6.607   2.027   6.785  1.3072 -0.4716  0.0252
   64SAPC   C24 5172   6.682   2.163   6.940 -0.1477  0.6557 -0.5506
   64SAPC   H4R 5173   6.679   2.075   7.008 -0.0499 -0.9217 -2.5247
   64SAPC   H4S 5174   6.590   2.224   6.952 -1.0040 -0.7026 -0.1072
   64SAPC   C25 5175   6.805   2.254   6.964  0.3435  0.2813 -0.2742
   64SAPC   H5R 5176   6.898   2.212   6.922 -0.3103 -1.3438 -0.1695
   64SAPC   C26 5177   6.810   2.364   7.048 -0.1403 -1.0674 -0.2141
   64SAPC   H6R 5178   6.902   2.423   7.054 -1.7972  1.5499  1.7471
   64SAPC   C27 5179   6.702   2.426   7.124  0.1646 -0.1340 -0.1407
   64SAPC   H7R 5180   6.608   2.444   7.068 -1.1498 -1.8393  1.3891
   64SAPC   H7S 5181   6.725   2.531   7.153 -1.2299  0.4903 -1.1981
   64SAPC   C28 5182   6.642   2.350   7.233 -0.0195 -0.6557 -0.0290
   64SAPC   H8R 5183   6.552   2.293   7.205  1.0625 -1.6328 -1.6886
   64SAPC   C29 5184   6.660   2.354   7.370 -0.4340  0.6858 -0.0308
   64SAPC   H9R 5185   6.607   2.282   7.434  1.9160 -0.8882  0.2996
   64SAPC  C210 5186   6.755   2.436   7.445  0.5484 -0.4849 -1.1462
   64SAPC  H10R 5187   6.829   2.491   7.384 -0.9420  3.8121  0.4859
   64SAPC  H10S 5188   6.815   2.368   7.510  2.2189  1.7072 -0.2774
   64SAPC  C211 5189   6.680   2.533   7.538  0.5945 -0.2333 -0.6381
   64SAPC  H11R 5190   6.632   2.619   7.488 -0.5471  0.2671  1.1987
   64SAPC  C212 5191   6.673   2.532   7.679 -0.0969  0.1990  0.0116
   64SAPC  H12R 5192   6.592   2.588   7.729 -1.9385 -1.0595 -1.3824
   64SAPC  C213 5193   6.729   2.432   7.772  0.1148 -0.6643  0.4296
   64SAPC  H13R 5194   6.770   2.351   7.709 -0.9559 -0.3601 -0.6806
   64SAPC  H13S 5195   6.655   2.388   7.842  0.4273  1.2512  2.0964
   64SAPC  C214 5196   6.833   2.499   7.854 -0.3765 -0.3457 -0.0810
   64SAPC  H14R 5197   6.887   2.581   7.805 -2.7225  1.0683 -0.4759
   64SAPC  C215 5198   6.865   2.464   7.983  0.5734  0.1957  0.5398
   64SAPC  H15R 5199   6.948   2.520   8.028 -0.0287  0.7846  0.9428
   64SAPC  C216 5200   6.806   2.355   8.071  0.2652 -0.2420 -0.2651
   64SAPC  H16R 5201   6.855   2.264   8.031  0.8221  0.4425 -1.1750
   64SAPC  H16S 5202   6.697   2.350   8.048  1.1490 -2.2883 -5.0708
   64SAPC  C217 5203   6.847   2.380   8.217 -0.5267  0.5273 -0.2183
   64SAPC  H17R 5204   6.818   2.476   8.265 -0.9377 -0.3663  1.3880
   64SAPC  H17S 5205   6.957   2.378   8.231 -0.5231 -1.2949 -0.2459
   64SAPC  C218 5206   6.782   2.271   8.303  0.3545 -0.7516 -0.0235
   64SAPC  H18R 5207   6.857   2.189   8.299  0.3295 -0.8666  1.2590
   64SAPC  H18S 5208   6.687   2.228   8.266  0.8266 -1.3440 -0.5719
   64SAPC  C219 5209   6.774   2.304   8.454  0.4745  0.5843 -0.3417
   64SAPC  H19R 5210   6.714   2.228   8.509  1.1408 -0.1569 -0.6085
   64SAPC  H19S 5211   6.720   2.399   8.469  1.0581  0.7002  1.1043
   64SAPC  C220 5212   6.907   2.315   8.520 -0.9881 -0.0180 -0.2963
   64SAPC  H20R 5213   6.894   2.360   8.621 -1.1656  0.0613 -0.3527
   64SAPC  H20S 5214   6.974   2.383   8.464 -0.6812 -0.1466 -0.0854
   64SAPC  H20T 5215   6.970   2.224   8.527  0.9518  1.1200 -1.9759
   64SAPC   C33 5216   7.047   1.910   6.684  0.0342 -0.1316 -0.2252
   64SAPC   H3X 5217   7.026   1.983   6.766 -0.5395 -1.9849  1.3540
   64SAPC   H3Y 5218   7.125   1.949   6.614  0.6405 -1.5186 -0.3477
   64SAPC   C34 5219   7.102   1.788   6.760  0.1779 -0.2657  0.1988
   64SAPC   H4X 5220   7.198   1.812   6.811 -0.8155  0.3549  1.8362
   64SAPC   H4Y 5221   7.122   1.712   6.681  1.5293 -0.5205  0.7589
   64SAPC   C35 5222   7.007   1.740   6.864 -0.1593 -0.1741 -0.2037
   64SAPC   H5X 5223   7.014   1.631   6.885 -0.4937  0.1769  1.8882
   64SAPC   H5Y 5224   6.904   1.752   6.825 -0.5845 -1.8409  0.3152
   64SAPC   C36 5225   7.019   1.816   6.999 -1.2266  0.4768 -0.3416
   64SAPC   H6X 5226   6.987   1.922   6.993 -1.1994  0.3954 -2.3914
   64SAPC   H6Y 5227   7.128   1.827   7.018 -0.9763  1.3976 -2.0825
   64SAPC   C37 5228   6.954   1.751   7.123 -0.6603  0.2464 -0.6071
   64SAPC   H7X 5229   7.009   1.655   7.135  2.8609  1.8111 -2.7918
   64SAPC   H7Y 5230   6.849   1.726   7.096 -0.8354  0.5417 -0.2095
   64SAPC   C38 5231   6.974   1.839   7.243 -0.0292 -0.3013 -0.4931
   64SAPC   H8X 5232   7.075   1.884   7.247 -1.2050  2.4082  1.5179
   64SAPC   H8Y 5233   6.965   1.774   7.333  0.1193  0.4088  0.0397
   64SAPC   C39 5234   6.875   1.954   7.250 -0.0486  0.4632  0.3303
   64SAPC   H9X 5235   6.779   1.899   7.248 -0.4184  1.0748 -2.2603
   64SAPC   H9Y 5236   6.898   2.020   7.164  0.1396  0.1425  0.1330
   64SAPC  C310 5237   6.885   2.042   7.378 -0.5099  0.1057  0.5419
   64SAPC  H10X 5238   6.828   2.132   7.347  1.0838  0.6465 -0.9574
   64SAPC  H10Y 5239   6.989   2.078   7.391  0.4592 -1.0671 -2.9355
   64SAPC  C311 5240   6.821   1.963   7.495 -0.4443 -0.4085 -0.0713
   64SAPC  H11X 5241   6.872   1.865   7.506 -0.4249 -0.5846 -1.4652
   64SAPC  H11Y 5242   6.714   1.938   7.480 -0.2389 -1.1427 -0.3671
   64SAPC  C312 5243   6.841   2.038   7.629 -0.3373 -0.4195 -0.1051
   64SAPC  H12X 5244   6.815   1.968   7.712 -3.2885 -0.7114 -1.1443
   64SAPC  H12Y 5245   6.760   2.113   7.642 -0.0898  0.2114 -1.9575
   64SAPC  C313 5246   6.977   2.112   7.658 -0.0862 -0.5236 -0.2840
   64SAPC  H13X 5247   6.953   2.212   7.616 -0.4602  0.0036  1.1165
   64SAPC  H13Y 5248   7.055   2.057   7.601 -1.7449 -0.8689 -2.3101
   64SAPC  C314 5249   7.012   2.126   7.809 -0.8835  0.0108 -0.5383
   64SAPC  H14X 5250   7.025   2.027   7.857 -0.6312  0.1813 -0.2452
   64SAPC  H14Y 5251   6.925   2.181   7.850  0.6597  1.6368  0.7477
   64SAPC  C315 5252   7.133   2.220   7.831 -0.0693  0.7685  0.4413
   64SAPC  H15X 5253   7.124   2.317   7.777 -0.9052  2.2061  2.9856
   64SAPC  H15Y 5254   7.216   2.167   7.779  0.0518  1.0037  0.3939
   64SAPC  C316 5255   7.166   2.253   7.978  0.6632  0.5986 -0.4738
   64SAPC  H16X 5256   7.091   2.325   8.017  0.0305 -0.5354  0.4802
   64SAPC  H16Y 5257   7.268   2.297   7.979 -0.6049  3.7971  1.1519
   64SAPC  C317 5258   7.176   2.129   8.065 -0.4132  0.1915 -0.7081
   64SAPC  H17X 5259   7.255   2.067   8.016 -0.9185 -1.1366  0.0893
   64SAPC  H17Y 5260   7.077   2.079   8.066 -1.1851  1.6576 -0.3752
   64SAPC  C318 5261   7.213   2.152   8.210 -0.2936  0.4028  0.0890
   64SAPC  H18X 5262   7.124   2.184   8.268 -0.5527 -0.6246  0.2743
   64SAPC  H18Y 5263   7.302   2.214   8.236  0.1317 -0.3946  0.5679
   64SAPC  H18Z 5264   7.246   2.052   8.245 -0.3238  0.5204  0.4618
   65SAPC     N 5265   2.377   1.907   5.922 -0.1117 -0.4579  0.4442
   65SAPC   C12 5266   2.430   1.900   6.064 -0.6549 -0.0951 -0.5382
   65SAPC  H12A 5267   2.519   1.840   6.069 -0.1335  0.7647  1.9255
   65SAPC  H12B 5268   2.357   1.837   6.114 -0.8755 -1.4460 -2.4555
   65SAPC   C13 5269   2.355   1.770   5.858  0.0858  0.1687  0.5012
   65SAPC  H13A 5270   2.280   1.716   5.914  0.1301 -1.0489 -0.5522
   65SAPC  H13B 5271   2.316   1.773   5.757 -2.3402 -1.0710  1.3142
   65SAPC  H13C 5272   2.448   1.716   5.864  0.3082  0.6584  1.6021
   65SAPC   C14 5273   2.245   1.988   5.929  0.2706  0.6582 -0.3992
   65SAPC  H14A 5274   2.185   1.935   6.002  0.1574 -0.2792 -1.1513
   65SAPC  H14B 5275   2.259   2.089   5.964  3.1437  0.7561 -1.5226
   65SAPC  H14C 5276   2.193   1.983   5.835 -1.2651 -2.6804  0.4759
   65SAPC   C15 5277   2.483   1.975   5.838  0.1216 -0.2155 -0.8569
   65SAPC  H15A 5278   2.454   1.964   5.734  0.4034 -0.7798 -0.8748
   65SAPC  H15B 5279   2.493   2.081   5.857 -0.9756 -0.2553  0.0645
   65SAPC  H15C 5280   2.578   1.926   5.849 -0.5148 -0.7905  4.1133
   65SAPC   C11 5281   2.453   2.030   6.142 -0.0297 -0.6261 -0.1367
   65SAPC  H11A 5282   2.514   2.099   6.079 -1.0015  0.6037  0.2116
   65SAPC  H11B 5283   2.512   2.018   6.235 -1.9327 -1.0621  1.0785
   65SAPC     P 5284   2.245   2.066   6.300 -0.1188  0.2185  0.0834
   65SAPC   O13 5285   2.135   2.160   6.319 -0.0949 -0.3351 -0.6074
   65SAPC   O14 5286   2.196   1.928   6.276  0.7648  0.2677  0.1520
   65SAPC   O12 5287   2.331   2.107   6.173  0.7708 -0.1306 -0.0525
   65SAPC   O11 5288   2.344   2.074   6.422 -0.2136 -0.1076 -0.4787
   65SAPC    C1 5289   2.403   2.203   6.453 -0.3111 -1.0143  0.3797
   65SAPC    HA 5290   2.507   2.171   6.479 -0.3278 -2.0318 -0.7006
   65SAPC    HB 5291   2.413   2.271   6.366 -1.6111 -1.0241  0.2071
   65SAPC    C2 5292   2.348   2.281   6.577 -0.1222 -0.2625  0.3660
   65SAPC    HS 5293   2.419   2.364   6.594 -0.9542  0.6169 -0.2948
   65SAPC   O21 5294   2.358   2.193   6.686 -1.0179  0.1881  0.1968
   65SAPC   C21 5295   2.404   2.243   6.799  0.0823  0.7422  0.6009
   65SAPC   O22 5296   2.443   2.356   6.818 -0.4058 -0.3665 -0.8329
   65SAPC   C22 5297   2.388   2.140   6.906  0.6709 -0.1999  0.6868
   65SAPC   H2R 5298   2.280   2.138   6.932  0.2891 -1.3428 -0.8228
   65SAPC   H2S 5299   2.409   2.048   6.848  1.0860  2.0557 -3.1053
   65SAPC    C3 5300   2.204   2.333   6.564  0.1538 -0.4886 -0.1348
   65SAPC    HX 5301   2.141   2.242   6.567  0.8447 -0.9841 -0.2851
   65SAPC    HY 5302   2.198   2.376   6.461 -4.8197 -0.9664 -0.2626
   65SAPC   O31 5303   2.171   2.428   6.670  0.0777  0.4124  0.4139
   65SAPC   C31 5304   2.048   2.469   6.668  0.1386 -0.0171  0.0465
   65SAPC   O32 5305   1.968   2.444   6.577 -0.1183 -0.0970 -0.1190
   65SAPC   C32 5306   2.009   2.556   6.789 -0.3824 -0.3883  0.0966
   65SAPC   H2X 5307   1.971   2.650   6.743  1.1671 -0.4796 -1.4534
   65SAPC   H2Y 5308   2.103   2.594   6.834  0.3602 -0.5212 -1.2886
   65SAPC   C23 5309   2.473   2.161   7.035 -0.2234 -0.0242 -1.1274
   65SAPC   H3R 5310   2.449   2.264   7.071 -1.1755 -0.8348  0.6745
   65SAPC   H3S 5311   2.579   2.157   7.001 -0.1036 -2.1554 -0.6185
   65SAPC   C24 5312   2.454   2.053   7.148 -0.5785 -0.6221 -0.0520
   65SAPC   H4R 5313   2.503   1.959   7.112  3.4850  1.6558 -1.0593
   65SAPC   H4S 5314   2.346   2.037   7.166 -0.9222  0.0934 -1.3721
   65SAPC   C25 5315   2.528   2.085   7.274  0.3414  0.0843 -0.7765
   65SAPC   H5R 5316   2.606   2.017   7.308 -1.0688 -0.6562  1.1431
   65SAPC   C26 5317   2.487   2.178   7.367 -0.0643  0.3020 -0.1281
   65SAPC   H6R 5318   2.556   2.188   7.452  0.4432 -0.0112 -0.4999
   65SAPC   C27 5319   2.371   2.267   7.368  0.5310  0.7549  0.0123
   65SAPC   H7R 5320   2.324   2.273   7.469  1.7369  0.7157  0.5891
   65SAPC   H7S 5321   2.295   2.239   7.292  0.0570 -0.5106  0.9326
   65SAPC   C28 5322   2.404   2.405   7.318  0.3982 -0.1470  0.6391
   65SAPC   H8R 5323   2.410   2.417   7.209  0.2794 -3.0872  0.2181
   65SAPC   C29 5324   2.395   2.517   7.397 -0.0319  0.1445  0.6785
   65SAPC   H9R 5325   2.404   2.611   7.340 -0.5584  0.6251  1.3659
   65SAPC  C210 5326   2.368   2.522   7.538 -0.2015 -0.3715  0.2097
   65SAPC  H10R 5327   2.345   2.428   7.593  1.6954  0.0560  1.8402
   65SAPC  H10S 5328   2.284   2.593   7.551  0.1190  0.4109 -1.6849
   65SAPC  C211 5329   2.477   2.596   7.612 -0.2812  0.4025  0.1384
   65SAPC  H11R 5330   2.566   2.534   7.632  1.3223  1.7951 -2.2402
   65SAPC  C212 5331   2.489   2.722   7.652  0.4461 -0.1595 -0.0742
   65SAPC  H12R 5332   2.585   2.748   7.699  0.6485 -0.4081 -0.3482
   65SAPC  C213 5333   2.385   2.837   7.626  0.5180 -0.7106  0.6140
   65SAPC  H13R 5334   2.323   2.866   7.713  4.0107  0.0481  3.0543
   65SAPC  H13S 5335   2.306   2.812   7.551  0.4815  0.6828  0.1726
   65SAPC  C214 5336   2.455   2.963   7.575  0.7141 -0.1245  0.9190
   65SAPC  H14R 5337   2.446   2.976   7.466 -2.3152  2.2573  1.3112
   65SAPC  C215 5338   2.530   3.052   7.642 -0.6254  0.3622 -0.2444
   65SAPC  H15R 5339   2.569   3.135   7.583  1.6580 -0.6481 -0.2714
   65SAPC  C216 5340   2.570   3.038   7.788 -0.6151 -0.6531 -0.1672
   65SAPC  H16R 5341   2.551   2.935   7.826  1.0702 -0.8496  0.2358
   65SAPC  H16S 5342   2.520   3.114   7.851  3.0488  1.1032  0.8764
   65SAPC  C217 5343   2.719   3.072   7.816  0.8064 -0.0542  0.6805
   65SAPC  H17R 5344   2.726   3.091   7.925  0.4232  2.6365  0.2955
   65SAPC  H17S 5345   2.748   3.173   7.782  2.2268 -0.0122  1.9191
   65SAPC  C218 5346   2.822   2.972   7.765  0.7141  0.5764  0.0665
   65SAPC  H18R 5347   2.824   2.992   7.655 -1.4644  1.8333  0.1970
   65SAPC  H18S 5348   2.786   2.869   7.783  1.0994  0.4366  0.0471
   65SAPC  C219 5349   2.965   2.988   7.830 -0.1339 -0.4808 -0.0866
   65SAPC  H19R 5350   2.948   3.001   7.939  0.3755 -0.8197  0.0395
   65SAPC  H19S 5351   3.012   3.083   7.798  0.9300 -0.6731  0.8278
   65SAPC  C220 5352   3.067   2.875   7.807  0.2081 -0.3939 -0.7697
   65SAPC  H20R 5353   3.099   2.861   7.702  3.5295  0.1283  0.0793
   65SAPC  H20S 5354   3.028   2.780   7.849  0.4028 -0.7807 -1.4591
   65SAPC  H20T 5355   3.163   2.901   7.857 -0.3580  2.0695 -0.8159
   65SAPC   C33 5356   1.905   2.499   6.885 -0.4746  0.2703  0.0032
   65SAPC   H3X 5357   1.928   2.392   6.905  0.0405  0.3651 -0.0746
   65SAPC   H3Y 5358   1.813   2.497   6.823  0.9931  0.1467 -2.2579
   65SAPC   C34 5359   1.900   2.573   7.018 -0.1637  0.4612 -0.2991
   65SAPC   H4X 5360   1.892   2.682   6.998  0.0982  1.0267  2.3650
   65SAPC   H4Y 5361   2.002   2.557   7.061 -0.3536  1.3206  0.4933
   65SAPC   C35 5362   1.790   2.525   7.116  0.5653 -0.1213  0.6783
   65SAPC   H5X 5363   1.794   2.417   7.141  2.0204 -0.0998  0.6015
   65SAPC   H5Y 5364   1.689   2.540   7.072  1.6211 -0.0177 -1.8805
   65SAPC   C36 5365   1.783   2.597   7.255  0.1590 -0.6375 -0.2958
   65SAPC   H6X 5366   1.785   2.706   7.237  2.7524 -0.2561  1.6842
   65SAPC   H6Y 5367   1.873   2.559   7.308 -0.2569  1.1188  1.7796
   65SAPC   C37 5368   1.659   2.566   7.345 -0.3477 -0.9557  0.4536
   65SAPC   H7X 5369   1.647   2.459   7.372  1.3366 -1.8275 -1.9051
   65SAPC   H7Y 5370   1.571   2.574   7.278 -2.6199 -1.0609  3.2198
   65SAPC   C38 5371   1.652   2.665   7.471 -0.8527  0.2999  0.4696
   65SAPC   H8X 5372   1.616   2.765   7.438 -1.4062  0.6521  2.0489
   65SAPC   H8Y 5373   1.746   2.666   7.530  0.2138  0.7773 -1.1724
   65SAPC   C39 5374   1.540   2.624   7.566  0.0313 -0.1266  0.2411
   65SAPC   H9X 5375   1.577   2.527   7.604  2.1449  0.8825  0.9224
   65SAPC   H9Y 5376   1.447   2.612   7.507 -0.2042 -1.7926  0.9000
   65SAPC  C310 5377   1.520   2.712   7.693  0.0339 -0.7880  0.3678
   65SAPC  H10X 5378   1.455   2.795   7.657  0.6152  0.1995  1.5185
   65SAPC  H10Y 5379   1.616   2.754   7.731  0.2985  1.5512 -2.4995
   65SAPC  C311 5380   1.447   2.644   7.812 -0.8445  0.0502 -0.7117
   65SAPC  H11X 5381   1.513   2.560   7.845  0.1371  1.5323  1.2631
   65SAPC  H11Y 5382   1.350   2.597   7.784 -0.1023 -1.4093 -0.9447
   65SAPC  C312 5383   1.435   2.740   7.934 -0.9610 -1.1501  0.3812
   65SAPC  H12X 5384   1.344   2.718   7.993 -0.5191  0.3096  1.6475
   65SAPC  H12Y 5385   1.421   2.844   7.896  1.1367 -0.5353  1.1903
   65SAPC  C313 5386   1.560   2.748   8.020  0.6707  0.3520  0.8262
   65SAPC  H13X 5387   1.639   2.780   7.950  0.7850 -0.7879  0.4180
   65SAPC  H13Y 5388   1.590   2.645   8.049 -3.3447 -0.5878  2.2892
   65SAPC  C314 5389   1.563   2.823   8.149  0.4719 -0.0107 -0.8361
   65SAPC  H14X 5390   1.661   2.812   8.200  0.8779  1.0608 -1.3620
   65SAPC  H14Y 5391   1.492   2.788   8.227  1.0339  1.3427  0.3254
   65SAPC  C315 5392   1.525   2.978   8.143 -0.8757  0.4927  0.2687
   65SAPC  H15X 5393   1.426   2.985   8.093  0.5469 -1.3855 -3.2377
   65SAPC  H15Y 5394   1.597   3.024   8.072  1.6278 -2.3755  0.7393
   65SAPC  C316 5395   1.522   3.056   8.276  0.8423 -0.5513  0.0730
   65SAPC  H16X 5396   1.469   2.990   8.348 -1.3877  0.4032 -0.6079
   65SAPC  H16Y 5397   1.460   3.144   8.249  1.3065 -0.9360 -2.4308
   65SAPC  C317 5398   1.652   3.100   8.345 -0.1489 -0.4061 -0.4757
   65SAPC  H17X 5399   1.708   3.152   8.265 -0.2696  0.5166  0.0213
   65SAPC  H17Y 5400   1.710   3.009   8.369 -0.2117 -0.2709  0.2251
   65SAPC  C318 5401   1.662   3.173   8.474  0.0943 -0.2488 -0.6659
   65SAPC  H18X 5402   1.768   3.169   8.507 -0.2914 -1.2449  0.5609
   65SAPC  H18Y 5403   1.599   3.123   8.551 -2.2732  0.6533 -1.9165
   65SAPC  H18Z 5404   1.620   3.275   8.463 -0.6870 -0.6799 -1.9199
   66SAPC     N 5405   4.922   4.068   5.971  0.1421 -0.1778 -0.1017
   66SAPC   C12 5406   4.802   4.116   6.052 -0.3728  0.2730 -0.6228
   66SAPC  H12A 5407   4.706   4.105   6.004 -1.8567  2.5470  1.5806
   66SAPC  H12B 5408   4.812   4.223   6.063 -1.0581  0.1816  1.2087
   66SAPC   C13 5409   4.943   4.156   5.849 -0.4625 -0.3903  0.5950
   66SAPC  H13A 5410   5.007   4.112   5.774 -1.1648  0.0479 -0.2734
   66SAPC  H13B 5411   4.849   4.171   5.798 -0.0228 -1.3123 -0.5345
   66SAPC  H13C 5412   4.969   4.257   5.878  0.3919 -0.5898  0.5552
   66SAPC   C14 5413   5.045   4.062   6.045 -0.1883  0.3605 -0.7821
   66SAPC  H14A 5414   5.042   3.986   6.121 -0.8743 -0.5818 -1.7308
   66SAPC  H14B 5415   5.134   4.042   5.988  0.2935 -1.0850  0.4224
   66SAPC  H14C 5416   5.059   4.154   6.100 -2.1887 -0.5917  1.5443
   66SAPC   C15 5417   4.899   3.928   5.916  0.0830 -0.4325  0.0257
   66SAPC  H15A 5418   4.986   3.896   5.860 -0.6516  1.2650 -2.2561
   66SAPC  H15B 5419   4.866   3.872   6.002  0.5696 -0.6608  0.0669
   66SAPC  H15C 5420   4.810   3.928   5.855  0.2441 -2.2305 -0.2522
   66SAPC   C11 5421   4.786   4.051   6.191 -0.7825  0.4587 -0.5558
   66SAPC  H11A 5422   4.705   4.107   6.241 -0.5502 -0.3494  0.7972
   66SAPC  H11B 5423   4.885   4.067   6.239 -0.1967  1.3830 -2.0126
   66SAPC     P 5424   4.610   3.854   6.139 -0.2838 -0.1690  0.5299
   66SAPC   O13 5425   4.535   3.958   6.070  0.3896  0.4609 -0.4467
   66SAPC   O14 5426   4.620   3.721   6.062  0.8541 -0.1177  0.2320
   66SAPC   O12 5427   4.755   3.907   6.180 -0.2794 -0.3612  0.2579
   66SAPC   O11 5428   4.546   3.825   6.288 -0.0181  0.0865 -0.1296
   66SAPC    C1 5429   4.481   3.928   6.363  0.1602 -0.5588 -0.8350
   66SAPC    HA 5430   4.466   4.021   6.305  1.2220  0.3242  0.2352
   66SAPC    HB 5431   4.383   3.890   6.397  2.1337 -3.7846  1.9186
   66SAPC    C2 5432   4.570   3.966   6.476 -0.2363 -0.2251 -0.4599
   66SAPC    HS 5433   4.680   3.971   6.461 -0.2232  0.3611 -0.1794
   66SAPC   O21 5434   4.539   3.875   6.580  0.0537 -0.2110  0.1795
   66SAPC   C21 5435   4.638   3.819   6.642  0.5380  0.5096 -0.6444
   66SAPC   O22 5436   4.753   3.858   6.652  1.2527 -0.9123 -0.3156
   66SAPC   C22 5437   4.588   3.693   6.707 -0.1410  0.0239  0.3959
   66SAPC   H2R 5438   4.505   3.650   6.648  1.8532  0.7080 -3.2303
   66SAPC   H2S 5439   4.665   3.613   6.699 -0.8970 -0.6264 -0.5400
   66SAPC    C3 5440   4.521   4.103   6.538 -0.0372  0.2900  0.1495
   66SAPC    HX 5441   4.410   4.093   6.546  0.0281 -2.4937 -1.2358
   66SAPC    HY 5442   4.549   4.183   6.467  0.9066  0.4928  0.7265
   66SAPC   O31 5443   4.582   4.144   6.664 -0.3415 -0.6797 -0.5704
   66SAPC   C31 5444   4.699   4.196   6.659 -0.5305  0.1953  0.3519
   66SAPC   O32 5445   4.768   4.210   6.557 -0.4363  0.0821 -0.3032
   66SAPC   C32 5446   4.746   4.253   6.791  0.0750  0.0050 -0.0020
   66SAPC   H2X 5447   4.733   4.174   6.869  1.4558  0.5912  0.8633
   66SAPC   H2Y 5448   4.678   4.337   6.814  0.3769 -0.0319  1.0532
   66SAPC   C23 5449   4.534   3.717   6.853  0.0255 -0.4454  0.4896
   66SAPC   H3R 5450   4.428   3.749   6.844 -1.2079 -4.3305 -1.4557
   66SAPC   H3S 5451   4.589   3.796   6.907  1.1958 -0.3476 -0.7738
   66SAPC   C24 5452   4.528   3.581   6.931 -0.2468 -0.7688 -0.8438
   66SAPC   H4R 5453   4.464   3.513   6.870 -0.7054  1.8082 -3.4594
   66SAPC   H4S 5454   4.466   3.602   7.020  0.3303  0.1506 -0.6440
   66SAPC   C25 5455   4.662   3.524   6.955  0.5285  0.1051  0.0688
   66SAPC   H5R 5456   4.698   3.456   6.876  1.4231  1.8082 -1.0612
   66SAPC   C26 5457   4.737   3.545   7.067  0.4964  0.6107  0.8014
   66SAPC   H6R 5458   4.832   3.490   7.075  0.8129  1.2338  1.5514
   66SAPC   C27 5459   4.693   3.636   7.182  0.3456 -0.2455 -0.5390
   66SAPC   H7R 5460   4.589   3.609   7.210  0.3003  0.1567 -0.3049
   66SAPC   H7S 5461   4.688   3.735   7.130 -0.4890  0.7317  1.3106
   66SAPC   C28 5462   4.804   3.642   7.292  1.4884  0.0102 -0.7141
   66SAPC   H8R 5463   4.898   3.586   7.291  0.7869 -1.2117 -0.6355
   66SAPC   C29 5464   4.800   3.732   7.391 -0.2449  0.0489  0.4934
   66SAPC   H9R 5465   4.885   3.731   7.460  1.3021 -0.7750 -1.3285
   66SAPC  C210 5466   4.693   3.839   7.431  0.2721  0.2713  0.2624
   66SAPC  H10R 5467   4.655   3.812   7.532  0.0448  3.0203  0.9915
   66SAPC  H10S 5468   4.610   3.828   7.358  1.2030 -1.4550 -0.5901
   66SAPC  C211 5469   4.751   3.981   7.431  0.6168  0.2629 -0.7664
   66SAPC  H11R 5470   4.763   4.032   7.334  1.9619  2.2109  0.3320
   66SAPC  C212 5471   4.803   4.048   7.531  0.2442  0.5304  0.0926
   66SAPC  H12R 5472   4.837   4.149   7.503 -0.2751  0.7771  0.3293
   66SAPC  C213 5473   4.807   4.000   7.672  0.1046  0.1445  0.0033
   66SAPC  H13R 5474   4.905   4.031   7.713 -0.3243  3.2121 -1.0252
   66SAPC  H13S 5475   4.806   3.889   7.667 -3.2627  0.1083 -0.8825
   66SAPC  C214 5476   4.686   4.023   7.753 -0.6564  1.1145 -0.5575
   66SAPC  H14R 5477   4.592   4.013   7.698  0.8528 -2.8295 -2.8112
   66SAPC  C215 5478   4.684   4.041   7.882 -0.1793  0.0622 -0.5402
   66SAPC  H15R 5479   4.591   4.042   7.940  1.4720 -2.9173  2.5780
   66SAPC  C216 5480   4.805   4.055   7.979  0.0670  0.3097  0.5924
   66SAPC  H16R 5481   4.764   4.098   8.072 -0.1565 -0.2439  0.7510
   66SAPC  H16S 5482   4.875   4.134   7.943  0.4937 -0.4059 -0.1907
   66SAPC  C217 5483   4.865   3.916   8.018  0.2670  0.1392  0.4752
   66SAPC  H17R 5484   4.915   3.862   7.934  1.8299  2.2255 -0.0160
   66SAPC  H17S 5485   4.777   3.860   8.058 -0.3818 -0.7077 -1.9622
   66SAPC  C218 5486   4.972   3.935   8.128  0.1292  0.4048  0.1930
   66SAPC  H18R 5487   4.934   3.990   8.217  1.5040 -1.6921  2.1839
   66SAPC  H18S 5488   5.062   3.994   8.102  0.2678  0.2917  0.4107
   66SAPC  C219 5489   5.026   3.796   8.179 -0.1579 -0.6679  0.8966
   66SAPC  H19R 5490   5.120   3.802   8.239 -0.3808  0.3561  1.1584
   66SAPC  H19S 5491   5.046   3.742   8.084 -0.9309 -2.6782  1.8237
   66SAPC  C220 5492   4.928   3.710   8.252 -0.4012 -0.0602  0.3825
   66SAPC  H20R 5493   4.843   3.695   8.183  0.4804  0.3940 -0.8385
   66SAPC  H20S 5494   4.888   3.770   8.337  0.0335 -0.0882  0.6089
   66SAPC  H20T 5495   4.961   3.608   8.282 -1.5392 -1.1173 -1.7513
   66SAPC   C33 5496   4.901   4.294   6.796 -0.3900 -0.0258 -0.6310
   66SAPC   H3X 5497   4.904   4.360   6.706  1.0687 -2.7687 -2.7595
   66SAPC   H3Y 5498   4.949   4.195   6.781  0.2326  0.0986  0.4583
   66SAPC   C34 5499   4.944   4.354   6.930  0.5492 -0.6258  0.4925
   66SAPC   H4X 5500   4.915   4.285   7.012  0.3312  0.2900  1.2111
   66SAPC   H4Y 5501   4.889   4.448   6.954  0.0865 -0.5910 -0.6631
   66SAPC   C35 5502   5.095   4.382   6.939  0.0097  0.2334 -0.2879
   66SAPC   H5X 5503   5.121   4.450   6.855 -1.1329  0.9270 -0.1009
   66SAPC   H5Y 5504   5.146   4.284   6.932 -1.9357 -0.8263 -0.2572
   66SAPC   C36 5505   5.133   4.452   7.065  0.1885 -0.0511  0.2451
   66SAPC   H6X 5506   5.088   4.554   7.068 -1.1340 -0.6252  1.5360
   66SAPC   H6Y 5507   5.242   4.473   7.070  0.1503  0.0745  0.6017
   66SAPC   C37 5508   5.073   4.391   7.196 -0.2060 -0.4647  0.7161
   66SAPC   H7X 5509   5.101   4.284   7.209 -2.1477 -1.3248 -1.4753
   66SAPC   H7Y 5510   4.963   4.398   7.185 -0.0986  0.8985  0.2930
   66SAPC   C38 5511   5.107   4.475   7.322 -0.0354  0.1751 -0.3863
   66SAPC   H8X 5512   5.070   4.579   7.311  1.3093  0.6078 -1.0318
   66SAPC   H8Y 5513   5.216   4.480   7.341 -0.0861 -1.5930  0.6363
   66SAPC   C39 5514   5.058   4.399   7.450  0.0216 -0.7500  0.6521
   66SAPC   H9X 5515   5.093   4.294   7.450  2.2709 -0.0453  1.1714
   66SAPC   H9Y 5516   4.947   4.398   7.449 -0.0364  1.1261  1.7087
   66SAPC  C310 5517   5.103   4.454   7.585 -0.3283  0.1841  0.1100
   66SAPC  H10X 5518   5.077   4.562   7.592 -0.8534  0.0588  0.1466
   66SAPC  H10Y 5519   5.213   4.449   7.589 -0.3918 -2.9957  0.5776
   66SAPC  C311 5520   5.044   4.389   7.713 -0.0348  0.5099  0.0909
   66SAPC  H11X 5521   5.087   4.423   7.810 -1.0914  0.1926  0.6818
   66SAPC  H11Y 5522   5.098   4.292   7.703 -1.4045 -0.0294 -3.2735
   66SAPC  C312 5523   4.890   4.377   7.715  0.4598  0.0495 -0.1740
   66SAPC  H12X 5524   4.860   4.316   7.803 -1.5962  1.8351  0.4411
   66SAPC  H12Y 5525   4.860   4.316   7.628 -1.0022  0.5522 -0.0401
   66SAPC  C313 5526   4.807   4.505   7.715  0.5728  0.0449  0.1969
   66SAPC  H13X 5527   4.852   4.568   7.635 -1.4091  1.0702 -0.1562
   66SAPC  H13Y 5528   4.815   4.558   7.812 -1.6152  0.8998 -0.0323
   66SAPC  C314 5529   4.652   4.480   7.697 -0.7224 -0.3388  0.6638
   66SAPC  H14X 5530   4.636   4.429   7.599  1.8604  2.1221 -1.2004
   66SAPC  H14Y 5531   4.609   4.582   7.696  1.1776  0.5251  1.3069
   66SAPC  C315 5532   4.598   4.397   7.814  0.1006 -0.6475 -0.2613
   66SAPC  H15X 5533   4.670   4.376   7.896  0.4511 -1.5996 -0.8025
   66SAPC  H15Y 5534   4.566   4.301   7.768 -0.1099 -0.9676  0.5255
   66SAPC  C316 5535   4.462   4.450   7.878  0.0382 -0.1635 -0.3586
   66SAPC  H16X 5536   4.402   4.434   7.786  0.4550 -1.0239 -0.4915
   66SAPC  H16Y 5537   4.474   4.559   7.894  2.2144 -0.3556 -0.3412
   66SAPC  C317 5538   4.417   4.367   7.994  0.0041  0.1424 -0.5558
   66SAPC  H17X 5539   4.497   4.366   8.070 -2.5593 -1.6889  2.3647
   66SAPC  H17Y 5540   4.400   4.260   7.968 -0.4631 -0.4463  1.8946
   66SAPC  C318 5541   4.304   4.416   8.086 -0.6611  0.5258  0.6048
   66SAPC  H18X 5542   4.284   4.338   8.162  2.1343 -1.7994 -0.8038
   66SAPC  H18Y 5543   4.216   4.434   8.021 -2.1426 -1.8811  1.7958
   66SAPC  H18Z 5544   4.342   4.513   8.124 -1.7338  0.8203  0.9490
   67SAPC     N 5545   1.087   5.919   6.212 -1.0086 -0.1235 -0.3369
   67SAPC   C12 5546   1.203   5.984   6.290  0.5554  0.5540  0.1993
   67SAPC  H12A 5547   1.207   6.087   6.257  1.3140  0.7066  0.7416
   67SAPC  H12B 5548   1.293   5.932   6.260  0.3026 -0.8178  1.6839
   67SAPC   C13 5549   0.967   6.009   6.212 -0.5884 -0.0947 -0.6612
   67SAPC  H13A 5550   1.002   6.099   6.162  0.5391 -1.6162 -2.7539
   67SAPC  H13B 5551   0.882   5.967   6.161 -0.3155  0.3865 -1.5341
   67SAPC  H13C 5552   0.934   6.031   6.312 -1.0137 -0.7115 -0.6629
   67SAPC   C14 5553   1.117   5.923   6.061 -0.3140 -0.2337  0.2537
   67SAPC  H14A 5554   1.148   6.023   6.037  0.8552 -0.2864  1.4448
   67SAPC  H14B 5555   1.195   5.855   6.030 -1.6089 -1.3836 -0.6485
   67SAPC  H14C 5556   1.028   5.889   6.010 -0.0813 -1.2099  0.4762
   67SAPC   C15 5557   1.055   5.783   6.254 -0.5168 -0.3244 -0.3258
   67SAPC  H15A 5558   0.984   5.732   6.190 -1.5124 -0.3436  0.7673
   67SAPC  H15B 5559   1.138   5.716   6.266 -0.1507  0.3855  1.3630
   67SAPC  H15C 5560   1.022   5.792   6.356 -1.4159  1.0810 -0.7063
   67SAPC   C11 5561   1.195   5.974   6.445 -0.0449  0.3771 -0.7876
   67SAPC  H11A 5562   1.093   6.005   6.476  0.1930 -1.7125  2.5257
   67SAPC  H11B 5563   1.269   6.043   6.491 -0.9717  0.1861  1.0571
   67SAPC     P 5564   1.362   5.785   6.503 -0.1161  0.0459 -0.3534
   67SAPC   O13 5565   1.361   5.642   6.539  0.0229 -0.3116  0.0514
   67SAPC   O14 5566   1.426   5.825   6.377  0.3391  0.3394 -0.2564
   67SAPC   O12 5567   1.211   5.836   6.492 -0.0109 -0.8179 -0.0302
   67SAPC   O11 5568   1.422   5.875   6.623 -0.1423  0.9963  0.4154
   67SAPC    C1 5569   1.349   5.929   6.727  0.8124  0.2408 -0.2100
   67SAPC    HA 5570   1.348   6.039   6.716  1.4700  0.2370 -0.3450
   67SAPC    HB 5571   1.243   5.896   6.727  1.1480 -0.8898 -0.4597
   67SAPC    C2 5572   1.415   5.898   6.864  0.2761 -0.3161  0.4175
   67SAPC    HS 5573   1.516   5.943   6.872  1.1602 -1.7008 -2.0210
   67SAPC   O21 5574   1.403   5.757   6.884  0.7708  0.2864 -1.4510
   67SAPC   C21 5575   1.507   5.687   6.838 -0.2029 -0.6704  0.4073
   67SAPC   O22 5576   1.608   5.730   6.784  0.2068 -0.1341 -0.0910
   67SAPC   C22 5577   1.481   5.536   6.851  0.3135 -0.4461  0.2840
   67SAPC   H2R 5578   1.436   5.516   6.950  0.4157 -0.3297  0.3530
   67SAPC   H2S 5579   1.403   5.508   6.776  0.8757  0.8309 -0.8237
   67SAPC    C3 5580   1.338   5.971   6.981 -0.1290 -0.0008  0.2406
   67SAPC    HX 5581   1.236   5.927   6.977 -1.3587  2.7158 -0.5074
   67SAPC    HY 5582   1.330   6.081   6.978 -0.9192 -0.0793 -0.8629
   67SAPC   O31 5583   1.388   5.923   7.114  0.4416 -0.1612 -0.4830
   67SAPC   C31 5584   1.508   5.966   7.149  0.1383  0.1174 -0.4902
   67SAPC   O32 5585   1.580   6.031   7.080  0.0582 -0.2065  1.0442
   67SAPC   C32 5586   1.542   5.918   7.289 -0.1530  0.0745 -0.4929
   67SAPC   H2X 5587   1.498   5.993   7.358  1.5524 -0.1826  0.9624
   67SAPC   H2Y 5588   1.653   5.918   7.300 -0.2934 -0.5183  1.4773
   67SAPC   C23 5589   1.605   5.433   6.821  0.3962 -0.3918  1.1101
   67SAPC   H3R 5590   1.696   5.496   6.823 -1.0841  1.8395  3.0566
   67SAPC   H3S 5591   1.579   5.417   6.714 -0.1419 -0.4862  1.2500
   67SAPC   C24 5592   1.601   5.299   6.887 -0.0103  0.2351 -0.1036
   67SAPC   H4R 5593   1.518   5.235   6.850 -1.6051  2.0857  0.1182
   67SAPC   H4S 5594   1.587   5.325   6.994  2.6521  1.4588  0.0158
   67SAPC   C25 5595   1.743   5.234   6.882  0.9186  0.3426  0.3760
   67SAPC   H5R 5596   1.775   5.205   6.781 -2.3876  1.7592 -1.2321
   67SAPC   C26 5597   1.819   5.213   6.993  0.2990  0.8145  0.3540
   67SAPC   H6R 5598   1.916   5.163   6.979 -0.3581 -0.9989  1.8491
   67SAPC   C27 5599   1.789   5.247   7.143  0.4166  0.1995 -0.0893
   67SAPC   H7R 5600   1.758   5.353   7.149  1.9133  0.5959  1.5916
   67SAPC   H7S 5601   1.880   5.247   7.207 -0.0940  1.3652  0.6695
   67SAPC   C28 5602   1.681   5.156   7.205  0.3684 -0.2614  0.1069
   67SAPC   H8R 5603   1.684   5.059   7.154  1.7391  0.4270 -1.2229
   67SAPC   C29 5604   1.591   5.202   7.297 -0.2263  0.1904 -0.0336
   67SAPC   H9R 5605   1.521   5.121   7.320 -0.8787 -0.1557 -2.8257
   67SAPC  C210 5606   1.583   5.334   7.373 -0.5960 -0.1193  0.5775
   67SAPC  H10R 5607   1.541   5.399   7.294  3.6949  0.9605 -1.1186
   67SAPC  H10S 5608   1.687   5.369   7.390 -0.2917 -0.2589 -0.8598
   67SAPC  C211 5609   1.504   5.336   7.495 -0.0356 -0.2466  0.1921
   67SAPC  H11R 5610   1.399   5.341   7.465  0.2318  0.2747 -0.6899
   67SAPC  C212 5611   1.550   5.325   7.622  0.4194  0.3342 -0.0269
   67SAPC  H12R 5612   1.483   5.332   7.709  1.5344 -0.0208  0.8907
   67SAPC  C213 5613   1.697   5.308   7.659 -0.4202  0.1696 -0.3842
   67SAPC  H13R 5614   1.766   5.359   7.589  0.5303  1.0688  1.1565
   67SAPC  H13S 5615   1.708   5.197   7.654 -0.7451  0.1851 -1.8401
   67SAPC  C214 5616   1.736   5.372   7.791  0.4558 -0.6760 -0.0248
   67SAPC  H14R 5617   1.776   5.474   7.782  1.6277 -0.9941  1.2713
   67SAPC  C215 5618   1.740   5.307   7.910  0.5598  0.1617 -0.7316
   67SAPC  H15R 5619   1.771   5.362   8.001 -0.6053  0.5042 -0.5216
   67SAPC  C216 5620   1.703   5.169   7.947 -0.0178 -0.0211  0.2441
   67SAPC  H16R 5621   1.766   5.147   8.035 -0.0766  2.1788  0.8950
   67SAPC  H16S 5622   1.735   5.093   7.872 -0.5601 -0.1660  0.1552
   67SAPC  C217 5623   1.559   5.143   7.980 -0.1261 -0.0961  0.1549
   67SAPC  H17R 5624   1.557   5.032   7.987  1.6649 -0.2228 -0.9437
   67SAPC  H17S 5625   1.495   5.166   7.892 -0.5420 -1.2113  0.1509
   67SAPC  C218 5626   1.510   5.216   8.110 -0.5939 -0.5794 -0.0333
   67SAPC  H18R 5627   1.400   5.227   8.097 -0.8251 -1.5530  0.9249
   67SAPC  H18S 5628   1.573   5.307   8.120  1.4492 -1.6991 -1.8053
   67SAPC  C219 5629   1.522   5.136   8.237  0.0896  0.6049  0.2070
   67SAPC  H19R 5630   1.483   5.198   8.320 -0.9331  3.4696 -2.2196
   67SAPC  H19S 5631   1.625   5.096   8.252  0.0164  0.0491 -0.6788
   67SAPC  C220 5632   1.434   5.010   8.229 -0.8896  0.0069 -0.0058
   67SAPC  H20R 5633   1.456   4.936   8.309 -0.2130 -0.8598 -0.9743
   67SAPC  H20S 5634   1.459   4.955   8.136 -2.3611  3.1134 -2.4231
   67SAPC  H20T 5635   1.328   5.042   8.215 -0.5117  0.7730 -1.2712
   67SAPC   C33 5636   1.480   5.778   7.320 -0.0022 -0.2571  0.0801
   67SAPC   H3X 5637   1.511   5.702   7.244  3.0737 -0.0343  0.9807
   67SAPC   H3Y 5638   1.369   5.777   7.317 -0.0863  1.9860  0.5672
   67SAPC   C34 5639   1.516   5.741   7.466  0.0507  0.4093  0.1006
   67SAPC   H4X 5640   1.626   5.743   7.479 -0.1072  2.6956  1.6605
   67SAPC   H4Y 5641   1.492   5.634   7.483 -2.3283  1.0976  1.5302
   67SAPC   C35 5642   1.448   5.824   7.569 -0.1798 -0.0349 -0.3556
   67SAPC   H5X 5643   1.338   5.809   7.561 -0.0161 -1.2716 -0.4596
   67SAPC   H5Y 5644   1.470   5.932   7.559 -1.6513  0.2878 -0.3682
   67SAPC   C36 5645   1.485   5.783   7.711 -0.0122  0.3794 -0.2941
   67SAPC   H6X 5646   1.591   5.750   7.714  0.6810  2.3690  2.7879
   67SAPC   H6Y 5647   1.425   5.691   7.729  0.9372 -1.1146 -3.9500
   67SAPC   C37 5648   1.462   5.893   7.812  0.4769 -0.3483  0.2413
   67SAPC   H7X 5649   1.358   5.931   7.810  0.5802 -0.0865 -0.6741
   67SAPC   H7Y 5650   1.526   5.976   7.775  1.1976 -0.7328  0.6209
   67SAPC   C38 5651   1.497   5.853   7.953 -0.2359  0.2462  0.1250
   67SAPC   H8X 5652   1.607   5.859   7.967 -0.2178 -0.2824  0.2201
   67SAPC   H8Y 5653   1.460   5.751   7.975  2.2460 -0.6871  0.3145
   67SAPC   C39 5654   1.436   5.952   8.049  0.0522 -0.2754  0.4646
   67SAPC   H9X 5655   1.326   5.940   8.048 -0.1494  1.0113  2.3779
   67SAPC   H9Y 5656   1.469   6.053   8.018  0.3178 -0.8149 -1.0949
   67SAPC  C310 5657   1.477   5.915   8.198 -0.6275  0.4750  0.2398
   67SAPC  H10X 5658   1.585   5.898   8.217 -0.7250  0.2811  0.6203
   67SAPC  H10Y 5659   1.437   5.813   8.216 -0.2577 -0.1879 -2.2927
   67SAPC  C311 5660   1.440   6.021   8.298 -0.2120 -0.3273  0.1536
   67SAPC  H11X 5661   1.428   5.965   8.393  2.3614 -0.9031  0.2201
   67SAPC  H11Y 5662   1.343   6.059   8.259 -0.5888 -1.4702 -0.0609
   67SAPC  C312 5663   1.538   6.128   8.332  0.3271 -0.2921  0.1585
   67SAPC  H12X 5664   1.545   6.193   8.242 -0.3187  0.5783  0.7042
   67SAPC  H12Y 5665   1.637   6.089   8.361  2.0082  2.4136 -1.4943
   67SAPC  C313 5666   1.498   6.233   8.443  0.2526 -0.1519 -0.1029
   67SAPC  H13X 5667   1.412   6.288   8.399  0.4515 -0.7931 -1.3411
   67SAPC  H13Y 5668   1.584   6.303   8.453  0.4819 -0.2918 -1.0198
   67SAPC  C314 5669   1.478   6.158   8.578  0.4047 -0.4978 -0.5038
   67SAPC  H14X 5670   1.559   6.083   8.589  0.5158 -0.0022  4.0397
   67SAPC  H14Y 5671   1.387   6.096   8.570  0.8529 -1.0037 -1.9413
   67SAPC  C315 5672   1.472   6.264   8.699  0.3019  0.0612  0.3229
   67SAPC  H15X 5673   1.381   6.325   8.680 -0.6247 -1.4197 -0.2215
   67SAPC  H15Y 5674   1.562   6.329   8.692 -0.3914  1.0947  0.8470
   67SAPC  C316 5675   1.476   6.209   8.847  0.1644 -0.2455 -0.0149
   67SAPC  H16X 5676   1.383   6.155   8.875 -0.3246  0.8842  0.6121
   67SAPC  H16Y 5677   1.487   6.296   8.916 -2.0744  1.3255 -1.4865
   67SAPC  C317 5678   1.601   6.118   8.886  0.1417  0.0023  0.2451
   67SAPC  H17X 5679   1.608   6.021   8.832 -1.8484 -0.8853  1.4466
   67SAPC  H17Y 5680   1.575   6.088   8.990  1.1147 -0.5829  0.3325
   67SAPC  C318 5681   1.734   6.188   8.898 -0.0581  0.1170 -0.3956
   67SAPC  H18X 5682   1.735   6.282   8.957  0.0622 -0.4370  0.5134
   67SAPC  H18Y 5683   1.774   6.216   8.799 -0.0845 -2.4356 -1.1930
   67SAPC  H18Z 5684   1.811   6.122   8.944  2.9090  3.6056  0.1187
   68SAPC     N 5685   6.262   5.728   6.063  0.3087  0.4405  0.6406
   68SAPC   C12 5686   6.296   5.869   6.009 -0.0707 -1.0784  0.8241
   68SAPC  H12A 5687   6.252   5.898   5.914  3.1364 -0.6410 -0.6863
   68SAPC  H12B 5688   6.403   5.870   5.993 -0.4247 -1.1798 -2.1562
   68SAPC   C13 5689   6.289   5.631   5.951  0.5065  0.4327 -0.0951
   68SAPC  H13A 5690   6.274   5.528   5.980 -0.0717  0.7122  0.6419
   68SAPC  H13B 5691   6.236   5.661   5.862  1.5686 -1.8241 -1.6021
   68SAPC  H13C 5692   6.395   5.633   5.932  0.6752 -1.3552  0.4725
   68SAPC   C14 5693   6.347   5.689   6.177 -0.0037 -0.3840 -0.0122
   68SAPC  H14A 5694   6.453   5.695   6.157 -0.3778  0.9911 -1.8255
   68SAPC  H14B 5695   6.322   5.759   6.255 -0.5464  1.8707 -2.1029
   68SAPC  H14C 5696   6.328   5.588   6.210  1.0936  0.0888  2.3161
   68SAPC   C15 5697   6.114   5.720   6.111 -0.5340  0.0372  0.1237
   68SAPC  H15A 5698   6.100   5.621   6.151 -3.4048  0.0763 -0.5614
   68SAPC  H15B 5699   6.079   5.798   6.177 -0.0634  0.2185  0.1683
   68SAPC  H15C 5700   6.068   5.731   6.013 -1.7199 -0.5242  0.6010
   68SAPC   C11 5701   6.269   5.989   6.107 -0.2265  0.9009  0.0735
   68SAPC  H11A 5702   6.163   5.981   6.141  0.1997 -2.4672  0.9454
   68SAPC  H11B 5703   6.275   6.080   6.044 -0.6548  0.8000 -0.1170
   68SAPC     P 5704   6.505   6.030   6.207 -0.3096 -0.1781  0.0227
   68SAPC   O13 5705   6.563   5.967   6.090 -0.7707 -0.0391  0.2391
   68SAPC   O14 5706   6.508   6.175   6.218  0.3396 -0.1525 -1.0045
   68SAPC   O12 5707   6.358   5.983   6.219  0.2513 -0.2043  0.1446
   68SAPC   O11 5708   6.557   5.969   6.337 -0.2276  0.2116 -0.0697
   68SAPC    C1 5709   6.496   5.958   6.466 -0.1226 -0.9781  0.1671
   68SAPC    HA 5710   6.519   6.044   6.531 -0.6963 -0.6274 -0.0827
   68SAPC    HB 5711   6.388   5.935   6.450 -0.0288 -0.8450 -0.6866
   68SAPC    C2 5712   6.542   5.825   6.536  0.1551  0.1462 -0.4535
   68SAPC    HS 5713   6.652   5.819   6.551  0.1599  1.0441 -0.0808
   68SAPC   O21 5714   6.507   5.706   6.459  0.0894 -0.1195  0.6559
   68SAPC   C21 5715   6.573   5.601   6.493 -0.4013  0.0863 -0.3664
   68SAPC   O22 5716   6.685   5.604   6.552  0.2558 -0.0311  0.1220
   68SAPC   C22 5717   6.510   5.466   6.450  0.2433  0.6094 -0.1328
   68SAPC   H2R 5718   6.417   5.489   6.393  0.6961 -0.4550 -1.3575
   68SAPC   H2S 5719   6.580   5.412   6.383 -1.8557 -1.4192 -0.8161
   68SAPC    C3 5720   6.470   5.813   6.680  0.3878  0.1098  0.0129
   68SAPC    HX 5721   6.362   5.793   6.663  0.3017 -0.4021  1.0340
   68SAPC    HY 5722   6.477   5.911   6.732 -1.4538 -0.0048  0.5565
   68SAPC   O31 5723   6.518   5.703   6.767  0.4450  0.6081  0.2345
   68SAPC   C31 5724   6.638   5.719   6.828 -0.3873  0.1184  0.7260
   68SAPC   O32 5725   6.700   5.820   6.830 -0.2208  0.2594 -0.3564
   68SAPC   C32 5726   6.691   5.588   6.884  0.2691 -0.0555  0.9410
   68SAPC   H2X 5727   6.802   5.593   6.885  0.4033 -2.2053  1.1296
   68SAPC   H2Y 5728   6.658   5.506   6.817  2.3481 -0.4208  0.2844
   68SAPC   C23 5729   6.471   5.376   6.573 -0.4598  0.8080 -0.8852
   68SAPC   H3R 5730   6.557   5.368   6.643 -0.2022  0.9692 -1.1788
   68SAPC   H3S 5731   6.443   5.270   6.554 -2.7803  0.9556  1.2309
   68SAPC   C24 5732   6.352   5.426   6.651  0.9227 -0.7632  0.1211
   68SAPC   H4R 5733   6.364   5.530   6.689 -1.7118 -1.0085  1.8791
   68SAPC   H4S 5734   6.350   5.357   6.737  1.8261  2.2019  2.6890
   68SAPC   C25 5735   6.221   5.410   6.578 -0.2080  0.6155 -0.4074
   68SAPC   H5R 5736   6.226   5.366   6.478  0.6031 -1.0230  0.3107
   68SAPC   C26 5737   6.103   5.447   6.640  0.1353  0.4428  0.9380
   68SAPC   H6R 5738   6.009   5.424   6.588  0.9677 -1.5713  0.2338
   68SAPC   C27 5739   6.078   5.495   6.783 -0.3509 -0.5793  0.8029
   68SAPC   H7R 5740   6.066   5.605   6.773  0.2985 -0.6899 -1.7837
   68SAPC   H7S 5741   6.164   5.475   6.851  0.5982  0.7010  0.0088
   68SAPC   C28 5742   5.953   5.452   6.851  0.4648  0.1709  0.8772
   68SAPC   H8R 5743   5.881   5.396   6.790  0.7632  0.8558 -0.1213
   68SAPC   C29 5744   5.927   5.456   6.982  0.1860 -0.7768  0.0026
   68SAPC   H9R 5745   5.831   5.422   7.024 -0.8761  0.9589 -0.9045
   68SAPC  C210 5746   6.018   5.511   7.093  0.6478  0.2679  0.5002
   68SAPC  H10R 5747   6.124   5.526   7.061 -0.1897  2.3384 -1.5738
   68SAPC  H10S 5748   6.009   5.429   7.167 -1.0757  0.4961  0.5897
   68SAPC  C211 5749   5.957   5.639   7.140 -0.0611  0.0851  0.0296
   68SAPC  H11R 5750   5.942   5.719   7.065 -1.8342  0.8351  1.1050
   68SAPC  C212 5751   5.917   5.662   7.268  0.3248  0.0274  0.0701
   68SAPC  H12R 5752   5.865   5.758   7.283  0.2906 -0.0021  0.1438
   68SAPC  C213 5753   5.932   5.570   7.392 -0.4749  0.2581 -0.3136
   68SAPC  H13R 5754   5.986   5.473   7.385  1.3581  0.9890  2.2605
   68SAPC  H13S 5755   5.829   5.532   7.408  0.4922 -2.4750 -0.1127
   68SAPC  C214 5756   5.980   5.635   7.520 -1.0140 -0.2889  0.4406
   68SAPC  H14R 5757   6.079   5.677   7.498 -0.1233 -2.5572 -0.0866
   68SAPC  C215 5758   5.929   5.627   7.639  0.2502  0.4633 -0.3503
   68SAPC  H15R 5759   5.989   5.668   7.722  1.4860  0.0413 -1.0028
   68SAPC  C216 5760   5.805   5.553   7.683 -0.0811  0.2685  0.2204
   68SAPC  H16R 5761   5.736   5.533   7.598 -0.3679  0.2610  0.4537
   68SAPC  H16S 5762   5.750   5.623   7.750 -3.4427 -0.9960 -1.0142
   68SAPC  C217 5763   5.838   5.427   7.756  0.2239 -0.5161 -0.0219
   68SAPC  H17R 5764   5.911   5.459   7.834 -2.0355  2.8903  0.9198
   68SAPC  H17S 5765   5.873   5.340   7.695 -0.9414 -1.7349  0.9768
   68SAPC  C218 5766   5.721   5.366   7.832  0.2355 -0.2255 -0.2235
   68SAPC  H18R 5767   5.644   5.355   7.752  0.8109  2.3676 -1.2404
   68SAPC  H18S 5768   5.678   5.445   7.898  0.6322  1.4199 -1.8631
   68SAPC  C219 5769   5.755   5.235   7.907  0.3031 -0.4405 -1.0207
   68SAPC  H19R 5770   5.815   5.251   7.999  0.1907 -0.0511 -1.0106
   68SAPC  H19S 5771   5.819   5.173   7.841  1.0937 -0.3994 -0.3102
   68SAPC  C220 5772   5.628   5.153   7.929 -1.1327  0.5696 -0.5397
   68SAPC  H20R 5773   5.581   5.126   7.832 -1.3813 -1.0028 -0.0112
   68SAPC  H20S 5774   5.549   5.204   7.988 -2.0130 -2.4843  1.1822
   68SAPC  H20T 5775   5.656   5.057   7.978  0.0761  1.2702  0.1845
   68SAPC   C33 5776   6.637   5.559   7.029 -0.5136 -0.0582 -0.4050
   68SAPC   H3X 5777   6.668   5.647   7.089  0.9812 -0.6550 -0.2661
   68SAPC   H3Y 5778   6.695   5.480   7.082 -0.4287  0.8575  0.9116
   68SAPC   C34 5779   6.493   5.524   7.032  0.3398  1.2233 -0.5668
   68SAPC   H4X 5780   6.465   5.429   6.982 -5.1536  1.8550  0.5961
   68SAPC   H4Y 5781   6.434   5.601   6.979 -0.9654  1.9912  1.8415
   68SAPC   C35 5782   6.439   5.513   7.182  0.0326 -0.4453 -0.2143
   68SAPC   H5X 5783   6.470   5.411   7.213  0.6097 -0.0721  0.4492
   68SAPC   H5Y 5784   6.330   5.533   7.171  0.4517  1.0222 -2.0957
   68SAPC   C36 5785   6.493   5.614   7.278 -1.3228  0.3699 -1.1916
   68SAPC   H6X 5786   6.479   5.714   7.232  1.8175  2.6290  2.1894
   68SAPC   H6Y 5787   6.603   5.599   7.288 -1.7140 -1.2955  1.5836
   68SAPC   C37 5788   6.421   5.615   7.413  0.6759  0.6980 -0.8674
   68SAPC   H7X 5789   6.312   5.615   7.396  0.6822  1.0082 -0.9214
   68SAPC   H7Y 5790   6.455   5.707   7.466 -0.2880  0.6021 -0.0514
   68SAPC   C38 5791   6.455   5.495   7.508  0.6054 -0.2972  0.2599
   68SAPC   H8X 5792   6.565   5.482   7.522  0.9260  1.2126 -0.5659
   68SAPC   H8Y 5793   6.409   5.406   7.459 -0.5134  0.6301 -0.4301
   68SAPC   C39 5794   6.386   5.522   7.643 -0.1237 -0.5112  0.4116
   68SAPC   H9X 5795   6.277   5.544   7.638 -0.1907 -1.0469 -0.8509
   68SAPC   H9Y 5796   6.431   5.616   7.683  2.7661 -0.6291 -2.2221
   68SAPC  C310 5797   6.399   5.406   7.752  0.1700 -0.4057  0.2045
   68SAPC  H10X 5798   6.506   5.381   7.768 -0.2718 -2.1537  0.6420
   68SAPC  H10Y 5799   6.351   5.313   7.714  0.6041 -0.9119  0.8971
   68SAPC  C311 5800   6.347   5.454   7.889 -0.0267  0.5784  0.3256
   68SAPC  H11X 5801   6.404   5.539   7.932  0.1018  0.3922  0.5241
   68SAPC  H11Y 5802   6.383   5.371   7.954 -3.1733 -1.5752 -0.4690
   68SAPC  C312 5803   6.193   5.466   7.884  0.5021 -0.1194  0.4777
   68SAPC  H12X 5804   6.157   5.366   7.852  1.2680 -0.6298  1.1600
   68SAPC  H12Y 5805   6.159   5.536   7.804 -1.3174 -0.5697  0.8068
   68SAPC  C313 5806   6.130   5.514   8.014  0.3064  0.3806  0.0580
   68SAPC  H13X 5807   6.025   5.542   7.991 -0.0810 -0.1434  1.1600
   68SAPC  H13Y 5808   6.182   5.604   8.054  1.0498  0.0392 -0.1203
   68SAPC  C314 5809   6.129   5.403   8.122  0.0773  0.0755  0.3484
   68SAPC  H14X 5810   6.236   5.380   8.139  0.3794  1.6888  0.8233
   68SAPC  H14Y 5811   6.086   5.309   8.081 -0.3033  0.2094  0.4449
   68SAPC  C315 5812   6.066   5.452   8.249 -0.2508 -0.3302 -0.0391
   68SAPC  H15X 5813   6.047   5.358   8.304 -0.4319 -1.4298 -1.8675
   68SAPC  H15Y 5814   5.974   5.512   8.233  0.5350  0.9258  0.0130
   68SAPC  C316 5815   6.160   5.537   8.336  0.5155 -0.0064 -0.0321
   68SAPC  H16X 5816   6.171   5.639   8.292 -0.8515  0.3639  0.4258
   68SAPC  H16Y 5817   6.258   5.485   8.339  1.3935  1.4533 -1.4449
   68SAPC  C317 5818   6.123   5.541   8.481 -0.6397  0.9023  0.1691
   68SAPC  H17X 5819   6.110   5.434   8.510 -0.3773  0.2865 -1.7992
   68SAPC  H17Y 5820   6.022   5.585   8.486 -0.1967  1.8296  1.5495
   68SAPC  C318 5821   6.222   5.605   8.577  0.2479 -0.0330  0.2603
   68SAPC  H18X 5822   6.289   5.524   8.613  1.0899  0.6576  0.2739
   68SAPC  H18Y 5823   6.160   5.642   8.662 -0.6459  0.4240 -0.5735
   68SAPC  H18Z 5824   6.283   5.685   8.530 -0.4799 -1.1494 -2.7968
   69SLPC     N 5825   1.244   2.173  11.103  0.3021  0.5283 -0.5188
   69SLPC   C13 5826   1.122   2.261  11.107  0.0144 -0.3856  0.3554
   69SLPC  H13A 5827   1.109   2.310  11.203  3.6858 -0.4985  1.0539
   69SLPC  H13B 5828   1.139   2.338  11.034  1.2308 -1.6573 -0.7535
   69SLPC  H13C 5829   1.029   2.216  11.077  0.2026 -0.9276  0.5782
   69SLPC   C14 5830   1.226   2.061  11.204 -0.4407 -0.0505 -0.1093
   69SLPC  H14A 5831   1.130   2.016  11.183 -1.7294  0.9154  3.0797
   69SLPC  H14B 5832   1.308   1.993  11.191  0.6321  1.1509  0.2007
   69SLPC  H14C 5833   1.217   2.097  11.306 -0.5060  1.4523 -0.6340
   69SLPC   C15 5834   1.353   2.264  11.151 -0.5510 -0.3998 -0.7527
   69SLPC  H15A 5835   1.419   2.191  11.194 -1.6825 -0.6225  0.6683
   69SLPC  H15B 5836   1.393   2.324  11.069  0.3089 -0.4601 -0.3915
   69SLPC  H15C 5837   1.316   2.317  11.237  1.8287 -1.9117  1.3365
   69SLPC   C12 5838   1.276   2.135  10.955 -0.6224  0.6209  0.5396
   69SLPC  H12A 5839   1.300   2.219  10.891 -1.3357 -0.7302 -1.5970
   69SLPC  H12B 5840   1.186   2.098  10.906  0.9526 -0.6383 -1.5687
   69SLPC   C11 5841   1.385   2.026  10.926  0.6801  0.2007  0.1708
   69SLPC  H11A 5842   1.462   2.052  11.002 -0.9223  0.4652  1.7705
   69SLPC  H11B 5843   1.427   2.018  10.823  0.9751 -1.3092  0.3863
   69SLPC     P 5844   1.233   1.827  10.865  0.1112 -0.1919 -0.0203
   69SLPC   O13 5845   1.212   1.698  10.929  0.1826 -0.0527  0.2311
   69SLPC   O14 5846   1.112   1.910  10.842  0.3756 -0.0607 -0.6035
   69SLPC   O12 5847   1.331   1.907  10.961 -0.0331 -0.4377  0.0264
   69SLPC   O11 5848   1.309   1.813  10.731  0.0866  0.3111 -0.2961
   69SLPC    C1 5849   1.447   1.772  10.729 -0.1075  0.2878  0.1143
   69SLPC    HA 5850   1.497   1.802  10.823 -0.8831 -1.3618  1.0972
   69SLPC    HB 5851   1.458   1.662  10.726  0.7168  0.3727 -1.6696
   69SLPC    C2 5852   1.525   1.822  10.602 -0.6014  0.6404  0.1695
   69SLPC    HS 5853   1.546   1.927  10.628  1.1641 -0.3882  3.5193
   69SLPC   O21 5854   1.437   1.807  10.479  0.2142  0.2339 -0.1740
   69SLPC   C21 5855   1.451   1.909  10.390  0.0098 -0.1858 -0.8715
   69SLPC   O22 5856   1.534   1.997  10.394  0.2979 -0.3456  0.8114
   69SLPC   C22 5857   1.338   1.884  10.287 -0.1678  0.0724 -0.1477
   69SLPC   H2R 5858   1.241   1.890  10.340 -0.0633  0.8906 -0.0420
   69SLPC   H2S 5859   1.341   1.969  10.216 -0.4190  1.5505  1.5497
   69SLPC    C3 5860   1.663   1.747  10.578  0.2735 -0.3848 -0.0977
   69SLPC    HX 5861   1.623   1.644  10.564 -1.4846  0.5801 -3.4049
   69SLPC    HY 5862   1.721   1.759  10.672 -1.1069  2.6449  0.4745
   69SLPC   O31 5863   1.731   1.779  10.451  0.0334 -0.7563 -0.3951
   69SLPC   C31 5864   1.804   1.886  10.441 -0.4347  0.0838  0.8676
   69SLPC   O32 5865   1.844   1.956  10.533  0.2114  0.6520 -0.8731
   69SLPC   C32 5866   1.857   1.892  10.290 -0.0166 -0.6044 -0.0657
   69SLPC   H2X 5867   1.776   1.846  10.230 -1.1688  1.2901 -0.0584
   69SLPC   H2Y 5868   1.952   1.835  10.299 -0.1458 -0.6917  0.8648
   69SLPC   C23 5869   1.355   1.748  10.207  0.4687 -0.5642 -0.2768
   69SLPC   H3R 5870   1.266   1.746  10.141 -0.1476  0.0349  0.5121
   69SLPC   H3S 5871   1.337   1.669  10.283 -2.1063 -1.2063 -1.4249
   69SLPC   C24 5872   1.486   1.734  10.129  0.0320  0.4621 -0.1829
   69SLPC   H4R 5873   1.477   1.633  10.083 -3.1137  0.5001  0.1170
   69SLPC   H4S 5874   1.573   1.734  10.198 -0.1171 -0.7532  0.0278
   69SLPC   C25 5875   1.490   1.839  10.017 -0.5356 -0.4155  0.1360
   69SLPC   H5R 5876   1.499   1.936  10.070  0.2138 -1.5537  2.2082
   69SLPC   H5S 5877   1.389   1.827   9.972 -0.9146  1.7949  0.2500
   69SLPC   C26 5878   1.606   1.826   9.917  0.5400  0.3694 -0.3338
   69SLPC   H6R 5879   1.597   1.726   9.869  1.4117  0.7066 -1.2303
   69SLPC   H6S 5880   1.703   1.819   9.970  0.6949  1.5212 -0.4465
   69SLPC   C27 5881   1.601   1.922   9.805  0.3000  0.1422 -0.8258
   69SLPC   H7R 5882   1.650   2.015   9.840 -2.0106  1.4624 -0.9216
   69SLPC   H7S 5883   1.501   1.963   9.778  0.5634  0.8363 -0.7558
   69SLPC   C28 5884   1.674   1.863   9.683 -0.1299 -0.9298 -0.3986
   69SLPC   H8R 5885   1.768   1.827   9.729  0.5243  0.4069 -0.6490
   69SLPC   H8S 5886   1.700   1.936   9.603  0.0686 -1.3992 -0.7628
   69SLPC   C29 5887   1.609   1.744   9.620 -1.2530  0.5397 -0.2177
   69SLPC   H9R 5888   1.508   1.776   9.591 -0.7866  0.4767 -2.0428
   69SLPC  C210 5889   1.648   1.615   9.606 -0.1511  0.7318 -0.1489
   69SLPC  H10R 5890   1.593   1.536   9.554 -0.1145 -0.5124  1.6248
   69SLPC  C211 5891   1.775   1.571   9.676 -0.6000  0.0986 -0.4842
   69SLPC  H11R 5892   1.758   1.468   9.714 -0.5867 -0.4098 -1.8322
   69SLPC  H11S 5893   1.804   1.631   9.766 -0.0707  0.0929 -0.6473
   69SLPC  C212 5894   1.897   1.565   9.585  0.2545  0.5110 -0.1657
   69SLPC  H12R 5895   1.881   1.527   9.483 -0.1083 -1.0844  0.4609
   69SLPC  C213 5896   2.026   1.574   9.632 -0.1877  0.4682 -0.3119
   69SLPC  H13R 5897   2.109   1.570   9.559  1.1120  0.0381  1.1236
   69SLPC  C214 5898   2.069   1.578   9.782  0.6340  0.3731 -0.1729
   69SLPC  H14R 5899   1.984   1.542   9.844 -0.5950  4.0208  0.5003
   69SLPC  H14S 5900   2.099   1.681   9.809  0.3325  0.8996 -1.7362
   69SLPC  C215 5901   2.185   1.481   9.812 -0.2904 -0.4547 -0.2019
   69SLPC  H15R 5902   2.267   1.508   9.742  2.1122 -2.2405  1.7307
   69SLPC  H15S 5903   2.156   1.375   9.800 -0.0146 -0.5762  0.1767
   69SLPC  C216 5904   2.248   1.485   9.955  0.2638 -0.1413  0.7878
   69SLPC  H16R 5905   2.312   1.576   9.958  2.4775 -1.6212  0.5402
   69SLPC  H16S 5906   2.317   1.401   9.975 -0.4914 -1.4205 -1.5954
   69SLPC  C217 5907   2.149   1.501  10.073  0.2990  0.1297 -0.2057
   69SLPC  H17R 5908   2.101   1.402  10.095 -0.7623  0.7091  0.1845
   69SLPC  H17S 5909   2.074   1.581  10.055 -2.8590 -2.0906  1.8599
   69SLPC  C218 5910   2.219   1.531  10.203 -0.0553 -0.7393  0.6339
   69SLPC  H18R 5911   2.260   1.633  10.191 -2.9369  0.3680 -0.8123
   69SLPC  H18S 5912   2.298   1.457  10.229  1.3858  0.9150  1.1767
   69SLPC  H18T 5913   2.150   1.529  10.290 -0.0049 -0.7799  0.6730
   69SLPC   C33 5914   1.894   2.038  10.250  1.3895  0.0194 -0.7999
   69SLPC   H3X 5915   1.969   2.047  10.169  1.9873 -3.6232 -0.8179
   69SLPC   H3Y 5916   1.940   2.091  10.336 -0.8140  0.5648  0.1293
   69SLPC   C34 5917   1.769   2.127  10.217  0.1619  0.4869  0.9133
   69SLPC   H4X 5918   1.703   2.137  10.305 -1.6840 -0.5812 -0.2874
   69SLPC   H4Y 5919   1.709   2.080  10.136  1.1074 -1.5569  1.3350
   69SLPC   C35 5920   1.818   2.268  10.173  0.2631  0.3325 -0.8177
   69SLPC   H5X 5921   1.888   2.312  10.248 -1.2270  1.9058 -0.3074
   69SLPC   H5Y 5922   1.736   2.342  10.184  2.2877  2.3443  2.0891
   69SLPC   C36 5923   1.888   2.291  10.039 -0.5331  0.4015  0.4412
   69SLPC   H6X 5924   1.986   2.239  10.038 -0.0510  1.2964 -0.6946
   69SLPC   H6Y 5925   1.919   2.397  10.028  1.8808 -0.3978 -1.2422
   69SLPC   C37 5926   1.792   2.268   9.917  0.2252  0.2772  0.1299
   69SLPC   H7X 5927   1.689   2.300   9.942  0.6549 -0.6311  3.5122
   69SLPC   H7Y 5928   1.772   2.159   9.910 -2.0214  0.6407  0.1587
   69SLPC   C38 5929   1.833   2.329   9.784 -0.3655 -0.3903 -0.0683
   69SLPC   H8X 5930   1.915   2.273   9.734 -0.1131  0.8216 -1.0590
   69SLPC   H8Y 5931   1.874   2.432   9.791 -0.1485 -0.4025 -1.0240
   69SLPC   C39 5932   1.714   2.337   9.694  0.8291  0.6691 -0.1605
   69SLPC   H9X 5933   1.639   2.398   9.748  3.1281  2.4700  1.1468
   69SLPC   H9Y 5934   1.679   2.232   9.683  3.2647 -0.6968  3.4695
   69SLPC  C310 5935   1.751   2.391   9.559 -0.0092  0.1490  0.0375
   69SLPC  H10X 5936   1.839   2.329   9.532  1.4958  1.4750  1.6134
   69SLPC  H10Y 5937   1.778   2.497   9.579  0.0901  0.5518 -2.0167
   69SLPC  C311 5938   1.640   2.380   9.450 -0.9012  0.0397 -0.1895
   69SLPC  H11X 5939   1.667   2.456   9.373 -0.7633  0.9673  0.7459
   69SLPC  H11Y 5940   1.545   2.400   9.506  0.7140  1.1309  2.3439
   69SLPC  C312 5941   1.645   2.245   9.383  0.5275  0.1900  0.0158
   69SLPC  H12X 5942   1.632   2.176   9.469 -0.1496  0.9526  0.5522
   69SLPC  H12Y 5943   1.740   2.221   9.331  0.9166 -0.4485  0.9815
   69SLPC  C313 5944   1.528   2.224   9.286 -0.7947 -0.1535 -0.0820
   69SLPC  H13X 5945   1.513   2.307   9.213  2.7300 -1.8099 -3.0328
   69SLPC  H13Y 5946   1.442   2.216   9.355 -0.4460 -0.4940  0.3153
   69SLPC  C314 5947   1.550   2.102   9.197  0.2806  0.4320 -0.1148
   69SLPC  H14X 5948   1.646   2.113   9.142  1.0696 -1.1312  0.8923
   69SLPC  H14Y 5949   1.471   2.116   9.119 -1.3965 -1.2338  1.1981
   69SLPC  C315 5950   1.542   1.962   9.262 -0.0567 -0.5397 -0.3836
   69SLPC  H15X 5951   1.596   1.959   9.359  1.1971  0.6192 -1.0127
   69SLPC  H15Y 5952   1.602   1.891   9.201  2.7333 -0.6179  2.2369
   69SLPC  C316 5953   1.398   1.896   9.271 -0.5966  0.5586 -0.1206
   69SLPC  H16X 5954   1.327   1.964   9.323 -4.0570 -1.0767 -2.3314
   69SLPC  H16Y 5955   1.409   1.802   9.329 -0.6354 -1.2930 -2.9496
   69SLPC  C317 5956   1.316   1.877   9.139 -0.2465 -0.3606 -0.1041
   69SLPC  H17X 5957   1.386   1.839   9.062  0.7026 -1.7148  1.3741
   69SLPC  H17Y 5958   1.279   1.976   9.102  0.1131 -0.4822 -0.8043
   69SLPC  C318 5959   1.188   1.800   9.144  0.1974 -0.5067 -0.4763
   69SLPC  H18X 5960   1.189   1.689   9.154 -1.3549 -0.6308 -1.2962
   69SLPC  H18Y 5961   1.128   1.821   9.052  0.5585 -0.0149 -0.6066
   69SLPC  H18Z 5962   1.138   1.848   9.230  2.3301 -1.2728  1.2781
   70SLPC     N 5963   6.295   4.716  11.024 -0.2439  0.1017  0.1076
   70SLPC   C13 5964   6.393   4.631  11.085 -0.2115  0.7397 -0.2367
   70SLPC  H13A 5965   6.487   4.667  11.045  0.2020  0.1201  0.1590
   70SLPC  H13B 5966   6.397   4.647  11.192 -1.3701 -2.1635  0.3302
   70SLPC  H13C 5967   6.399   4.525  11.062  0.9364  1.4529 -3.8718
   70SLPC   C14 5968   6.349   4.856  11.020  0.5968  0.6258  0.1863
   70SLPC  H14A 5969   6.434   4.855  10.955  2.4749  1.2776  2.4885
   70SLPC  H14B 5970   6.281   4.928  10.977 -1.3077 -1.0715  0.2031
   70SLPC  H14C 5971   6.381   4.888  11.118 -3.5597 -1.1491  2.4041
   70SLPC   C15 5972   6.161   4.718  11.100 -0.1115  0.0662  0.0200
   70SLPC  H15A 5973   6.141   4.618  11.136 -0.9070 -0.0931 -0.8220
   70SLPC  H15B 5974   6.182   4.785  11.182 -0.1489  2.5410 -1.8839
   70SLPC  H15C 5975   6.081   4.756  11.038  1.2539  4.0750  0.4832
   70SLPC   C12 5976   6.274   4.670  10.881 -0.2684 -0.4353 -0.2868
   70SLPC  H12A 5977   6.188   4.726  10.848 -1.2235 -0.0008  2.7041
   70SLPC  H12B 5978   6.243   4.567  10.885  0.5784 -0.7029 -0.3660
   70SLPC   C11 5979   6.388   4.677  10.775  0.2239  0.1033  0.6163
   70SLPC  H11A 5980   6.420   4.780  10.747  0.8804 -0.7276 -2.0745
   70SLPC  H11B 5981   6.360   4.632  10.677  1.9148 -0.5428  0.3966
   70SLPC     P 5982   6.558   4.477  10.752  0.0021 -0.4143  0.4286
   70SLPC   O13 5983   6.655   4.416  10.846 -0.5214  0.1111 -0.3854
   70SLPC   O14 5984   6.433   4.400  10.727 -0.2060  0.1418  0.2418
   70SLPC   O12 5985   6.510   4.614  10.813  0.5010  0.5878 -0.3447
   70SLPC   O11 5986   6.627   4.507  10.612  0.1341  0.2168  0.5128
   70SLPC    C1 5987   6.712   4.618  10.594 -0.2285  0.3639  0.0889
   70SLPC    HA 5988   6.644   4.705  10.601 -1.1851 -0.1620 -1.9311
   70SLPC    HB 5989   6.799   4.627  10.663 -0.8181 -0.4910  0.9685
   70SLPC    C2 5990   6.772   4.621  10.450 -0.0294 -0.2942  0.6286
   70SLPC    HS 5991   6.813   4.723  10.443  0.1044 -0.1586  2.5982
   70SLPC   O21 5992   6.658   4.599  10.364 -0.1831 -0.0757 -0.2440
   70SLPC   C21 5993   6.674   4.658  10.244 -0.2408  0.3128 -0.7336
   70SLPC   O22 5994   6.762   4.736  10.217  0.2844 -0.0477  0.4982
   70SLPC   C22 5995   6.569   4.600  10.153  0.1072  0.1176  0.1702
   70SLPC   H2R 5996   6.605   4.498  10.126 -0.3377  0.1392 -0.5295
   70SLPC   H2S 5997   6.476   4.614  10.211 -0.0647  0.4544 -0.1789
   70SLPC    C3 5998   6.880   4.517  10.421 -0.4755  0.0694 -0.4960
   70SLPC    HX 5999   6.836   4.415  10.429  0.3873 -0.2481  0.3068
   70SLPC    HY 6000   6.946   4.501  10.508 -0.5320 -0.8592 -0.6126
   70SLPC   O31 6001   6.951   4.541  10.296  0.1930 -0.3956  0.2564
   70SLPC   C31 6002   7.047   4.631  10.306  0.2577 -0.3136  0.6531
   70SLPC   O32 6003   7.092   4.677  10.411 -0.1913 -0.2924  0.0526
   70SLPC   C32 6004   7.103   4.659  10.164 -0.6364 -0.0425  0.5895
   70SLPC   H2X 6005   7.014   4.705  10.117 -0.0447 -1.5412 -2.2459
   70SLPC   H2Y 6006   7.137   4.566  10.114  2.3311  1.2391 -0.0001
   70SLPC   C23 6007   6.570   4.677  10.021  0.0118  0.3504  0.2856
   70SLPC   H3R 6008   6.661   4.650   9.964 -0.5862 -1.6369  0.2061
   70SLPC   H3S 6009   6.567   4.786  10.043 -1.5300  0.0025  2.1303
   70SLPC   C24 6010   6.454   4.651   9.929  0.2407 -0.4382 -0.4095
   70SLPC   H4R 6011   6.355   4.675   9.973 -0.0343  2.4185 -2.2997
   70SLPC   H4S 6012   6.462   4.545   9.896  2.0839 -0.2172 -0.7882
   70SLPC   C25 6013   6.463   4.741   9.801 -0.2126  0.4992  0.4134
   70SLPC   H5R 6014   6.564   4.717   9.763  0.5026  2.4220  0.9786
   70SLPC   H5S 6015   6.459   4.843   9.844 -0.1582  0.2779  0.9489
   70SLPC   C26 6016   6.358   4.720   9.682  0.0076  0.0860  0.7766
   70SLPC   H6R 6017   6.374   4.809   9.618 -2.1201 -0.0803 -0.0669
   70SLPC   H6S 6018   6.256   4.730   9.725 -1.5217 -2.9475 -1.7242
   70SLPC   C27 6019   6.372   4.593   9.598 -0.2088 -0.1556  0.4096
   70SLPC   H7R 6020   6.275   4.589   9.543  0.1507 -0.2981 -0.2318
   70SLPC   H7S 6021   6.387   4.505   9.664 -0.4172  0.5427  1.4085
   70SLPC   C28 6022   6.483   4.601   9.502  0.2062 -0.0905  0.1530
   70SLPC   H8R 6023   6.574   4.636   9.555 -0.2532  1.1115  0.1733
   70SLPC   H8S 6024   6.454   4.683   9.434 -4.0642 -2.5618 -1.4384
   70SLPC   C29 6025   6.505   4.467   9.437 -0.0370  0.4337 -1.5082
   70SLPC   H9R 6026   6.531   4.384   9.505 -1.7801 -0.2758 -1.6723
   70SLPC  C210 6027   6.520   4.437   9.311 -0.1818  0.1748 -0.3382
   70SLPC  H10R 6028   6.542   4.334   9.277  2.7267  0.5791  0.0366
   70SLPC  C211 6029   6.500   4.540   9.198  0.0492  0.1762  0.1273
   70SLPC  H11R 6030   6.532   4.484   9.108  0.0044 -0.3877  0.4640
   70SLPC  H11S 6031   6.560   4.632   9.217 -0.9347  0.7113  0.7225
   70SLPC  C212 6032   6.352   4.581   9.181 -0.1712 -0.1617 -0.1238
   70SLPC  H12R 6033   6.309   4.621   9.274  1.3320  0.7190  0.2311
   70SLPC  C213 6034   6.277   4.563   9.074  1.0325  0.1125 -1.3153
   70SLPC  H13R 6035   6.173   4.595   9.063  1.2448  0.6665 -1.7367
   70SLPC  C214 6036   6.330   4.492   8.949  0.5183  0.5311 -0.4146
   70SLPC  H14R 6037   6.399   4.408   8.969 -1.1642 -0.3869  1.9284
   70SLPC  H14S 6038   6.385   4.572   8.893  1.2817 -0.6511 -1.4022
   70SLPC  C215 6039   6.222   4.433   8.858  1.3850  0.5633  0.6379
   70SLPC  H15R 6040   6.140   4.502   8.829 -0.1445 -1.0257  0.9276
   70SLPC  H15S 6041   6.171   4.347   8.909 -3.2143  2.6137  0.0154
   70SLPC  C216 6042   6.272   4.366   8.725  0.1197  0.2840  0.3347
   70SLPC  H16R 6043   6.185   4.314   8.679 -0.5180  1.9533 -0.4126
   70SLPC  H16S 6044   6.352   4.294   8.755 -0.5606 -0.7281 -0.2177
   70SLPC  C217 6045   6.338   4.459   8.624 -0.3852 -0.2201 -0.0741
   70SLPC  H17R 6046   6.393   4.543   8.672 -0.3097 -0.1715 -0.2439
   70SLPC  H17S 6047   6.266   4.509   8.556  0.5498  1.1885 -0.0615
   70SLPC  C218 6048   6.438   4.383   8.540 -0.5638 -0.0382  0.0492
   70SLPC  H18R 6049   6.394   4.290   8.498 -1.8726  2.0607 -3.7229
   70SLPC  H18S 6050   6.517   4.348   8.610  0.4428  1.0207 -0.5121
   70SLPC  H18T 6051   6.489   4.438   8.457  1.7761 -1.7897  0.2287
   70SLPC   C33 6052   7.231   4.748  10.163 -0.7252  0.2574  0.7723
   70SLPC   H3X 6053   7.316   4.684  10.194  0.0339  1.3733  1.0755
   70SLPC   H3Y 6054   7.230   4.830  10.238  2.7543  1.3611 -0.2362
   70SLPC   C34 6055   7.256   4.821  10.028 -0.3529  0.5652  0.1178
   70SLPC   H4X 6056   7.354   4.872  10.036 -0.6711  1.0210  1.3676
   70SLPC   H4Y 6057   7.168   4.882  10.000  0.0637  0.6887 -0.9478
   70SLPC   C35 6058   7.275   4.709   9.920 -0.4182 -0.7664  0.2840
   70SLPC   H5X 6059   7.176   4.659   9.907 -0.5453 -0.1328 -1.2704
   70SLPC   H5Y 6060   7.359   4.637   9.932 -2.6405 -3.5892 -0.1158
   70SLPC   C36 6061   7.296   4.763   9.776 -0.2335 -0.1265 -0.0140
   70SLPC   H6X 6062   7.400   4.800   9.767 -0.1729 -0.0647  0.9377
   70SLPC   H6Y 6063   7.232   4.853   9.766  1.3224  0.9557 -0.5054
   70SLPC   C37 6064   7.263   4.674   9.653 -0.0076 -0.3783 -0.3643
   70SLPC   H7X 6065   7.154   4.653   9.659 -0.7630  3.0621  0.1876
   70SLPC   H7Y 6066   7.326   4.582   9.656  0.5475 -0.0064 -0.5166
   70SLPC   C38 6067   7.291   4.748   9.522  0.3118  0.1090  0.2274
   70SLPC   H8X 6068   7.392   4.793   9.513  1.0856 -1.5610  0.1226
   70SLPC   H8Y 6069   7.221   4.834   9.527 -0.3011 -0.3400 -0.5266
   70SLPC   C39 6070   7.259   4.672   9.393 -0.3258  0.6494  1.1459
   70SLPC   H9X 6071   7.155   4.640   9.374  0.2001 -0.2870 -0.2958
   70SLPC   H9Y 6072   7.325   4.583   9.387 -0.1096  0.6915  2.6027
   70SLPC  C310 6073   7.290   4.759   9.266 -0.3690 -0.6988  0.1321
   70SLPC  H10X 6074   7.382   4.819   9.280 -1.3418  1.7254 -2.6593
   70SLPC  H10Y 6075   7.202   4.827   9.257  0.8728  1.1127  1.0346
   70SLPC  C311 6076   7.288   4.679   9.131 -0.4761 -0.1454  0.2742
   70SLPC  H11X 6077   7.195   4.617   9.131 -1.2432  0.9055 -2.1923
   70SLPC  H11Y 6078   7.382   4.622   9.115 -0.3785 -1.0807  3.4031
   70SLPC  C312 6079   7.274   4.777   9.012 -0.4557  0.3180 -0.0723
   70SLPC  H12X 6080   7.337   4.868   9.017  0.3860 -0.3070  1.1541
   70SLPC  H12Y 6081   7.168   4.809   9.015 -0.0719  1.7151  3.3487
   70SLPC  C313 6082   7.309   4.699   8.878  0.2495  0.6128  0.2122
   70SLPC  H13X 6083   7.230   4.623   8.868  0.0316  0.5168  2.2668
   70SLPC  H13Y 6084   7.407   4.647   8.888 -0.8793 -1.2137  3.4174
   70SLPC  C314 6085   7.311   4.800   8.758 -1.1185 -0.1902  0.0656
   70SLPC  H14X 6086   7.323   4.733   8.670 -1.3125  1.0620 -0.9519
   70SLPC  H14Y 6087   7.391   4.876   8.768 -1.8690  0.5226  0.9702
   70SLPC  C315 6088   7.173   4.870   8.755  0.2817  0.2928  0.7468
   70SLPC  H15X 6089   7.161   4.931   8.848 -2.4599  0.5704  0.2828
   70SLPC  H15Y 6090   7.091   4.795   8.753  0.0230  0.5155  2.0018
   70SLPC  C316 6091   7.141   4.960   8.634 -0.9346 -1.7768  0.4232
   70SLPC  H16X 6092   7.056   5.028   8.652  2.2447  2.6150  0.5177
   70SLPC  H16Y 6093   7.113   4.906   8.541 -1.5556 -1.2132  0.2743
   70SLPC  C317 6094   7.258   5.055   8.606 -0.4207 -0.4989 -0.0012
   70SLPC  H17X 6095   7.357   5.009   8.589 -0.1941 -0.9289  2.1806
   70SLPC  H17Y 6096   7.272   5.121   8.694 -0.0459  0.7366 -0.9469
   70SLPC  C318 6097   7.239   5.131   8.473 -0.1579  0.5146  0.0729
   70SLPC  H18X 6098   7.226   5.056   8.392  0.8841 -0.4274  0.7439
   70SLPC  H18Y 6099   7.318   5.203   8.443  0.4775 -0.4621 -0.6645
   70SLPC  H18Z 6100   7.141   5.180   8.486  0.4688  1.6355  0.7339
   71SLPC     N 6101   5.106   4.849  10.559  0.1932  0.3181 -0.1446
   71SLPC   C13 6102   5.191   4.775  10.461 -0.6047 -0.5306  0.8512
   71SLPC  H13A 6103   5.294   4.780  10.492 -0.7564  0.7892  1.1785
   71SLPC  H13B 6104   5.161   4.671  10.464 -2.0174 -0.2520 -1.1538
   71SLPC  H13C 6105   5.173   4.809  10.360  0.4233 -1.2499  0.4107
   71SLPC   C14 6106   4.962   4.839  10.509  0.0293  0.1244 -0.0575
   71SLPC  H14A 6107   4.961   4.897  10.418  0.8947  0.0935 -0.0958
   71SLPC  H14B 6108   4.936   4.736  10.487 -0.5926 -0.1545  1.7908
   71SLPC  H14C 6109   4.892   4.864  10.588  0.2403 -1.8525  0.8256
   71SLPC   C15 6110   5.153   4.994  10.556 -0.1971  0.1851 -0.4493
   71SLPC  H15A 6111   5.165   5.024  10.453 -2.1244 -0.3368 -0.8696
   71SLPC  H15B 6112   5.085   5.052  10.617  0.5211  0.6063 -0.0302
   71SLPC  H15C 6113   5.251   4.992  10.602  0.7874 -0.8178 -2.4577
   71SLPC   C12 6114   5.121   4.774  10.694  0.1831 -0.7271  0.2073
   71SLPC  H12A 6115   5.218   4.793  10.738  0.5302 -1.3593 -0.2843
   71SLPC  H12B 6116   5.131   4.670  10.668 -3.1330 -0.7891 -1.3448
   71SLPC   C11 6117   5.010   4.795  10.794  0.2047  0.7988  0.4296
   71SLPC  H11A 6118   4.981   4.901  10.803 -0.8769  0.4592  1.0626
   71SLPC  H11B 6119   5.056   4.767  10.892  0.6243 -0.0743 -0.0031
   71SLPC     P 6120   4.910   4.557  10.752  0.5730 -0.0192 -0.5513
   71SLPC   O13 6121   5.052   4.521  10.746 -0.3879 -0.0338  0.3026
   71SLPC   O14 6122   4.818   4.467  10.836 -0.0586 -0.0278 -0.7486
   71SLPC   O12 6123   4.889   4.717  10.779  0.0787  0.0050 -0.5910
   71SLPC   O11 6124   4.853   4.547  10.609  0.3824 -0.0407 -0.5825
   71SLPC    C1 6125   4.726   4.599  10.574  0.4573 -0.4680  0.4778
   71SLPC    HA 6126   4.648   4.549  10.636  0.5367  0.7394  1.6132
   71SLPC    HB 6127   4.716   4.705  10.605  1.9778  0.1133 -0.9005
   71SLPC    C2 6128   4.683   4.566  10.427 -0.0843 -0.0673 -0.4788
   71SLPC    HS 6129   4.716   4.460  10.422  1.9658  0.2985  2.4047
   71SLPC   O21 6130   4.756   4.645  10.332  1.0365  0.8329  0.2384
   71SLPC   C21 6131   4.781   4.592  10.212 -0.2458  0.4904 -0.8484
   71SLPC   O22 6132   4.760   4.479  10.181 -0.4705  0.2928 -0.0625
   71SLPC   C22 6133   4.863   4.695  10.134  0.3382 -0.0969  0.1634
   71SLPC   H2R 6134   4.826   4.795  10.163 -0.1040  0.0721 -0.9280
   71SLPC   H2S 6135   4.966   4.667  10.166 -0.3280 -1.0541  1.5605
   71SLPC    C3 6136   4.531   4.582  10.409 -0.1833  0.0963 -0.0436
   71SLPC    HX 6137   4.473   4.524  10.483  1.9299  0.4987  2.0414
   71SLPC    HY 6138   4.506   4.542  10.308  1.1458 -0.6686 -0.0961
   71SLPC   O31 6139   4.497   4.719  10.421 -0.4416 -0.2198 -0.3761
   71SLPC   C31 6140   4.501   4.791  10.318  0.0033 -0.4269  0.2855
   71SLPC   O32 6141   4.531   4.757  10.200 -0.3694 -0.0100 -1.1390
   71SLPC   C32 6142   4.469   4.937  10.352 -0.5277  0.1187  0.0679
   71SLPC   H2X 6143   4.550   4.963  10.423  0.5199 -0.7792 -0.7640
   71SLPC   H2Y 6144   4.367   4.951  10.395 -0.0087 -0.7091  1.6235
   71SLPC   C23 6145   4.848   4.685   9.977 -0.3591 -0.9119  0.0546
   71SLPC   H3R 6146   4.738   4.675   9.961 -1.0935 -1.0220  4.1151
   71SLPC   H3S 6147   4.888   4.587   9.943 -0.3313 -1.2327  1.0022
   71SLPC   C24 6148   4.911   4.798   9.889  0.3585 -0.1891 -0.2528
   71SLPC   H4R 6149   5.019   4.801   9.912 -0.1951 -1.3069  2.9058
   71SLPC   H4S 6150   4.870   4.895   9.926  1.8079  0.2505  0.2561
   71SLPC   C25 6151   4.895   4.780   9.741  0.5042  1.0054  0.6359
   71SLPC   H5R 6152   4.917   4.683   9.693 -0.4622  0.1036  1.9272
   71SLPC   H5S 6153   4.955   4.856   9.687  0.3455  1.5084  1.1500
   71SLPC   C26 6154   4.749   4.803   9.711 -0.1476 -0.4470  0.2352
   71SLPC   H6R 6155   4.716   4.904   9.742  0.4440  0.4676 -1.8957
   71SLPC   H6S 6156   4.690   4.727   9.767  0.8787 -0.3654  1.4813
   71SLPC   C27 6157   4.705   4.780   9.561 -0.5639  0.1341  0.5446
   71SLPC   H7R 6158   4.594   4.789   9.555 -0.5822  0.4412  1.2527
   71SLPC   H7S 6159   4.740   4.676   9.544  0.0969  0.1427  1.7369
   71SLPC   C28 6160   4.775   4.868   9.453 -0.5540 -0.0251 -0.0507
   71SLPC   H8R 6161   4.885   4.868   9.470 -0.3889  2.5098 -0.8181
   71SLPC   H8S 6162   4.743   4.974   9.446 -1.5123 -0.1350  2.0295
   71SLPC   C29 6163   4.731   4.805   9.324  0.4235  0.4279  0.4555
   71SLPC   H9R 6164   4.621   4.801   9.321  0.3414  1.8559  0.7939
   71SLPC  C210 6165   4.806   4.768   9.225 -0.4751 -0.0244  0.1204
   71SLPC  H10R 6166   4.757   4.730   9.134 -0.8623  0.3653  0.1605
   71SLPC  C211 6167   4.958   4.789   9.218  0.0724 -0.3970  0.4098
   71SLPC  H11R 6168   5.016   4.714   9.276  2.1185  1.2897  0.6594
   71SLPC  H11S 6169   4.995   4.883   9.264 -2.1416 -0.2156  2.0027
   71SLPC  C212 6170   5.003   4.780   9.074  0.3116 -0.1269 -0.3786
   71SLPC  H12R 6171   4.967   4.864   9.013  0.6336 -0.6986 -1.3801
   71SLPC  C213 6172   5.074   4.681   9.013 -0.8881  0.6629  0.9676
   71SLPC  H13R 6173   5.079   4.696   8.904 -3.0014 -2.3887  0.3244
   71SLPC  C214 6174   5.128   4.543   9.061  0.1465 -0.1025 -0.0295
   71SLPC  H14R 6175   5.094   4.525   9.166 -0.1122 -2.6456 -0.4756
   71SLPC  H14S 6176   5.238   4.551   9.065  0.1708  1.0388 -1.8988
   71SLPC  C215 6177   5.084   4.423   8.975  0.1792 -0.4805  1.5469
   71SLPC  H15R 6178   5.119   4.333   9.031  1.3043  0.1090  1.8196
   71SLPC  H15S 6179   5.153   4.428   8.887 -0.3432  3.5861  1.1989
   71SLPC  C216 6180   4.939   4.421   8.938  1.0768  0.3722 -0.1479
   71SLPC  H16R 6181   4.923   4.502   8.863  0.8354  0.0119 -0.4915
   71SLPC  H16S 6182   4.876   4.438   9.028 -3.0714 -2.5644 -2.1423
   71SLPC  C217 6183   4.898   4.290   8.878  0.4932  0.4776 -0.0575
   71SLPC  H17R 6184   4.893   4.207   8.952 -2.8559  0.7425  0.1344
   71SLPC  H17S 6185   4.967   4.281   8.791  0.8676 -0.0731  0.2872
   71SLPC  C218 6186   4.754   4.291   8.821  0.1130 -0.2740 -0.3528
   71SLPC  H18R 6187   4.696   4.197   8.834 -0.6881  0.4573  1.6755
   71SLPC  H18S 6188   4.751   4.345   8.724  1.9527  0.6119  0.0358
   71SLPC  H18T 6189   4.695   4.359   8.885 -1.3184  1.5641 -3.4171
   71SLPC   C33 6190   4.474   5.027  10.222 -0.3800  0.2018  0.3408
   71SLPC   H3X 6191   4.411   5.113  10.250  0.3482  0.7001  0.4795
   71SLPC   H3Y 6192   4.414   4.983  10.139  3.7935 -0.1410 -2.8561
   71SLPC   C34 6193   4.608   5.090  10.189  0.5282  0.6409  0.1539
   71SLPC   H4X 6194   4.682   5.011  10.160 -0.1982 -0.4433  1.1435
   71SLPC   H4Y 6195   4.658   5.129  10.281  1.6642 -0.2999 -0.0317
   71SLPC   C35 6196   4.605   5.193  10.074  0.5073  0.0796 -0.4820
   71SLPC   H5X 6197   4.704   5.242  10.058  1.6893 -1.8722  0.4916
   71SLPC   H5Y 6198   4.534   5.275  10.098  0.5894  0.2976 -0.9686
   71SLPC   C36 6199   4.562   5.128   9.943  0.3988 -0.1796  0.1495
   71SLPC   H6X 6200   4.455   5.105   9.964  0.5103 -2.4817 -1.4761
   71SLPC   H6Y 6201   4.605   5.028   9.923  2.0365  0.5424 -0.0607
   71SLPC   C37 6202   4.567   5.215   9.826 -0.8918 -0.3402  0.3154
   71SLPC   H7X 6203   4.675   5.225   9.801 -0.6315 -1.4492  0.9295
   71SLPC   H7Y 6204   4.512   5.307   9.854  0.3667  0.7848 -0.7416
   71SLPC   C38 6205   4.505   5.146   9.701 -0.1592 -0.3953 -0.5160
   71SLPC   H8X 6206   4.398   5.123   9.720 -1.4221  2.7725 -2.9043
   71SLPC   H8Y 6207   4.555   5.051   9.674  0.7239  0.0066 -0.3175
   71SLPC   C39 6208   4.491   5.250   9.588 -0.2120  0.2681  0.0469
   71SLPC   H9X 6209   4.595   5.272   9.558  1.0144 -1.8466  2.4109
   71SLPC   H9Y 6210   4.447   5.342   9.633  0.6658  0.6690  0.0969
   71SLPC  C310 6211   4.410   5.198   9.470  0.2647 -0.1727 -0.1331
   71SLPC  H10X 6212   4.306   5.175   9.502  0.0557  0.6187 -0.2345
   71SLPC  H10Y 6213   4.455   5.107   9.425  0.3035  0.2603 -0.9893
   71SLPC  C311 6214   4.411   5.306   9.361 -0.4729 -0.6820 -0.0938
   71SLPC  H11X 6215   4.515   5.326   9.326  0.6378 -0.7916  2.8630
   71SLPC  H11Y 6216   4.370   5.402   9.398 -0.2076 -0.4020 -0.5220
   71SLPC  C312 6217   4.313   5.257   9.256  0.0252 -1.1548 -0.1302
   71SLPC  H12X 6218   4.284   5.153   9.283  2.6132 -1.3429  2.4032
   71SLPC  H12Y 6219   4.341   5.246   9.149 -0.2006 -0.7581 -0.2317
   71SLPC  C313 6220   4.186   5.343   9.238 -0.6675  0.4063  0.5068
   71SLPC  H13X 6221   4.220   5.446   9.212 -0.7934  0.1515 -0.7320
   71SLPC  H13Y 6222   4.113   5.336   9.321 -0.3739 -1.5498  0.6423
   71SLPC  C314 6223   4.107   5.289   9.116 -0.1890  0.4227  0.9110
   71SLPC  H14X 6224   4.066   5.186   9.125 -1.1661  0.1686 -3.7881
   71SLPC  H14Y 6225   4.176   5.298   9.029  3.2923 -1.4427  3.2594
   71SLPC  C315 6226   3.983   5.372   9.096  1.7289 -0.2165  0.2396
   71SLPC  H15X 6227   3.991   5.469   9.149 -1.8708 -0.1688  0.9418
   71SLPC  H15Y 6228   3.908   5.322   9.161  2.3038 -0.2987  0.8496
   71SLPC  C316 6229   3.945   5.388   8.947  0.3445 -0.5828  0.2329
   71SLPC  H16X 6230   3.941   5.285   8.906  1.1488 -0.1714 -0.9362
   71SLPC  H16Y 6231   4.026   5.438   8.889  0.6877 -2.9349 -1.4653
   71SLPC  C317 6232   3.815   5.461   8.916 -0.0310 -0.0260  0.3948
   71SLPC  H17X 6233   3.807   5.541   8.992  0.9821 -1.2738  1.8793
   71SLPC  H17Y 6234   3.727   5.395   8.931 -0.2720  0.2865  0.3457
   71SLPC  C318 6235   3.806   5.515   8.775  0.5811 -0.0605  0.4127
   71SLPC  H18X 6236   3.847   5.447   8.698 -2.6913 -2.6238  0.6942
   71SLPC  H18Y 6237   3.849   5.617   8.767  0.3992 -0.0958 -1.2111
   71SLPC  H18Z 6238   3.697   5.527   8.757  0.5588  0.0325  0.6104
   72SLPC     N 6239   3.163   2.071  11.036  0.2228 -0.5779 -0.6884
   72SLPC   C13 6240   3.290   2.003  11.073  0.4475 -0.0400 -0.0249
   72SLPC  H13A 6241   3.382   2.055  11.050  0.6292 -0.2418  0.2422
   72SLPC  H13B 6242   3.286   1.986  11.179  2.4197  0.1027  0.1015
   72SLPC  H13C 6243   3.291   1.906  11.026 -3.2865  0.7965 -2.3270
   72SLPC   C14 6244   3.156   2.205  11.103 -0.5657 -0.1461 -0.3882
   72SLPC  H14A 6245   3.169   2.198  11.210  3.0198  2.6205 -0.4587
   72SLPC  H14B 6246   3.239   2.268  11.076 -1.4478  1.1133 -0.2595
   72SLPC  H14C 6247   3.066   2.259  11.079  0.2403  1.5575  0.2587
   72SLPC   C15 6248   3.044   1.987  11.078  0.0742  0.0492 -0.3673
   72SLPC  H15A 6249   2.961   2.006  11.012  0.4973  1.2288 -0.5871
   72SLPC  H15B 6250   3.067   1.883  11.058  0.3397  0.1184 -0.4284
   72SLPC  H15C 6251   3.027   2.002  11.183  2.4793  0.8264 -0.0104
   72SLPC   C12 6252   3.172   2.094  10.889  0.1716  0.7107 -0.0413
   72SLPC  H12A 6253   3.274   2.108  10.854  0.2926  1.3474  0.5442
   72SLPC  H12B 6254   3.121   2.185  10.862  0.6948  0.9882 -0.1253
   72SLPC   C11 6255   3.113   1.987  10.788  0.6311 -0.2112  0.7589
   72SLPC  H11A 6256   3.133   2.031  10.688 -0.0447  0.4166  0.8934
   72SLPC  H11B 6257   3.005   1.977  10.811  0.6790  0.3489  1.2448
   72SLPC     P 6258   3.270   1.798  10.694  0.0844 -0.1633 -0.5886
   72SLPC   O13 6259   3.399   1.876  10.687  0.6119 -0.6598 -0.7469
   72SLPC   O14 6260   3.296   1.655  10.716 -0.4484 -0.0094  0.4690
   72SLPC   O12 6261   3.173   1.857  10.802  0.3487 -0.5530  0.5862
   72SLPC   O11 6262   3.200   1.822  10.559  0.2489  0.4092 -0.1632
   72SLPC    C1 6263   3.061   1.784  10.546  0.2767 -0.5547 -0.2882
   72SLPC    HA 6264   3.047   1.680  10.584  0.6722 -0.6911 -0.5035
   72SLPC    HB 6265   2.995   1.849  10.606  0.3423  0.3487 -1.1780
   72SLPC    C2 6266   3.022   1.782  10.403  0.4716 -0.9184  0.5569
   72SLPC    HS 6267   2.919   1.743  10.397 -0.5740  1.2072  2.8430
   72SLPC   O21 6268   3.114   1.722  10.318 -0.3434  0.0242 -0.0648
   72SLPC   C21 6269   3.093   1.590  10.291  0.0674 -0.3485  0.2008
   72SLPC   O22 6270   2.989   1.532  10.298  0.3061  0.4807  0.0506
   72SLPC   C22 6271   3.217   1.540  10.226 -0.1351  0.2560 -0.1482
   72SLPC   H2R 6272   3.301   1.573  10.291  0.5018 -1.4120 -0.0611
   72SLPC   H2S 6273   3.216   1.429  10.232 -0.0210  0.2004 -1.1275
   72SLPC    C3 6274   3.014   1.930  10.353  0.5823 -0.3435  0.1247
   72SLPC    HX 6275   3.103   1.985  10.391  0.1278 -0.1553  0.9556
   72SLPC    HY 6276   2.929   1.980  10.405  2.1072 -1.9616  4.6430
   72SLPC   O31 6277   2.994   1.933  10.213 -0.3187 -0.6165 -0.5130
   72SLPC   C31 6278   3.101   1.954  10.138 -0.9329  0.5385 -0.3392
   72SLPC   O32 6279   3.217   1.956  10.183  0.4119 -0.5634  0.4576
   72SLPC   C32 6280   3.076   1.947   9.992  0.0408  0.3860 -0.9442
   72SLPC   H2X 6281   2.977   1.903   9.967  0.8112 -1.6918 -0.5530
   72SLPC   H2Y 6282   3.151   1.896   9.928 -0.5174  0.1245 -1.3954
   72SLPC   C23 6283   3.256   1.586  10.081  0.5721 -0.0758 -0.1349
   72SLPC   H3R 6284   3.344   1.525  10.049 -0.2733 -0.9664 -0.8158
   72SLPC   H3S 6285   3.277   1.694  10.064 -0.0351  0.3013  1.3003
   72SLPC   C24 6286   3.145   1.547   9.981 -0.2963  0.3405  0.8675
   72SLPC   H4R 6287   3.050   1.600  10.003 -1.2294 -0.8109 -0.2129
   72SLPC   H4S 6288   3.132   1.438  10.002 -0.5799  0.2158  0.0771
   72SLPC   C25 6289   3.175   1.562   9.825 -0.1836 -0.2013 -0.9759
   72SLPC   H5R 6290   3.260   1.492   9.810  0.1146 -0.7982  2.6332
   72SLPC   H5S 6291   3.204   1.666   9.802  1.0511 -0.6505 -1.5552
   72SLPC   C26 6292   3.055   1.521   9.744 -0.0686  0.4711  0.1150
   72SLPC   H6R 6293   2.972   1.592   9.764  0.0794  0.9393 -0.8855
   72SLPC   H6S 6294   3.029   1.416   9.772  1.0932 -0.0761 -0.7696
   72SLPC   C27 6295   3.084   1.532   9.592 -0.7621  0.3939 -0.1450
   72SLPC   H7R 6296   3.163   1.458   9.567  0.3060  1.3083  0.4439
   72SLPC   H7S 6297   3.126   1.632   9.572 -2.6151  1.3097  0.2677
   72SLPC   C28 6298   2.949   1.521   9.509  0.5722 -0.0964 -0.1610
   72SLPC   H8R 6299   2.870   1.574   9.566  0.5634 -0.9544  0.6394
   72SLPC   H8S 6300   2.926   1.412   9.506  0.8231 -0.1443 -0.5132
   72SLPC   C29 6301   2.949   1.573   9.371  0.6268  0.4577 -0.1883
   72SLPC   H9R 6302   2.981   1.678   9.364  0.8673  0.2879 -2.5345
   72SLPC  C210 6303   2.916   1.503   9.256  0.1469  0.1009  0.1637
   72SLPC  H10R 6304   2.934   1.562   9.165  2.1205  0.0880  0.4994
   72SLPC  C211 6305   2.876   1.360   9.242 -0.1868  0.1947  0.1544
   72SLPC  H11R 6306   2.867   1.311   9.341 -1.1470  0.9855  0.4721
   72SLPC  H11S 6307   2.959   1.300   9.199 -0.4192 -0.6583  0.8694
   72SLPC  C212 6308   2.751   1.344   9.163 -0.0009 -0.2270  0.1914
   72SLPC  H12R 6309   2.660   1.380   9.213 -0.3870 -0.2859 -0.4514
   72SLPC  C213 6310   2.738   1.289   9.034 -0.3061 -0.0163 -0.1654
   72SLPC  H13R 6311   2.640   1.295   8.984 -0.7575  0.2133  0.7305
   72SLPC  C214 6312   2.846   1.243   8.942 -0.1270 -0.3276 -0.3510
   72SLPC  H14R 6313   2.927   1.193   9.000  0.0259  0.3251  0.0141
   72SLPC  H14S 6314   2.892   1.334   8.898 -0.9084  0.0473 -0.3981
   72SLPC  C215 6315   2.801   1.161   8.825 -0.2486  0.8700 -0.4909
   72SLPC  H15R 6316   2.742   1.073   8.858  0.5336  0.9228  1.1642
   72SLPC  H15S 6317   2.885   1.117   8.767 -1.8394 -1.1671 -1.3600
   72SLPC  C216 6318   2.702   1.223   8.726 -0.9845  0.1034  0.0255
   72SLPC  H16R 6319   2.757   1.292   8.659  0.4727 -1.5813 -0.5916
   72SLPC  H16S 6320   2.621   1.282   8.774 -2.7488 -2.0639 -0.1533
   72SLPC  C217 6321   2.649   1.128   8.610 -0.6290  0.4386 -0.1774
   72SLPC  H17R 6322   2.612   1.197   8.532  1.0482  2.4415  0.6906
   72SLPC  H17S 6323   2.565   1.079   8.664 -0.4065  3.2330  3.0789
   72SLPC  C218 6324   2.745   1.038   8.522 -0.2453  0.3153 -0.5939
   72SLPC  H18R 6325   2.810   1.105   8.462  1.4705  0.5119  1.3847
   72SLPC  H18S 6326   2.680   0.983   8.450 -3.1953  0.1635  1.9478
   72SLPC  H18T 6327   2.808   0.967   8.579  0.7006 -0.2710 -2.2852
   72SLPC   C33 6328   3.067   2.083   9.918  0.2131 -0.6794  0.5524
   72SLPC   H3X 6329   3.162   2.135   9.945  0.9830 -0.1874 -2.7347
   72SLPC   H3Y 6330   2.985   2.148   9.957  1.9030  2.4144 -0.6699
   72SLPC   C34 6331   3.059   2.065   9.762  0.0072 -0.0586 -0.8702
   72SLPC   H4X 6332   3.149   2.007   9.732 -0.1072 -0.2602 -0.8311
   72SLPC   H4Y 6333   3.068   2.165   9.715 -1.3434 -0.2503 -1.5687
   72SLPC   C35 6334   2.935   1.987   9.703  0.2385 -0.4399  0.4030
   72SLPC   H5X 6335   2.846   2.052   9.718 -1.0640 -2.5908  3.1918
   72SLPC   H5Y 6336   2.915   1.893   9.760  1.6803  0.0624  1.8165
   72SLPC   C36 6337   2.947   1.950   9.554  0.9990 -0.4731 -0.3323
   72SLPC   H6X 6338   2.858   1.891   9.524  0.5589 -0.0502  0.1153
   72SLPC   H6Y 6339   3.038   1.887   9.549  1.2365 -0.4148  2.1307
   72SLPC   C37 6340   2.967   2.066   9.457  0.5346 -0.8804  0.4232
   72SLPC   H7X 6341   3.058   2.120   9.488  0.7491 -0.9270 -0.1261
   72SLPC   H7Y 6342   2.884   2.137   9.475  2.0982  1.4161 -0.9908
   72SLPC   C38 6343   2.995   2.016   9.315 -0.3519  0.5152 -0.3738
   72SLPC   H8X 6344   2.925   1.938   9.278  1.9463 -2.7373  1.5473
   72SLPC   H8Y 6345   3.097   1.971   9.310 -0.2269  0.7213  0.2130
   72SLPC   C39 6346   2.995   2.121   9.203 -0.3396 -0.1747  0.3833
   72SLPC   H9X 6347   3.061   2.206   9.233 -0.2673 -0.9873  2.7756
   72SLPC   H9Y 6348   2.894   2.166   9.201 -0.0299  0.5280  0.0717
   72SLPC  C310 6349   3.043   2.063   9.065  0.5871 -0.0222  0.5716
   72SLPC  H10X 6350   2.999   2.119   8.979  1.3938 -0.7597 -0.3468
   72SLPC  H10Y 6351   3.009   1.958   9.051  4.1230 -0.9565 -2.2700
   72SLPC  C311 6352   3.196   2.061   9.043  0.5566  0.1041  0.2545
   72SLPC  H11X 6353   3.245   2.002   9.123  0.7314  2.0427  1.6161
   72SLPC  H11Y 6354   3.209   2.171   9.045 -1.5660  0.4305 -0.9921
   72SLPC  C312 6355   3.234   2.019   8.897 -0.2600  0.1155  0.2015
   72SLPC  H12X 6356   3.152   2.047   8.827  0.4333  0.4473 -0.4924
   72SLPC  H12Y 6357   3.236   1.908   8.891 -1.0448  0.1462 -1.3400
   72SLPC  C313 6358   3.371   2.075   8.850 -0.3008  1.2271 -0.5083
   72SLPC  H13X 6359   3.454   2.024   8.902  1.3492  1.9895 -2.2983
   72SLPC  H13Y 6360   3.377   2.183   8.876 -1.3794  1.0917  0.3908
   72SLPC  C314 6361   3.387   2.062   8.690 -0.1289  0.8150  0.1295
   72SLPC  H14X 6362   3.311   2.131   8.649 -1.4658 -0.6632  0.0109
   72SLPC  H14Y 6363   3.362   1.956   8.666 -0.0378  0.4211  1.6315
   72SLPC  C315 6364   3.533   2.083   8.639 -0.0227 -0.4482 -0.8450
   72SLPC  H15X 6365   3.583   1.984   8.635  0.3640 -0.2255 -1.8115
   72SLPC  H15Y 6366   3.584   2.135   8.723 -1.3279 -1.2113  0.4738
   72SLPC  C316 6367   3.551   2.164   8.514 -0.5292 -0.0264  0.1040
   72SLPC  H16X 6368   3.492   2.257   8.527  1.3417  1.1681  0.3946
   72SLPC  H16Y 6369   3.511   2.117   8.421 -1.2147 -4.1102  2.1985
   72SLPC  C317 6370   3.695   2.216   8.506  0.2864 -0.1963  0.3079
   72SLPC  H17X 6371   3.763   2.130   8.486  0.8258  0.5886 -1.3494
   72SLPC  H17Y 6372   3.727   2.259   8.604 -1.9981  0.8770  0.6321
   72SLPC  C318 6373   3.719   2.322   8.399 -0.3496 -0.3451 -0.2198
   72SLPC  H18X 6374   3.654   2.410   8.417 -0.5669 -0.3286 -1.0337
   72SLPC  H18Y 6375   3.709   2.301   8.290  1.1988 -1.3559 -0.1982
   72SLPC  H18Z 6376   3.823   2.361   8.404 -1.1810  2.0856 -0.8397
   73SLPC     N 6377   5.092   1.534  10.817  0.0172 -0.7837 -0.4893
   73SLPC   C13 6378   5.199   1.428  10.806 -0.2621 -0.4001 -0.0891
   73SLPC  H13A 6379   5.159   1.351  10.742 -1.3026 -2.0410  2.3422
   73SLPC  H13B 6380   5.282   1.460  10.745  1.0081 -2.6239  0.3765
   73SLPC  H13C 6381   5.217   1.372  10.897 -3.6926  0.8757  1.5573
   73SLPC   C14 6382   5.134   1.638  10.927 -0.2739 -0.4449 -0.0589
   73SLPC  H14A 6383   5.222   1.692  10.895 -1.3010  0.9722 -0.6311
   73SLPC  H14B 6384   5.055   1.709  10.948 -1.1177 -1.7097  1.2440
   73SLPC  H14C 6385   5.152   1.587  11.021 -0.4594  0.2050  0.3388
   73SLPC   C15 6386   4.963   1.473  10.872  0.2333 -0.6906  0.2060
   73SLPC  H15A 6387   4.925   1.389  10.818  1.3167 -0.1222 -1.5307
   73SLPC  H15B 6388   4.979   1.450  10.976  1.2447 -2.3208 -0.2785
   73SLPC  H15C 6389   4.878   1.539  10.865  0.2557 -0.7575 -0.8022
   73SLPC   C12 6390   5.063   1.597  10.682 -0.1629 -0.0994 -0.1383
   73SLPC  H12A 6391   5.002   1.684  10.699 -0.0773 -0.1315  0.3652
   73SLPC  H12B 6392   5.003   1.530  10.623 -0.9409  1.6527 -1.3927
   73SLPC   C11 6393   5.192   1.659  10.604  0.2422  0.7567  0.6586
   73SLPC  H11A 6394   5.142   1.726  10.530 -0.6120 -0.0854  0.4486
   73SLPC  H11B 6395   5.239   1.573  10.553  0.4805  0.8767  0.6772
   73SLPC     P 6396   5.440   1.717  10.687 -0.2135 -0.2352 -0.0877
   73SLPC   O13 6397   5.491   1.835  10.751 -0.0924  0.2999 -0.4986
   73SLPC   O14 6398   5.483   1.590  10.747  1.0192  0.4839 -0.2164
   73SLPC   O12 6399   5.281   1.735  10.691  0.1135 -0.2465 -0.5213
   73SLPC   O11 6400   5.474   1.718  10.534  0.3760  0.7427  0.2774
   73SLPC    C1 6401   5.442   1.829  10.449 -0.1897 -0.4290 -0.3755
   73SLPC    HA 6402   5.373   1.905  10.491 -0.3987  0.4133 -2.1438
   73SLPC    HB 6403   5.538   1.880  10.424  1.1395 -3.2942 -1.6476
   73SLPC    C2 6404   5.367   1.776  10.324  1.2384  0.1120  1.0802
   73SLPC    HS 6405   5.277   1.726  10.364 -0.1799  2.3525  0.8448
   73SLPC   O21 6406   5.463   1.690  10.259 -0.0930  0.6829  0.2715
   73SLPC   C21 6407   5.415   1.568  10.221 -0.0186 -0.1065 -0.2001
   73SLPC   O22 6408   5.314   1.506  10.254 -0.7758 -0.4903  0.5456
   73SLPC   C22 6409   5.519   1.504  10.128 -0.3824  0.4704 -0.0416
   73SLPC   H2R 6410   5.603   1.575  10.114  1.4920 -1.8540 -1.3496
   73SLPC   H2S 6411   5.578   1.422  10.175 -2.3331 -0.7674  0.4052
   73SLPC    C3 6412   5.338   1.896  10.227  0.6391  0.2187  0.1104
   73SLPC    HX 6413   5.438   1.916  10.181  0.5451  1.0478  0.2550
   73SLPC    HY 6414   5.305   1.985  10.285  0.2322  0.5508 -0.6176
   73SLPC   O31 6415   5.233   1.867  10.124 -0.1788  0.1661 -0.1524
   73SLPC   C31 6416   5.240   1.937  10.010  0.0609 -0.1212 -0.4758
   73SLPC   O32 6417   5.321   2.026   9.997  0.0892  0.3102  0.4382
   73SLPC   C32 6418   5.151   1.885   9.897 -0.2326 -0.0609  0.2076
   73SLPC   H2X 6419   5.047   1.912   9.924  0.1878 -0.3452  2.3172
   73SLPC   H2Y 6420   5.156   1.775   9.888 -1.4187 -0.2593  1.6795
   73SLPC   C23 6421   5.451   1.464   9.993 -0.3508  0.0767 -0.8214
   73SLPC   H3R 6422   5.371   1.536   9.965 -0.3092  1.9945  3.3756
   73SLPC   H3S 6423   5.416   1.360  10.011  1.4086 -0.0998  2.2467
   73SLPC   C24 6424   5.544   1.470   9.873 -0.1160 -0.2735  0.2224
   73SLPC   H4R 6425   5.609   1.381   9.887 -1.3703 -1.6704 -2.2082
   73SLPC   H4S 6426   5.599   1.567   9.872 -0.3171 -0.1616 -0.1069
   73SLPC   C25 6427   5.475   1.447   9.730 -0.6323  0.3708 -0.0147
   73SLPC   H5R 6428   5.378   1.394   9.735 -0.6274  0.4845  3.5827
   73SLPC   H5S 6429   5.550   1.399   9.662  0.8262  1.7272  0.5649
   73SLPC   C26 6430   5.443   1.585   9.662 -0.1005  0.3093 -0.3502
   73SLPC   H6R 6431   5.533   1.650   9.655  0.4178 -0.5019 -1.8455
   73SLPC   H6S 6432   5.371   1.639   9.727 -1.7819 -2.5860  0.3543
   73SLPC   C27 6433   5.392   1.564   9.518  0.9911 -0.5181 -0.1665
   73SLPC   H7R 6434   5.314   1.485   9.525 -0.8615  1.2282  0.0167
   73SLPC   H7S 6435   5.466   1.539   9.439  2.3431 -0.7773  1.1611
   73SLPC   C28 6436   5.322   1.690   9.466  0.6350 -0.3546 -0.1487
   73SLPC   H8R 6437   5.229   1.717   9.520  0.6963 -0.2698 -0.0847
   73SLPC   H8S 6438   5.272   1.662   9.371  0.2554 -1.9489  0.4882
   73SLPC   C29 6439   5.414   1.812   9.444 -0.0325  0.2441  0.4592
   73SLPC   H9R 6440   5.460   1.863   9.530  2.5847 -1.5885  0.2652
   73SLPC  C210 6441   5.453   1.857   9.323 -0.2509  1.0534  0.0590
   73SLPC  H10R 6442   5.529   1.936   9.318  0.8071  0.0965  0.6357
   73SLPC  C211 6443   5.407   1.802   9.192 -0.9632 -0.3588 -0.3826
   73SLPC  H11R 6444   5.316   1.740   9.199 -0.9728 -0.3595 -0.5036
   73SLPC  H11S 6445   5.483   1.724   9.170 -2.0409 -1.6247  0.2783
   73SLPC  C212 6446   5.401   1.911   9.088  0.0444 -0.7490 -0.2110
   73SLPC  H12R 6447   5.350   2.002   9.123 -0.0132 -0.8839  0.0520
   73SLPC  C213 6448   5.437   1.903   8.957  0.1874 -0.0639 -0.4217
   73SLPC  H13R 6449   5.408   1.985   8.891 -2.5883  0.5411  1.3635
   73SLPC  C214 6450   5.503   1.778   8.904 -0.5026  0.3026  0.1683
   73SLPC  H14R 6451   5.485   1.690   8.970  0.1248  0.9097  1.1737
   73SLPC  H14S 6452   5.611   1.795   8.886 -0.6977 -0.0490 -1.5014
   73SLPC  C215 6453   5.436   1.723   8.771  0.6215  0.2215 -0.1369
   73SLPC  H15R 6454   5.328   1.722   8.796  0.4962  2.2295 -0.3658
   73SLPC  H15S 6455   5.470   1.619   8.752  0.3541  0.3897 -1.6861
   73SLPC  C216 6456   5.475   1.804   8.651  0.7186 -0.1446  0.1469
   73SLPC  H16R 6457   5.578   1.783   8.617  0.5846 -1.7620  0.6570
   73SLPC  H16S 6458   5.478   1.911   8.681  0.7574 -0.8523  2.9295
   73SLPC  C217 6459   5.364   1.791   8.549 -0.0478  0.3345 -0.0501
   73SLPC  H17R 6460   5.335   1.893   8.516 -1.8416 -0.2441 -0.3712
   73SLPC  H17S 6461   5.269   1.759   8.598 -0.6701  2.1113 -0.0057
   73SLPC  C218 6462   5.391   1.701   8.429  0.3920 -0.0734  0.2504
   73SLPC  H18R 6463   5.464   1.759   8.369 -0.6893  1.7637  0.6622
   73SLPC  H18S 6464   5.303   1.694   8.361  0.6126  0.8089 -0.1352
   73SLPC  H18T 6465   5.432   1.602   8.461  0.9682  1.1996  4.0068
   73SLPC   C33 6466   5.170   1.945   9.749  0.1536 -0.3569 -0.4181
   73SLPC   H3X 6467   5.273   1.920   9.716 -0.2912  0.3524 -2.4956
   73SLPC   H3Y 6468   5.162   2.055   9.748  0.5930 -0.3211 -0.3018
   73SLPC   C34 6469   5.058   1.892   9.663 -0.1802 -0.6222 -0.0984
   73SLPC   H4X 6470   4.963   1.921   9.713  1.0353  2.3351  0.7188
   73SLPC   H4Y 6471   5.051   1.782   9.650 -2.3892 -0.9882  3.0323
   73SLPC   C35 6472   5.055   1.966   9.527 -0.1531  0.1000  0.1813
   73SLPC   H5X 6473   5.152   1.949   9.476  0.5355  1.9831  0.7974
   73SLPC   H5Y 6474   5.045   2.076   9.539 -1.9007  0.1046 -0.9084
   73SLPC   C36 6475   4.937   1.930   9.438  0.2917  0.3721 -0.5381
   73SLPC   H6X 6476   4.855   1.927   9.513  0.8859 -0.8025  0.0978
   73SLPC   H6Y 6477   4.949   1.824   9.406  1.0729 -0.9694  3.5729
   73SLPC   C37 6478   4.905   2.031   9.322  0.2264 -0.3471  0.3361
   73SLPC   H7X 6479   4.916   2.139   9.346  2.2597  0.1059 -2.2586
   73SLPC   H7Y 6480   4.806   2.012   9.275  0.4340 -1.8984  0.4678
   73SLPC   C38 6481   5.005   2.001   9.207 -0.3116 -0.1050  0.2550
   73SLPC   H8X 6482   5.029   1.893   9.218  0.1575 -0.2269 -1.6769
   73SLPC   H8Y 6483   5.092   2.060   9.243 -0.6449  0.0945  0.7462
   73SLPC   C39 6484   4.970   2.050   9.068  0.1104  0.0523  1.0667
   73SLPC   H9X 6485   5.034   2.140   9.060 -0.3385  0.3136  0.3193
   73SLPC   H9Y 6486   4.868   2.089   9.083  0.2978 -0.1160  3.0746
   73SLPC  C310 6487   4.991   1.949   8.957  0.4955 -0.2772 -0.4084
   73SLPC  H10X 6488   4.945   1.850   8.979  1.0980 -0.5361 -0.3098
   73SLPC  H10Y 6489   5.098   1.930   8.934  0.4179  0.3587 -1.3603
   73SLPC  C311 6490   4.944   1.994   8.816  0.9139  0.0400 -0.2410
   73SLPC  H11X 6491   4.987   2.093   8.790 -2.5785  1.1204 -2.6496
   73SLPC  H11Y 6492   4.834   2.012   8.819  0.6906 -0.2201 -3.5843
   73SLPC  C312 6493   4.978   1.899   8.707  0.0098  0.0438  0.1004
   73SLPC  H12X 6494   4.944   1.796   8.732 -2.9497  0.9283  0.1255
   73SLPC  H12Y 6495   5.087   1.893   8.690  0.1009 -1.1522  0.9372
   73SLPC  C313 6496   4.919   1.937   8.570  0.0628  0.7389  0.2256
   73SLPC  H13X 6497   4.965   2.037   8.554 -0.1361  0.9197  0.7574
   73SLPC  H13Y 6498   4.809   1.944   8.578 -0.0756  0.0678 -0.9295
   73SLPC  C314 6499   4.956   1.834   8.463 -0.2000 -0.4614 -0.3851
   73SLPC  H14X 6500   5.058   1.791   8.470 -0.1924 -0.5332 -0.8907
   73SLPC  H14Y 6501   4.963   1.885   8.364 -1.3959  0.1377 -0.1688
   73SLPC  C315 6502   4.841   1.740   8.436  0.4252 -0.1617  0.0479
   73SLPC  H15X 6503   4.748   1.800   8.422 -1.6304 -2.4198  2.8277
   73SLPC  H15Y 6504   4.834   1.677   8.527 -0.6714  0.9684  0.7750
   73SLPC  C316 6505   4.869   1.644   8.319 -0.0725  0.1207 -0.0047
   73SLPC  H16X 6506   4.804   1.556   8.336  0.1122  0.1531  0.9235
   73SLPC  H16Y 6507   4.966   1.590   8.323  0.0876  0.3553 -0.5828
   73SLPC  C317 6508   4.862   1.709   8.175  0.2331 -0.1372 -0.7450
   73SLPC  H17X 6509   4.941   1.782   8.147  0.2431  0.8115  1.5207
   73SLPC  H17Y 6510   4.770   1.770   8.163  1.8494  1.9990 -3.2922
   73SLPC  C318 6511   4.881   1.593   8.078  0.2363 -0.9908 -0.3013
   73SLPC  H18X 6512   4.851   1.503   8.137 -5.4751  1.0762  0.6016
   73SLPC  H18Y 6513   4.987   1.592   8.046 -0.1388 -1.1612 -1.6242
   73SLPC  H18Z 6514   4.821   1.613   7.986 -0.9436  1.3871  0.8978
   74SLPC     N 6515   5.201   2.123  10.741  0.1096 -0.1297  0.2914
   74SLPC   C13 6516   5.064   2.202  10.760 -0.2673 -0.0330 -0.1180
   74SLPC  H13A 6517   5.082   2.307  10.745 -1.7037  0.5762  2.0249
   74SLPC  H13B 6518   4.996   2.169  10.683  1.8902  1.1036 -2.6692
   74SLPC  H13C 6519   5.028   2.173  10.858 -0.1523 -1.2057 -0.4017
   74SLPC   C14 6520   5.162   1.979  10.753 -0.7233  0.1464 -0.3647
   74SLPC  H14A 6521   5.107   1.952  10.664 -2.6062  1.4909  0.3296
   74SLPC  H14B 6522   5.244   1.911  10.773  1.2224  2.6666  0.8815
   74SLPC  H14C 6523   5.090   1.960  10.832 -3.7516  0.0461 -2.9733
   74SLPC   C15 6524   5.300   2.154  10.844 -0.1812  0.3404 -0.0917
   74SLPC  H15A 6525   5.376   2.077  10.844 -2.0779 -1.6756  1.4098
   74SLPC  H15B 6526   5.348   2.250  10.835  0.9728 -0.2579 -0.5546
   74SLPC  H15C 6527   5.254   2.140  10.941 -3.2559 -3.1067 -1.7809
   74SLPC   C12 6528   5.254   2.164  10.603 -1.1349  0.0918 -0.7480
   74SLPC  H12A 6529   5.331   2.089  10.590 -0.4589  0.1021  2.3543
   74SLPC  H12B 6530   5.288   2.264  10.623 -2.9690  1.0233 -2.0260
   74SLPC   C11 6531   5.161   2.157  10.482  0.2829  0.9112 -0.1628
   74SLPC  H11A 6532   5.223   2.180  10.392 -0.0763  1.3868 -0.2904
   74SLPC  H11B 6533   5.086   2.239  10.483 -1.6903 -0.6539 -3.6995
   74SLPC     P 6534   4.951   1.998  10.455 -0.1109  0.1784  0.3470
   74SLPC   O13 6535   4.934   1.855  10.482 -0.0651 -0.1881  0.7661
   74SLPC   O14 6536   4.871   2.093  10.538 -0.2010 -0.2245  0.8032
   74SLPC   O12 6537   5.102   2.038  10.463  0.4496 -0.2681  0.0777
   74SLPC   O11 6538   4.915   2.029  10.306 -0.6498 -0.9215  1.0731
   74SLPC    C1 6539   4.896   1.927  10.200 -0.6163 -0.2232 -0.1419
   74SLPC    HA 6540   4.969   1.944  10.117 -1.5802 -1.2814 -1.2444
   74SLPC    HB 6541   4.938   1.833  10.242  1.6296  0.4362 -0.7620
   74SLPC    C2 6542   4.750   1.910  10.153  0.7291 -0.2367 -0.4477
   74SLPC    HS 6543   4.735   1.811  10.104 -0.5527  0.9054 -2.5537
   74SLPC   O21 6544   4.699   2.007  10.062 -0.1699  0.2691 -0.8201
   74SLPC   C21 6545   4.743   1.988   9.938  0.0357  0.1261 -0.3610
   74SLPC   O22 6546   4.818   1.898   9.903 -0.1359 -0.2949 -0.4231
   74SLPC   C22 6547   4.688   2.104   9.855  0.1109 -0.4882  0.3706
   74SLPC   H2R 6548   4.579   2.086   9.849  0.5154 -2.8104 -0.8341
   74SLPC   H2S 6549   4.694   2.194   9.920 -1.2004 -0.6572  0.7553
   74SLPC    C3 6550   4.650   1.910  10.279 -0.2510  0.4961 -0.1480
   74SLPC    HX 6551   4.671   2.008  10.325  0.0669 -0.1359  1.0898
   74SLPC    HY 6552   4.691   1.835  10.350 -1.3102 -0.6410 -0.6908
   74SLPC   O31 6553   4.505   1.877  10.249  0.0769 -0.4580 -0.3006
   74SLPC   C31 6554   4.425   1.983  10.251  0.4439  0.4255  0.1817
   74SLPC   O32 6555   4.451   2.099  10.280  0.7649 -0.2464  0.5653
   74SLPC   C32 6556   4.283   1.933  10.220 -0.2074 -0.3776 -0.1543
   74SLPC   H2X 6557   4.229   1.955  10.314  0.2142  1.5622 -0.3270
   74SLPC   H2Y 6558   4.285   1.826  10.193 -0.2116 -0.4169  0.0007
   74SLPC   C23 6559   4.735   2.127   9.707 -0.3521 -0.4680 -0.2534
   74SLPC   H3R 6560   4.698   2.042   9.647 -1.4092 -0.9937  1.0919
   74SLPC   H3S 6561   4.846   2.134   9.702 -0.1513 -1.6588  1.5085
   74SLPC   C24 6562   4.681   2.251   9.641 -0.0288  0.1332 -0.5181
   74SLPC   H4R 6563   4.688   2.329   9.719 -0.1194 -0.3666 -0.0007
   74SLPC   H4S 6564   4.572   2.238   9.626 -0.0565 -0.2189 -0.0361
   74SLPC   C25 6565   4.738   2.292   9.505  0.4253 -0.8853  0.0382
   74SLPC   H5R 6566   4.690   2.234   9.423  0.2921  1.3539 -1.5798
   74SLPC   H5S 6567   4.847   2.273   9.512  0.3975 -1.1948 -0.3450
   74SLPC   C26 6568   4.739   2.441   9.485  0.7782  0.2393  0.8026
   74SLPC   H6R 6569   4.813   2.500   9.543  1.4066 -0.6325  0.9009
   74SLPC   H6S 6570   4.634   2.476   9.497  0.8712  1.2014 -0.9387
   74SLPC   C27 6571   4.757   2.471   9.336  0.2289 -0.5283  0.1071
   74SLPC   H7R 6572   4.671   2.430   9.279  0.7561  1.1959 -2.0722
   74SLPC   H7S 6573   4.849   2.421   9.298  1.3104  2.1220 -1.0006
   74SLPC   C28 6574   4.764   2.621   9.309 -0.5431  0.1819  0.5684
   74SLPC   H8R 6575   4.800   2.626   9.204 -1.8474 -0.8231  0.0424
   74SLPC   H8S 6576   4.845   2.670   9.367  2.2250 -1.2398 -1.8508
   74SLPC   C29 6577   4.634   2.687   9.321  0.0637  0.2887  0.4566
   74SLPC   H9R 6578   4.588   2.666   9.418  1.9043 -1.3285  1.0271
   74SLPC  C210 6579   4.573   2.759   9.223  0.9716  0.1243 -0.1904
   74SLPC  H10R 6580   4.475   2.796   9.254  1.2251  0.3454  0.3678
   74SLPC  C211 6581   4.625   2.784   9.078 -0.2036  0.2841 -0.8730
   74SLPC  H11R 6582   4.700   2.709   9.047 -1.0391 -1.4527  1.0292
   74SLPC  H11S 6583   4.675   2.882   9.094  0.1274 -0.1919  1.3379
   74SLPC  C212 6584   4.515   2.795   8.983  0.5158 -0.1813  0.0862
   74SLPC  H12R 6585   4.481   2.899   8.968 -0.8044 -0.0922  3.0401
   74SLPC  C213 6586   4.446   2.690   8.930 -0.0738 -0.2892 -0.3235
   74SLPC  H13R 6587   4.363   2.718   8.863  2.1181  3.5110 -1.7882
   74SLPC  C214 6588   4.478   2.548   8.962  0.4947 -0.1129  0.0725
   74SLPC  H14R 6589   4.390   2.485   8.987  1.3198 -0.5401  2.0983
   74SLPC  H14S 6590   4.545   2.537   9.050  2.3022  1.7886 -0.9649
   74SLPC  C215 6591   4.557   2.495   8.838  0.3476 -0.7852 -0.4689
   74SLPC  H15R 6592   4.653   2.549   8.825 -0.9249  1.0665 -2.9204
   74SLPC  H15S 6593   4.499   2.516   8.745 -0.0659  2.1147  0.3558
   74SLPC  C216 6594   4.598   2.347   8.844 -0.2046  0.0666 -0.1648
   74SLPC  H16R 6595   4.509   2.281   8.835  1.0557 -1.8823  0.8188
   74SLPC  H16S 6596   4.658   2.324   8.934 -1.5784 -1.8359  0.3347
   74SLPC  C217 6597   4.669   2.310   8.708  0.7725 -0.0811 -0.7508
   74SLPC  H17R 6598   4.615   2.360   8.625  1.8363  1.5492 -0.5337
   74SLPC  H17S 6599   4.654   2.201   8.694 -3.5686  0.0328  1.4241
   74SLPC  C218 6600   4.813   2.348   8.705 -0.0317 -0.6650 -0.2441
   74SLPC  H18R 6601   4.866   2.313   8.614  1.2092 -2.2217  1.0324
   74SLPC  H18S 6602   4.877   2.304   8.785 -0.2639 -1.9013 -0.7288
   74SLPC  H18T 6603   4.827   2.459   8.704 -0.1204 -0.6566 -1.7774
   74SLPC   C33 6604   4.210   2.004  10.103  0.4250  0.0286 -0.2652
   74SLPC   H3X 6605   4.223   2.115  10.105  0.3846  0.0318 -0.1600
   74SLPC   H3Y 6606   4.104   1.972  10.111  0.8672 -2.0847 -1.9941
   74SLPC   C34 6607   4.254   1.959   9.964  0.3008 -0.2871  0.4456
   74SLPC   H4X 6608   4.260   1.848   9.965 -0.8586 -0.4117 -1.3041
   74SLPC   H4Y 6609   4.357   1.996   9.946  0.3544 -1.1167 -1.1407
   74SLPC   C35 6610   4.165   2.022   9.855  0.2488  0.1585 -0.3831
   74SLPC   H5X 6611   4.163   2.132   9.866 -1.2401  0.2055 -0.8710
   74SLPC   H5Y 6612   4.063   1.986   9.884 -0.1246  2.2118  1.0567
   74SLPC   C36 6613   4.209   1.987   9.707 -0.4367 -0.3803 -0.6947
   74SLPC   H6X 6614   4.127   2.032   9.647 -0.9319 -2.9139 -2.0485
   74SLPC   H6Y 6615   4.201   1.876   9.703 -0.6729 -0.3721 -0.4410
   74SLPC   C37 6616   4.330   2.057   9.647  0.2789 -0.2124 -0.3923
   74SLPC   H7X 6617   4.417   1.994   9.676  0.0976  0.5650  1.9716
   74SLPC   H7Y 6618   4.351   2.154   9.697  3.4545 -0.9373 -0.1277
   74SLPC   C38 6619   4.329   2.087   9.500 -0.5153 -0.5741  0.1843
   74SLPC   H8X 6620   4.432   2.119   9.474  0.6555 -2.2243  2.4189
   74SLPC   H8Y 6621   4.252   2.165   9.481 -0.2258 -0.3519 -0.0748
   74SLPC   C39 6622   4.295   1.962   9.416 -0.4540 -0.4020  0.0355
   74SLPC   H9X 6623   4.187   1.951   9.438 -0.3924 -0.5918  0.2439
   74SLPC   H9Y 6624   4.360   1.880   9.454 -0.0730  1.4182  3.7632
   74SLPC  C310 6625   4.313   1.983   9.262 -0.4413 -0.0358  0.2417
   74SLPC  H10X 6626   4.303   2.090   9.233  3.3195  1.0193  2.1862
   74SLPC  H10Y 6627   4.239   1.921   9.208  1.3965 -3.8599  1.7594
   74SLPC  C311 6628   4.451   1.954   9.210 -0.3310 -1.0005 -0.6894
   74SLPC  H11X 6629   4.468   1.845   9.220 -1.2821 -1.0960 -0.0195
   74SLPC  H11Y 6630   4.524   2.003   9.279 -0.6819 -0.0788 -0.9594
   74SLPC  C312 6631   4.476   1.994   9.064  0.2028  0.3404 -0.2808
   74SLPC  H12X 6632   4.582   1.965   9.048 -0.0164 -0.3009 -0.6072
   74SLPC  H12Y 6633   4.456   2.102   9.047 -3.1398 -0.0140  0.6554
   74SLPC  C313 6634   4.385   1.914   8.973  0.0877 -0.2385 -0.5761
   74SLPC  H13X 6635   4.283   1.925   9.013 -0.0099 -0.7913 -0.6641
   74SLPC  H13Y 6636   4.407   1.805   8.976 -3.0846 -0.9424 -0.0499
   74SLPC  C314 6637   4.384   1.954   8.824 -0.0854  0.2029  0.2277
   74SLPC  H14X 6638   4.487   1.941   8.784 -0.7593 -0.7529 -1.2741
   74SLPC  H14Y 6639   4.357   2.061   8.812 -0.5363  0.2270  1.3088
   74SLPC  C315 6640   4.288   1.868   8.746  0.3663  0.6894 -0.8812
   74SLPC  H15X 6641   4.292   1.766   8.790 -0.2673  1.9710  2.4023
   74SLPC  H15Y 6642   4.318   1.874   8.639 -0.0038  0.3216 -1.0106
   74SLPC  C316 6643   4.139   1.905   8.761  0.5795  0.0510 -0.5532
   74SLPC  H16X 6644   4.123   2.011   8.732 -0.2542 -0.2776 -1.3344
   74SLPC  H16Y 6645   4.119   1.883   8.868  0.8724  1.5220 -0.1622
   74SLPC  C317 6646   4.050   1.823   8.676 -0.4192  0.3156 -0.0146
   74SLPC  H17X 6647   4.068   1.715   8.696  0.6631  0.2732 -1.0944
   74SLPC  H17Y 6648   4.075   1.846   8.570  0.3629  0.6748  0.2464
   74SLPC  C318 6649   3.900   1.874   8.704 -1.0111 -0.2166 -0.2954
   74SLPC  H18X 6650   3.910   1.985   8.706 -1.5017 -0.1755  1.1833
   74SLPC  H18Y 6651   3.877   1.861   8.812  0.4128  0.1696  0.0781
   74SLPC  H18Z 6652   3.821   1.844   8.633 -0.7660 -0.9144 -0.2813
   75SLPC     N 6653   4.236   1.304   6.830  0.3547 -0.3259  0.5891
   75SLPC   C13 6654   4.170   1.386   6.932 -0.3020 -0.1666 -0.1512
   75SLPC  H13A 6655   4.068   1.392   6.896 -0.0729  1.4201 -0.6093
   75SLPC  H13B 6656   4.166   1.333   7.026 -0.9917  0.2301  0.0561
   75SLPC  H13C 6657   4.224   1.478   6.943  1.1997 -1.2540  2.2877
   75SLPC   C14 6658   4.384   1.310   6.844 -0.1034 -0.0317 -0.4097
   75SLPC  H14A 6659   4.421   1.271   6.937 -1.5003  1.7968  0.9758
   75SLPC  H14B 6660   4.430   1.250   6.766  0.8598 -3.5421  2.5810
   75SLPC  H14C 6661   4.422   1.410   6.829  2.0677 -0.6451  0.6127
   75SLPC   C15 6662   4.197   1.361   6.695  0.3506  0.9733 -0.5678
   75SLPC  H15A 6663   4.265   1.333   6.616 -1.0315  1.6138 -2.0404
   75SLPC  H15B 6664   4.108   1.315   6.655  1.7566 -0.2325 -2.5563
   75SLPC  H15C 6665   4.178   1.466   6.683 -0.3973  0.5348 -4.6706
   75SLPC   C12 6666   4.187   1.161   6.847  0.0882 -0.1803  0.8313
   75SLPC  H12A 6667   4.080   1.173   6.838  0.2304  0.2177 -0.4471
   75SLPC  H12B 6668   4.209   1.131   6.949  0.0947 -0.4751  0.7421
   75SLPC   C11 6669   4.241   1.051   6.759 -0.2110 -0.0202 -0.6954
   75SLPC  H11A 6670   4.197   0.954   6.792  1.3931 -0.4394  0.3113
   75SLPC  H11B 6671   4.350   1.037   6.777 -0.3271 -0.5157 -0.3432
   75SLPC     P 6672   4.079   1.023   6.551  0.4694 -0.1178  0.3015
   75SLPC   O13 6673   3.974   1.126   6.567  0.4498 -0.4029 -0.6530
   75SLPC   O14 6674   4.102   0.988   6.411 -1.1007  0.4602  0.1168
   75SLPC   O12 6675   4.214   1.079   6.617  0.8439 -0.1653 -0.2180
   75SLPC   O11 6676   4.049   0.890   6.634 -0.0339  0.2947 -0.0638
   75SLPC    C1 6677   3.919   0.834   6.625  0.5362  0.2044 -0.2777
   75SLPC    HA 6678   3.842   0.913   6.613  1.0564  0.5572 -1.5298
   75SLPC    HB 6679   3.904   0.771   6.534 -2.0031  1.0098 -0.4952
   75SLPC    C2 6680   3.866   0.761   6.756  0.0048 -0.1547 -0.0925
   75SLPC    HS 6681   3.762   0.730   6.731  0.6189 -0.9776 -1.6990
   75SLPC   O21 6682   3.867   0.851   6.867 -0.2398  0.6295  0.1626
   75SLPC   C21 6683   3.766   0.936   6.879 -0.4263 -0.1381 -0.0289
   75SLPC   O22 6684   3.674   0.950   6.802  0.1317  0.5788 -0.6253
   75SLPC   C22 6685   3.805   1.025   6.998 -0.3434  0.2096  0.1552
   75SLPC   H2R 6686   3.903   0.986   7.034 -0.5278 -1.4111 -1.0208
   75SLPC   H2S 6687   3.827   1.125   6.955  2.9876 -0.4631  0.0263
   75SLPC    C3 6688   3.943   0.632   6.783  0.0340  0.2477 -0.6482
   75SLPC    HX 6689   4.049   0.660   6.805 -0.4761  1.8837 -0.0915
   75SLPC    HY 6690   3.923   0.566   6.696 -1.6918 -0.4653  0.2362
   75SLPC   O31 6691   3.875   0.570   6.894 -0.7014  0.1365 -0.2653
   75SLPC   C31 6692   3.932   0.586   7.013  0.5279 -0.2280  0.8069
   75SLPC   O32 6693   4.031   0.648   7.041  0.0416 -0.6711 -0.0758
   75SLPC   C32 6694   3.856   0.492   7.107 -0.0789 -0.4725  0.0958
   75SLPC   H2X 6695   3.891   0.387   7.106 -1.2912 -0.9527  2.1751
   75SLPC   H2Y 6696   3.747   0.484   7.084 -0.2470  1.3935  0.0793
   75SLPC   C23 6697   3.693   1.031   7.111  0.1955 -0.2564  0.1972
   75SLPC   H3R 6698   3.664   0.924   7.116  0.0355 -0.4239 -2.5749
   75SLPC   H3S 6699   3.595   1.080   7.093  0.4610  0.8767  1.6894
   75SLPC   C24 6700   3.747   1.064   7.247 -0.5606 -0.2154  0.8699
   75SLPC   H4R 6701   3.797   1.161   7.223  2.3155 -1.8208 -0.0911
   75SLPC   H4S 6702   3.823   0.996   7.292 -0.9536 -0.7842  0.6730
   75SLPC   C25 6703   3.647   1.105   7.350 -0.3839  0.0005  0.7987
   75SLPC   H5R 6704   3.567   1.029   7.340 -0.5608  0.2815 -0.0137
   75SLPC   H5S 6705   3.600   1.203   7.326  0.7135  0.7949  1.7853
   75SLPC   C26 6706   3.708   1.096   7.490  0.0708 -0.1167 -0.1745
   75SLPC   H6R 6707   3.812   1.134   7.494  1.0938 -2.6775 -0.6893
   75SLPC   H6S 6708   3.709   0.988   7.516 -3.6216 -0.9842 -2.8343
   75SLPC   C27 6709   3.638   1.188   7.591 -0.4009 -0.3537 -0.4854
   75SLPC   H7R 6710   3.529   1.167   7.598 -0.4096 -0.0780  0.4035
   75SLPC   H7S 6711   3.648   1.293   7.558 -0.1460 -0.0406  0.5510
   75SLPC   C28 6712   3.701   1.177   7.737 -0.1483 -0.3239 -0.1734
   75SLPC   H8R 6713   3.679   1.268   7.796  2.2502 -1.0947  2.1106
   75SLPC   H8S 6714   3.812   1.173   7.728  0.0770 -0.1388  2.1031
   75SLPC   C29 6715   3.637   1.047   7.795 -0.0987  0.1753 -0.2065
   75SLPC   H9R 6716   3.633   0.955   7.736 -0.7762  1.0259 -1.5308
   75SLPC  C210 6717   3.592   1.034   7.918  0.2381  0.0214 -0.0852
   75SLPC  H10R 6718   3.550   0.939   7.956  5.1984 -1.8173  1.5111
   75SLPC  C211 6719   3.587   1.148   8.018 -0.1326 -0.4389 -0.1302
   75SLPC  H11R 6720   3.652   1.232   7.986  0.1181 -0.1007  1.2292
   75SLPC  H11S 6721   3.643   1.110   8.105 -0.6542  1.3212  1.0283
   75SLPC  C212 6722   3.441   1.184   8.048  0.0103 -0.0409  0.2723
   75SLPC  H12R 6723   3.406   1.249   7.966  0.6916 -1.1867 -0.9515
   75SLPC  C213 6724   3.367   1.145   8.156 -0.1091  0.1898 -0.5603
   75SLPC  H13R 6725   3.263   1.178   8.172  0.2433  0.7169  0.8106
   75SLPC  C214 6726   3.411   1.060   8.275  0.3394  0.2307 -0.1138
   75SLPC  H14R 6727   3.366   1.096   8.370 -2.5663 -0.7617 -1.0188
   75SLPC  H14S 6728   3.519   1.082   8.285  0.4575  0.3971 -1.5960
   75SLPC  C215 6729   3.372   0.911   8.275  0.1259 -0.2863  0.1299
   75SLPC  H15R 6730   3.262   0.902   8.262  0.0055  1.4587 -0.3127
   75SLPC  H15S 6731   3.415   0.872   8.370  0.1283 -0.4615  0.0560
   75SLPC  C216 6732   3.437   0.817   8.166  0.3282 -0.2987 -0.1286
   75SLPC  H16R 6733   3.538   0.863   8.158 -0.0176  0.6364  0.6477
   75SLPC  H16S 6734   3.394   0.832   8.065 -0.7179 -3.9049 -0.3552
   75SLPC  C217 6735   3.437   0.665   8.197 -0.0325 -1.1610 -0.2533
   75SLPC  H17R 6736   3.510   0.649   8.280 -1.5827 -2.7591  0.8784
   75SLPC  H17S 6737   3.472   0.603   8.111  1.2878 -2.3360  1.0605
   75SLPC  C218 6738   3.308   0.601   8.243 -1.0004  0.2215  0.5825
   75SLPC  H18R 6739   3.269   0.643   8.338  0.5844  0.0724  1.3199
   75SLPC  H18S 6740   3.328   0.494   8.263  0.4840  0.4186  0.2676
   75SLPC  H18T 6741   3.224   0.612   8.170  0.6341 -0.0221 -1.4382
   75SLPC   C33 6742   3.859   0.543   7.252 -0.9516  0.6619  1.4438
   75SLPC   H3X 6743   3.819   0.465   7.321 -0.4820 -0.6721  0.2681
   75SLPC   H3Y 6744   3.965   0.558   7.282 -0.2986 -1.1105  0.2219
   75SLPC   C34 6745   3.783   0.672   7.276  0.3198  0.0115 -0.6557
   75SLPC   H4X 6746   3.683   0.647   7.235  0.5422 -1.2787 -0.4663
   75SLPC   H4Y 6747   3.829   0.750   7.212 -0.4740  3.6106  2.7861
   75SLPC   C35 6748   3.778   0.713   7.425 -0.6443  0.6318  0.2365
   75SLPC   H5X 6749   3.747   0.622   7.481  2.6769 -0.5358  0.3646
   75SLPC   H5Y 6750   3.700   0.792   7.438  1.7302  2.9517  1.2913
   75SLPC   C36 6751   3.912   0.760   7.484 -0.1659 -0.1107 -0.2709
   75SLPC   H6X 6752   3.937   0.855   7.431  0.8121 -1.1777 -1.8071
   75SLPC   H6Y 6753   3.997   0.690   7.469  0.3467  0.7388 -1.5840
   75SLPC   C37 6754   3.909   0.794   7.630  0.1992  0.1689  0.1063
   75SLPC   H7X 6755   3.824   0.858   7.661  0.1353  0.4543 -0.6552
   75SLPC   H7Y 6756   4.006   0.846   7.648  1.1601 -0.9888 -1.4589
   75SLPC   C38 6757   3.910   0.671   7.722  0.3665  0.2316 -0.2486
   75SLPC   H8X 6758   3.992   0.596   7.708  0.0728  0.2088 -2.0507
   75SLPC   H8Y 6759   3.820   0.607   7.715 -0.1256  0.8688  0.1641
   75SLPC   C39 6760   3.894   0.718   7.867  0.0577  0.0964 -0.7703
   75SLPC   H9X 6761   3.794   0.765   7.874 -1.0093 -1.8115 -2.0722
   75SLPC   H9Y 6762   3.968   0.799   7.884 -0.3223  0.0810  1.1085
   75SLPC  C310 6763   3.915   0.608   7.971 -0.4571 -0.0872 -0.4770
   75SLPC  H10X 6764   4.019   0.573   7.953 -0.4177  1.1105 -3.0293
   75SLPC  H10Y 6765   3.837   0.529   7.964  0.3469 -0.9415  0.0139
   75SLPC  C311 6766   3.924   0.654   8.114 -0.5915 -0.7871 -0.2937
   75SLPC  H11X 6767   3.939   0.764   8.116 -1.1600 -0.6901 -0.8580
   75SLPC  H11Y 6768   4.014   0.610   8.161  1.5283  2.2770 -1.1708
   75SLPC  C312 6769   3.802   0.629   8.197 -0.6744  0.4514  0.3158
   75SLPC  H12X 6770   3.784   0.520   8.189  1.4319  0.0393  0.6336
   75SLPC  H12Y 6771   3.715   0.669   8.140 -0.8835 -0.4837 -0.0371
   75SLPC  C313 6772   3.808   0.674   8.346  0.2494 -0.5286 -0.4756
   75SLPC  H13X 6773   3.727   0.637   8.412  1.5510 -2.0653  0.3242
   75SLPC  H13Y 6774   3.801   0.785   8.340  0.3925 -0.5420 -0.9573
   75SLPC  C314 6775   3.938   0.630   8.418 -0.5193 -0.7309  0.5385
   75SLPC  H14X 6776   3.952   0.693   8.509  0.3842  0.2370 -0.2419
   75SLPC  H14Y 6777   4.019   0.660   8.348 -1.5796  1.6939  0.2160
   75SLPC  C315 6778   3.934   0.487   8.443 -0.6340  0.4055 -0.5573
   75SLPC  H15X 6779   3.922   0.435   8.345 -2.8126  0.5558 -0.4096
   75SLPC  H15Y 6780   3.846   0.467   8.508 -0.0575  1.0392  0.4366
   75SLPC  C316 6781   4.062   0.435   8.499 -0.6980 -0.0988 -0.0584
   75SLPC  H16X 6782   4.045   0.329   8.529  1.1012 -0.6798 -0.9397
   75SLPC  H16Y 6783   4.088   0.492   8.591 -0.2766 -0.6347  0.1602
   75SLPC  C317 6784   4.185   0.458   8.416 -0.3538  0.3472  0.3535
   75SLPC  H17X 6785   4.199   0.561   8.378 -0.5500 -0.0854 -0.9199
   75SLPC  H17Y 6786   4.171   0.397   8.324  1.5396  0.3142  0.0588
   75SLPC  C318 6787   4.314   0.412   8.480 -0.3145 -0.1413  0.7645
   75SLPC  H18X 6788   4.400   0.431   8.411  0.8126  0.9134  2.3804
   75SLPC  H18Y 6789   4.307   0.305   8.506 -0.5431 -0.0620  1.0348
   75SLPC  H18Z 6790   4.344   0.480   8.562  2.7107  0.7151 -0.8879
   76SLPC     N 6791   3.810   6.079   6.033  0.0363 -1.0239  0.0459
   76SLPC   C13 6792   3.816   6.094   5.879 -0.2482 -0.0833 -0.5626
   76SLPC  H13A 6793   3.726   6.149   5.857 -2.0290 -1.8175  1.8121
   76SLPC  H13B 6794   3.908   6.140   5.848  1.1892 -0.4976  2.6672
   76SLPC  H13C 6795   3.805   5.999   5.830 -0.9689 -0.5929  0.5375
   76SLPC   C14 6796   3.944   6.027   6.080 -0.3508  0.0833  0.1550
   76SLPC  H14A 6797   4.023   6.101   6.080  1.5364 -1.7952  1.3534
   76SLPC  H14B 6798   3.938   5.988   6.181 -1.0073 -1.4546 -0.4468
   76SLPC  H14C 6799   3.976   5.945   6.018  0.4204  0.1240  0.4782
   76SLPC   C15 6800   3.711   5.970   6.069  0.2189  0.4375  0.4946
   76SLPC  H15A 6801   3.718   5.965   6.177 -0.7089  2.7000  0.7106
   76SLPC  H15B 6802   3.610   5.983   6.034 -0.3245  0.9807  2.1780
   76SLPC  H15C 6803   3.738   5.872   6.031 -1.2338 -0.0906  0.7516
   76SLPC   C12 6804   3.775   6.218   6.094  0.2994 -0.2026  0.1114
   76SLPC  H12A 6805   3.854   6.285   6.063 -0.4155 -0.4644 -2.5272
   76SLPC  H12B 6806   3.779   6.206   6.201  1.3361 -0.8276  0.0196
   76SLPC   C11 6807   3.641   6.286   6.067 -0.2257  0.1286  0.0897
   76SLPC  H11A 6808   3.639   6.323   5.963 -1.3727 -0.0696  0.0322
   76SLPC  H11B 6809   3.638   6.381   6.125  0.5703 -0.4546  1.1199
   76SLPC     P 6810   3.424   6.256   6.213  0.7213  0.0555  0.2880
   76SLPC   O13 6811   3.395   6.401   6.207 -0.3973 -0.2634 -0.0063
   76SLPC   O14 6812   3.308   6.166   6.226  0.3040 -0.1480  0.4161
   76SLPC   O12 6813   3.521   6.212   6.091  0.2695 -0.7359  0.1964
   76SLPC   O11 6814   3.520   6.234   6.335  0.2078  0.0360  0.2246
   76SLPC    C1 6815   3.560   6.105   6.395  0.3705 -1.1265 -0.0019
   76SLPC    HA 6816   3.547   6.018   6.326 -1.2280 -0.8341 -0.1260
   76SLPC    HB 6817   3.667   6.117   6.419  0.5008 -0.2759 -0.9477
   76SLPC    C2 6818   3.505   6.079   6.537 -0.6028 -0.3000  0.2753
   76SLPC    HS 6819   3.394   6.085   6.534 -0.5658  2.7249  1.5017
   76SLPC   O21 6820   3.548   6.181   6.628  0.3388  0.6217  0.1200
   76SLPC   C21 6821   3.470   6.285   6.641  0.3147  0.1856  0.2478
   76SLPC   O22 6822   3.350   6.292   6.617 -0.2959  0.3112 -0.2555
   76SLPC   C22 6823   3.556   6.385   6.704  0.2911  0.7857  0.3240
   76SLPC   H2R 6824   3.642   6.341   6.758 -0.4347  0.4704  1.2413
   76SLPC   H2S 6825   3.605   6.447   6.626  2.7107  0.4277  1.4798
   76SLPC    C3 6826   3.551   5.938   6.589  0.2603  0.0848 -0.2376
   76SLPC    HX 6827   3.658   5.930   6.562  0.3429  1.0725 -0.2254
   76SLPC    HY 6828   3.503   5.870   6.515  1.8987 -0.6528 -0.6676
   76SLPC   O31 6829   3.528   5.918   6.731  0.1196  0.5542 -0.2908
   76SLPC   C31 6830   3.428   5.834   6.756 -0.7509 -0.7669 -0.0666
   76SLPC   O32 6831   3.379   5.760   6.673  0.5023 -0.0095 -0.0451
   76SLPC   C32 6832   3.401   5.835   6.907 -0.1816  0.2691 -0.2548
   76SLPC   H2X 6833   3.364   5.935   6.938 -0.0607  0.5271 -0.9349
   76SLPC   H2Y 6834   3.500   5.826   6.957  0.0577  0.8793 -0.5997
   76SLPC   C23 6835   3.476   6.473   6.803  0.2279  0.2065 -0.3808
   76SLPC   H3R 6836   3.366   6.465   6.788  0.1573  0.0113  0.2013
   76SLPC   H3S 6837   3.495   6.582   6.793 -3.3300  1.0332  0.2838
   76SLPC   C24 6838   3.520   6.445   6.954  0.7301  0.1442 -0.3424
   76SLPC   H4R 6839   3.628   6.420   6.948  0.6911  0.2705 -2.3909
   76SLPC   H4S 6840   3.474   6.350   6.991 -0.2764  0.6673 -0.2223
   76SLPC   C25 6841   3.492   6.561   7.044  0.4511 -0.2083 -0.0789
   76SLPC   H5R 6842   3.396   6.607   7.013  1.0525  0.5697 -0.8107
   76SLPC   H5S 6843   3.580   6.627   7.031  0.9863 -1.0969 -1.1178
   76SLPC   C26 6844   3.498   6.508   7.188  0.1926 -0.1990  0.1085
   76SLPC   H6R 6845   3.593   6.455   7.206  1.5070  1.4984 -1.4149
   76SLPC   H6S 6846   3.408   6.444   7.200 -0.7644  0.8469 -1.1320
   76SLPC   C27 6847   3.493   6.634   7.280  0.5369  0.0926 -0.0471
   76SLPC   H7R 6848   3.418   6.704   7.238  1.7404  1.4729  0.0211
   76SLPC   H7S 6849   3.592   6.685   7.276 -0.3041  2.1135  2.2423
   76SLPC   C28 6850   3.452   6.615   7.425 -0.0108  0.4581  1.2696
   76SLPC   H8R 6851   3.456   6.711   7.481  1.2654 -0.0977  2.1730
   76SLPC   H8S 6852   3.343   6.597   7.418  0.2720 -0.7634 -0.7374
   76SLPC   C29 6853   3.516   6.507   7.506  0.6633  0.6094 -0.1484
   76SLPC   H9R 6854   3.458   6.415   7.493 -0.2348  0.9578  1.1923
   76SLPC  C210 6855   3.623   6.513   7.590 -0.1732  0.5598  0.5089
   76SLPC  H10R 6856   3.644   6.414   7.631 -1.3287  0.2533  0.3871
   76SLPC  C211 6857   3.715   6.629   7.622 -0.4307 -0.8676  0.7028
   76SLPC  H11R 6858   3.677   6.688   7.708 -2.6218 -1.6727  0.3449
   76SLPC  H11S 6859   3.708   6.705   7.542 -2.6146 -0.4226  1.2667
   76SLPC  C212 6860   3.866   6.590   7.653  1.3723  0.1072  0.8531
   76SLPC  H12R 6861   3.899   6.613   7.756 -2.6423 -2.5620  3.0369
   76SLPC  C213 6862   3.944   6.513   7.578  0.7686 -1.0586  0.1649
   76SLPC  H13R 6863   4.048   6.505   7.611  1.3597  1.0344 -0.9637
   76SLPC  C214 6864   3.910   6.455   7.436  0.8192 -0.6946 -0.5029
   76SLPC  H14R 6865   3.818   6.497   7.390  1.2702 -0.7928 -1.5249
   76SLPC  H14S 6866   3.892   6.347   7.456  0.0574 -0.7425 -1.4064
   76SLPC  C215 6867   4.017   6.455   7.327 -0.0666 -0.0049 -0.5156
   76SLPC  H15R 6868   4.093   6.375   7.337  0.4091  0.4986 -0.0339
   76SLPC  H15S 6869   4.074   6.551   7.326  0.6883 -0.3757  1.7548
   76SLPC  C216 6870   3.961   6.443   7.182  0.2923 -0.3720  0.2989
   76SLPC  H16R 6871   3.889   6.526   7.163 -0.3487 -0.8224  0.7346
   76SLPC  H16S 6872   3.903   6.349   7.189  0.2120 -0.1950  2.7762
   76SLPC  C217 6873   4.073   6.428   7.077  0.1039 -0.6094  0.0835
   76SLPC  H17R 6874   4.142   6.350   7.115  1.1031  0.3665  0.3210
   76SLPC  H17S 6875   4.126   6.526   7.069  0.8570 -1.1294 -1.6402
   76SLPC  C218 6876   4.004   6.408   6.939 -0.4115  0.2109  0.8206
   76SLPC  H18R 6877   3.935   6.322   6.947  0.2369 -0.5234 -0.8932
   76SLPC  H18S 6878   4.082   6.379   6.865 -1.8085  0.8801 -0.9919
   76SLPC  H18T 6879   3.954   6.506   6.920  0.2596  0.6561  1.2833
   76SLPC   C33 6880   3.299   5.731   6.935 -0.0310 -0.2846 -0.2002
   76SLPC   H3X 6881   3.332   5.630   6.903  1.2658 -0.2822  1.0193
   76SLPC   H3Y 6882   3.208   5.759   6.877  1.5232  2.6833 -1.4140
   76SLPC   C34 6883   3.256   5.721   7.080  0.2258 -0.3464 -0.3456
   76SLPC   H4X 6884   3.334   5.672   7.142  0.2093 -1.3623 -1.1043
   76SLPC   H4Y 6885   3.163   5.661   7.081  0.3060 -0.4664  0.1790
   76SLPC   C35 6886   3.212   5.857   7.137  0.3929 -0.3233 -0.1085
   76SLPC   H5X 6887   3.131   5.889   7.068  0.0946  0.1825  0.4623
   76SLPC   H5Y 6888   3.295   5.931   7.131  1.1775 -1.2569 -1.7230
   76SLPC   C36 6889   3.157   5.840   7.279  0.1500 -0.4382  0.0533
   76SLPC   H6X 6890   3.079   5.766   7.249 -0.6875  1.2924 -2.2545
   76SLPC   H6Y 6891   3.115   5.940   7.302  0.8580  0.0075 -0.5690
   76SLPC   C37 6892   3.259   5.799   7.386  0.2916  0.7648 -0.1686
   76SLPC   H7X 6893   3.338   5.872   7.414  1.0481 -0.9842  2.8035
   76SLPC   H7Y 6894   3.302   5.704   7.348 -1.6328 -0.9160  1.5771
   76SLPC   C38 6895   3.184   5.754   7.513  0.5358 -0.5825 -0.6311
   76SLPC   H8X 6896   3.101   5.683   7.494 -1.2207  0.7645  1.5923
   76SLPC   H8Y 6897   3.138   5.841   7.564  0.2167 -0.8225 -0.5060
   76SLPC   C39 6898   3.276   5.677   7.612  0.1572 -0.1819  0.5400
   76SLPC   H9X 6899   3.369   5.739   7.617 -0.2838  0.6201 -0.6554
   76SLPC   H9Y 6900   3.309   5.583   7.564  0.4789  0.0321  0.3361
   76SLPC  C310 6901   3.203   5.648   7.746 -0.0011  0.5412 -0.4605
   76SLPC  H10X 6902   3.264   5.574   7.802 -0.1889  0.5896 -0.1874
   76SLPC  H10Y 6903   3.108   5.595   7.722  0.7223 -1.4281  0.7401
   76SLPC  C311 6904   3.191   5.768   7.839  0.3347  0.2062  0.1512
   76SLPC  H11X 6905   3.145   5.852   7.782  0.1749  0.9846  1.3892
   76SLPC  H11Y 6906   3.299   5.787   7.857  0.6874 -1.6784  0.2052
   76SLPC  C312 6907   3.121   5.746   7.973  0.7288  0.4182 -0.2797
   76SLPC  H12X 6908   3.018   5.712   7.950  0.8783 -0.2342 -0.0104
   76SLPC  H12Y 6909   3.108   5.840   8.031 -1.5903  1.4306 -2.2587
   76SLPC  C313 6910   3.184   5.640   8.069 -0.1684  0.3264 -0.1157
   76SLPC  H13X 6911   3.290   5.668   8.082  0.9021 -3.0816 -0.4811
   76SLPC  H13Y 6912   3.187   5.537   8.026  0.1651  0.4839 -0.4731
   76SLPC  C314 6913   3.117   5.636   8.203 -0.2817  0.3479 -0.1509
   76SLPC  H14X 6914   3.013   5.602   8.187  0.2551 -1.1905 -0.5632
   76SLPC  H14Y 6915   3.123   5.742   8.238 -1.1270  0.0178  1.0437
   76SLPC  C315 6916   3.189   5.544   8.301 -0.3057  0.3864  0.0557
   76SLPC  H15X 6917   3.295   5.576   8.308 -0.5707  0.8755  3.5857
   76SLPC  H15Y 6918   3.186   5.437   8.270 -0.7983  0.5873 -0.6215
   76SLPC  C316 6919   3.134   5.544   8.441 -0.1479  0.5170 -0.1363
   76SLPC  H16X 6920   3.196   5.479   8.506  0.4355 -0.7423 -1.8771
   76SLPC  H16Y 6921   3.031   5.502   8.434  0.3506 -0.8869  0.5027
   76SLPC  C317 6922   3.130   5.678   8.509  0.5606 -0.2503  0.0551
   76SLPC  H17X 6923   3.046   5.731   8.459  0.0897 -1.1794 -0.1782
   76SLPC  H17Y 6924   3.223   5.737   8.498  0.7735 -0.8225 -1.5438
   76SLPC  C318 6925   3.107   5.656   8.658 -0.2767 -0.3695 -0.5461
   76SLPC  H18X 6926   3.091   5.756   8.704  0.9637 -1.1548  1.7147
   76SLPC  H18Y 6927   3.191   5.601   8.704 -0.7987 -1.4373 -0.8538
   76SLPC  H18Z 6928   3.020   5.592   8.683  0.4678 -0.4659  2.0893
   77SLPC     N 6929   1.793   5.560   6.437 -0.2722 -0.1110 -0.0690
   77SLPC   C13 6930   1.881   5.502   6.549 -0.1304  0.2433  0.7130
   77SLPC  H13A 6931   1.914   5.402   6.523  0.9372  0.6852  0.3256
   77SLPC  H13B 6932   1.960   5.570   6.578  0.6038  0.0310 -0.7252
   77SLPC  H13C 6933   1.819   5.482   6.636  0.0453  1.8460  1.2383
   77SLPC   C14 6934   1.675   5.470   6.424 -0.7157 -0.4707  0.0554
   77SLPC  H14A 6935   1.605   5.476   6.506 -1.2591 -0.8809 -0.3779
   77SLPC  H14B 6936   1.623   5.498   6.334 -0.1157  0.4446 -0.0173
   77SLPC  H14C 6937   1.716   5.371   6.412  3.1558  0.9333  0.0969
   77SLPC   C15 6938   1.863   5.552   6.302 -0.0794 -0.4282 -0.8945
   77SLPC  H15A 6939   1.945   5.621   6.311 -1.7669  1.4703  1.3579
   77SLPC  H15B 6940   1.905   5.457   6.271  0.7655 -0.2395 -0.3736
   77SLPC  H15C 6941   1.797   5.576   6.220 -3.8023 -0.9746  1.6609
   77SLPC   C12 6942   1.739   5.698   6.468  0.1139  0.3580 -0.7345
   77SLPC  H12A 6943   1.696   5.705   6.567  0.0946 -0.0950 -0.7121
   77SLPC  H12B 6944   1.662   5.721   6.396  0.8056 -0.1298 -1.6570
   77SLPC   C11 6945   1.842   5.813   6.462 -0.4573 -0.2005 -0.7589
   77SLPC  H11A 6946   1.925   5.789   6.531  0.2564  0.5260 -1.3461
   77SLPC  H11B 6947   1.795   5.904   6.505  1.2011  0.0958  0.5078
   77SLPC     P 6948   2.029   5.886   6.302  0.1634  0.7493  0.0537
   77SLPC   O13 6949   2.116   5.760   6.297  0.2751 -0.1801  0.5707
   77SLPC   O14 6950   2.030   5.975   6.181 -0.1513  0.6694  0.7882
   77SLPC   O12 6951   1.887   5.835   6.331  0.1280 -0.0916  0.8231
   77SLPC   O11 6952   2.068   5.960   6.435  0.0312 -0.6178  0.1354
   77SLPC    C1 6953   2.008   6.094   6.449 -0.1920 -1.0318 -0.2197
   77SLPC    HA 6954   2.063   6.163   6.382 -0.1613  1.7255  2.4530
   77SLPC    HB 6955   1.898   6.098   6.441 -0.3334  1.1641  1.8916
   77SLPC    C2 6956   2.028   6.142   6.594 -0.0148  0.4183 -0.0032
   77SLPC    HS 6957   2.137   6.152   6.612  0.1711 -0.3750 -0.6460
   77SLPC   O21 6958   1.971   6.042   6.679 -0.1591  0.0780  0.0627
   77SLPC   C21 6959   2.041   5.959   6.741  0.6166  0.3104  0.6105
   77SLPC   O22 6960   2.162   5.945   6.744  0.1519 -0.2644 -0.4443
   77SLPC   C22 6961   1.937   5.879   6.820 -0.2842 -0.1257  0.1735
   77SLPC   H2R 6962   1.864   5.938   6.879 -0.3987  2.8887 -2.7104
   77SLPC   H2S 6963   1.877   5.814   6.752 -2.5782  0.7004  1.3061
   77SLPC    C3 6964   1.957   6.287   6.606 -0.4239  0.3263  0.2226
   77SLPC    HX 6965   1.854   6.278   6.563  0.3278 -0.1643 -1.5660
   77SLPC    HY 6966   2.003   6.369   6.547 -1.9224  0.5076 -0.7754
   77SLPC   O31 6967   1.950   6.328   6.738  0.3265  0.3183 -0.3224
   77SLPC   C31 6968   1.846   6.306   6.815  0.5899 -0.5141  0.2801
   77SLPC   O32 6969   1.742   6.247   6.790 -0.0481  0.2765 -0.3123
   77SLPC   C32 6970   1.886   6.364   6.959  0.5356 -0.2514  0.0850
   77SLPC   H2X 6971   1.865   6.472   6.953  0.6734 -0.2577 -0.5877
   77SLPC   H2Y 6972   1.997   6.360   6.970  0.5757  1.5663  0.5464
   77SLPC   C23 6973   2.004   5.767   6.911 -0.4900 -0.2516  0.0160
   77SLPC   H3R 6974   2.054   5.811   6.999  1.7523 -1.8010 -0.4030
   77SLPC   H3S 6975   2.079   5.705   6.858 -1.6051 -2.1920  0.6109
   77SLPC   C24 6976   1.900   5.668   6.969  0.5528  0.5564  0.2155
   77SLPC   H4R 6977   1.874   5.610   6.878 -0.4672  1.1484  0.1174
   77SLPC   H4S 6978   1.817   5.725   7.014 -0.8813 -1.3148  0.0512
   77SLPC   C25 6979   1.942   5.586   7.084  0.0039  0.2304 -0.0975
   77SLPC   H5R 6980   2.051   5.563   7.075 -0.4530 -1.5086 -1.8736
   77SLPC   H5S 6981   1.903   5.483   7.071  1.9023 -0.5875  0.2477
   77SLPC   C26 6982   1.899   5.637   7.219 -0.0334  0.3311 -0.9657
   77SLPC   H6R 6983   1.790   5.632   7.237  0.2763  1.8695  1.9453
   77SLPC   H6S 6984   1.930   5.739   7.248  2.2013 -0.6448  0.3791
   77SLPC   C27 6985   1.956   5.562   7.339 -0.5207 -0.2315 -0.0633
   77SLPC   H7R 6986   2.066   5.577   7.344  0.1044 -2.6635 -3.5055
   77SLPC   H7S 6987   1.931   5.454   7.340  0.9196 -0.6273 -1.4959
   77SLPC   C28 6988   1.901   5.611   7.481  0.2439 -0.3188 -0.1405
   77SLPC   H8R 6989   1.935   5.542   7.562 -0.2460 -0.2670  0.1140
   77SLPC   H8S 6990   1.791   5.597   7.469  0.1993 -2.5464  2.0447
   77SLPC   C29 6991   1.932   5.757   7.510  0.2100  0.7148 -0.0093
   77SLPC   H9R 6992   1.985   5.816   7.435  1.1398 -0.1588 -0.0655
   77SLPC  C210 6993   1.916   5.814   7.622 -0.2312  0.2961 -1.1827
   77SLPC  H10R 6994   1.952   5.916   7.640 -0.8156  0.3657 -0.3635
   77SLPC  C211 6995   1.854   5.753   7.751  0.3748  0.0887  0.8228
   77SLPC  H11R 6996   1.775   5.679   7.728  0.8887  0.1437 -1.3412
   77SLPC  H11S 6997   1.808   5.831   7.815  1.3143  1.1190  0.2721
   77SLPC  C212 6998   1.951   5.671   7.825 -0.1471  0.4467 -0.7738
   77SLPC  H12R 6999   2.026   5.625   7.758 -0.1850  1.3850 -1.4943
   77SLPC  C213 7000   1.940   5.650   7.955 -0.2480 -0.1041 -0.4009
   77SLPC  H13R 7001   2.018   5.595   8.010  0.5231  1.2927 -0.0300
   77SLPC  C214 7002   1.830   5.716   8.040 -0.4659 -0.0168 -0.1131
   77SLPC  H14R 7003   1.729   5.689   8.001 -1.8605  0.8827  2.6389
   77SLPC  H14S 7004   1.848   5.826   8.034 -2.1256  0.2993  0.2045
   77SLPC  C215 7005   1.843   5.686   8.188  0.6655 -0.2025 -0.7664
   77SLPC  H15R 7006   1.831   5.575   8.197  0.4760 -0.0529  1.4973
   77SLPC  H15S 7007   1.756   5.737   8.234 -1.6907 -2.8628 -1.9504
   77SLPC  C216 7008   1.972   5.736   8.253 -0.2097 -0.7777 -0.2102
   77SLPC  H16R 7009   1.982   5.842   8.221 -1.2768 -0.6112 -0.0069
   77SLPC  H16S 7010   2.060   5.691   8.202  0.1960  1.1992 -1.3890
   77SLPC  C217 7011   1.974   5.726   8.400  1.1013  0.6428 -0.6457
   77SLPC  H17R 7012   1.975   5.619   8.429 -1.2102  1.2307  1.9268
   77SLPC  H17S 7013   1.883   5.765   8.449 -2.4911 -3.8346 -3.0302
   77SLPC  C218 7014   2.111   5.785   8.458 -0.2957  0.4058  0.7847
   77SLPC  H18R 7015   2.196   5.717   8.440 -1.7561 -0.8666 -1.8273
   77SLPC  H18S 7016   2.096   5.821   8.562 -0.2076  1.4469  0.4495
   77SLPC  H18T 7017   2.131   5.882   8.408  3.4605 -0.1882  0.8298
   77SLPC   C33 7018   1.810   6.291   7.076 -0.7235 -0.2562 -0.5385
   77SLPC   H3X 7019   1.793   6.184   7.052  0.4373 -0.3414 -1.0578
   77SLPC   H3Y 7020   1.710   6.339   7.085  0.9816  3.6611 -0.7684
   77SLPC   C34 7021   1.889   6.303   7.210 -0.2560 -0.3351  0.0053
   77SLPC   H4X 7022   1.917   6.407   7.240  1.6155 -1.1925  1.4023
   77SLPC   H4Y 7023   1.972   6.230   7.214  0.2821  0.1848 -1.2239
   77SLPC   C35 7024   1.788   6.276   7.325  0.3491  0.3147  0.2123
   77SLPC   H5X 7025   1.734   6.181   7.305 -2.6300  1.9214 -0.0352
   77SLPC   H5Y 7026   1.704   6.349   7.323 -2.9612 -3.1258 -2.8456
   77SLPC   C36 7027   1.863   6.255   7.456 -0.0475 -0.1011 -0.2544
   77SLPC   H6X 7028   1.947   6.328   7.460  0.7538 -1.0391  0.4792
   77SLPC   H6Y 7029   1.899   6.150   7.454 -3.6759 -1.4755  0.5625
   77SLPC   C37 7030   1.769   6.263   7.574  0.2048  1.2859 -0.4549
   77SLPC   H7X 7031   1.682   6.201   7.543  1.0927  0.3873 -1.2492
   77SLPC   H7Y 7032   1.741   6.369   7.593 -2.1651  0.6038  0.1848
   77SLPC   C38 7033   1.839   6.195   7.695  0.3750 -0.3718  0.2050
   77SLPC   H8X 7034   1.939   6.242   7.680 -0.5575  1.5920 -0.2672
   77SLPC   H8Y 7035   1.855   6.087   7.678 -0.7958 -0.6265  0.6384
   77SLPC   C39 7036   1.769   6.219   7.832  0.5669  0.1967  0.5664
   77SLPC   H9X 7037   1.701   6.132   7.844  0.4327  0.2303  0.0992
   77SLPC   H9Y 7038   1.716   6.316   7.824 -0.6517 -0.1994  3.0174
   77SLPC  C310 7039   1.874   6.220   7.944 -0.8387  0.4617 -0.1705
   77SLPC  H10X 7040   1.960   6.287   7.923 -0.4626 -0.7114 -2.6749
   77SLPC  H10Y 7041   1.930   6.124   7.943 -1.1882  0.2443 -2.4441
   77SLPC  C311 7042   1.810   6.237   8.088 -0.1844  0.1807 -0.2608
   77SLPC  H11X 7043   1.734   6.159   8.110  0.6883 -0.6956 -0.2922
   77SLPC  H11Y 7044   1.762   6.337   8.091 -1.3981 -0.3929  0.0608
   77SLPC  C312 7045   1.927   6.247   8.192 -0.3978 -0.5473  0.3878
   77SLPC  H12X 7046   2.012   6.307   8.154 -0.0317 -1.1271  0.2769
   77SLPC  H12Y 7047   1.972   6.151   8.227  1.6353 -0.1560 -0.9921
   77SLPC  C313 7048   1.878   6.314   8.321 -0.0098  0.0084 -0.0795
   77SLPC  H13X 7049   1.783   6.266   8.352 -1.1537  1.0490 -1.8075
   77SLPC  H13Y 7050   1.853   6.420   8.302 -0.4019 -0.0500  0.1027
   77SLPC  C314 7051   1.974   6.327   8.439 -0.1032 -0.2769 -0.5472
   77SLPC  H14X 7052   1.948   6.416   8.500 -1.4545 -1.6819  1.0632
   77SLPC  H14Y 7053   2.076   6.336   8.397  0.2825  1.2199  0.6280
   77SLPC  C315 7054   1.957   6.211   8.538  0.1269 -0.0170 -0.0511
   77SLPC  H15X 7055   1.944   6.113   8.487 -0.7845 -0.0974  0.3292
   77SLPC  H15Y 7056   1.863   6.228   8.594 -0.5660  0.5643 -1.3366
   77SLPC  C316 7057   2.078   6.201   8.624  0.1625  0.4670 -0.8404
   77SLPC  H16X 7058   2.095   6.295   8.681  0.0355  0.6131 -1.0430
   77SLPC  H16Y 7059   2.169   6.202   8.561  1.3177  0.9220  0.7816
   77SLPC  C317 7060   2.062   6.083   8.733 -0.0943 -0.0473  0.6168
   77SLPC  H17X 7061   2.041   5.991   8.674 -0.9894 -0.7354  1.9566
   77SLPC  H17Y 7062   1.977   6.110   8.798 -1.6479 -3.1381  0.0438
   77SLPC  C318 7063   2.183   6.069   8.825  0.3620 -0.5079 -0.2155
   77SLPC  H18X 7064   2.191   6.162   8.887  2.0208  0.0759 -1.2332
   77SLPC  H18Y 7065   2.277   6.072   8.766 -0.5837  1.9039 -1.7598
   77SLPC  H18Z 7066   2.182   5.978   8.888  2.3774  0.9438  2.1300
   78SLPC     N 7067   1.958   4.989   5.836  0.1619 -0.1634 -0.0201
   78SLPC   C13 7068   2.082   5.063   5.793 -0.1479 -0.6439 -0.5168
   78SLPC  H13A 7069   2.056   5.161   5.754 -0.4669 -0.9888 -1.1869
   78SLPC  H13B 7070   2.135   5.084   5.884 -2.5456 -0.3697  0.9109
   78SLPC  H13C 7071   2.129   4.996   5.723 -1.7282 -1.2996 -0.9938
   78SLPC   C14 7072   1.999   4.858   5.904 -0.0154 -0.1890  0.0101
   78SLPC  H14A 7073   2.070   4.878   5.983  0.3411 -0.9904 -0.0995
   78SLPC  H14B 7074   1.920   4.796   5.945  1.0007 -1.1320  0.5938
   78SLPC  H14C 7075   2.057   4.793   5.842  2.9449 -0.0041  2.3582
   78SLPC   C15 7076   1.879   4.961   5.716 -0.5308  0.1122  0.1557
   78SLPC  H15A 7077   1.837   5.048   5.668 -1.7293  0.2893  1.4392
   78SLPC  H15B 7078   1.939   4.925   5.634  0.8471  1.3845  0.5431
   78SLPC  H15C 7079   1.793   4.897   5.731  0.0706 -1.1944 -1.6582
   78SLPC   C12 7080   1.883   5.068   5.934  0.3863 -0.2484  0.3217
   78SLPC  H12A 7081   1.782   5.034   5.949  0.1956  0.2776  0.2218
   78SLPC  H12B 7082   1.870   5.165   5.888  1.0502 -0.2973  0.0157
   78SLPC   C11 7083   1.951   5.080   6.075 -0.9244  0.2136  0.3001
   78SLPC  H11A 7084   1.972   4.981   6.121  1.6710  1.1528  1.3537
   78SLPC  H11B 7085   1.870   5.121   6.140 -1.1886  1.1388 -0.5912
   78SLPC     P 7086   2.138   5.212   6.193 -0.1368  0.0052  0.1038
   78SLPC   O13 7087   2.281   5.176   6.186 -0.6016 -0.0147 -0.1321
   78SLPC   O14 7088   2.109   5.356   6.212 -0.4486 -0.5328  0.0038
   78SLPC   O12 7089   2.066   5.166   6.069 -0.3321  0.0410  0.4715
   78SLPC   O11 7090   2.073   5.122   6.309 -0.0560 -0.5582  0.2357
   78SLPC    C1 7091   2.143   5.061   6.415  0.0725 -0.2362  0.1842
   78SLPC    HA 7092   2.254   5.067   6.406 -0.0197  0.1524 -0.8336
   78SLPC    HB 7093   2.106   5.106   6.509 -3.0707 -0.2109 -0.9648
   78SLPC    C2 7094   2.102   4.915   6.426  0.3880  0.2963  0.6273
   78SLPC    HS 7095   2.132   4.870   6.329 -3.9467  0.2721 -0.9023
   78SLPC   O21 7096   1.961   4.911   6.433  0.7384  0.0224 -0.3152
   78SLPC   C21 7097   1.910   4.801   6.388  0.3572 -0.1287  0.0806
   78SLPC   O22 7098   1.967   4.703   6.350  0.1230  0.0428  0.2716
   78SLPC   C22 7099   1.766   4.808   6.403  0.2972 -1.8406  1.2538
   78SLPC   H2R 7100   1.731   4.913   6.410  2.0285 -0.6921 -3.6271
   78SLPC   H2S 7101   1.718   4.760   6.315  1.9072 -1.5234  0.1765
   78SLPC    C3 7102   2.157   4.841   6.549 -0.2193 -0.6810 -1.2979
   78SLPC    HX 7103   2.267   4.853   6.539 -0.2089 -0.7293 -1.2455
   78SLPC    HY 7104   2.132   4.733   6.542 -0.0842 -0.7427 -0.8660
   78SLPC   O31 7105   2.103   4.900   6.674  0.0194  0.3405 -0.0754
   78SLPC   C31 7106   2.156   4.842   6.782  0.1432 -1.3646 -0.2216
   78SLPC   O32 7107   2.253   4.774   6.783 -0.2635  0.3164 -0.5700
   78SLPC   C32 7108   2.094   4.893   6.912  0.2510 -0.3266  0.6642
   78SLPC   H2X 7109   1.996   4.941   6.891  0.3970  0.4104  1.6075
   78SLPC   H2Y 7110   2.158   4.964   6.968 -0.7548 -1.0541  2.8237
   78SLPC   C23 7111   1.708   4.743   6.530  0.3212 -0.3328 -0.8928
   78SLPC   H3R 7112   1.754   4.643   6.548  1.0186 -0.1115 -1.3975
   78SLPC   H3S 7113   1.599   4.727   6.514  0.4130  0.8615 -3.0416
   78SLPC   C24 7114   1.720   4.830   6.656  0.1111  0.0253 -0.1817
   78SLPC   H4R 7115   1.653   4.917   6.640  1.0293  0.7201 -0.3111
   78SLPC   H4S 7116   1.824   4.867   6.663 -0.3957  1.5926 -0.6056
   78SLPC   C25 7117   1.671   4.759   6.784 -0.1912  0.1294  0.1350
   78SLPC   H5R 7118   1.736   4.670   6.798  2.0063  1.8348  1.4657
   78SLPC   H5S 7119   1.567   4.726   6.759 -0.2555  1.2840 -1.2517
   78SLPC   C26 7120   1.677   4.848   6.910  0.4007  0.0555 -0.3144
   78SLPC   H6R 7121   1.601   4.926   6.887 -1.5807 -1.2308  1.4713
   78SLPC   H6S 7122   1.774   4.898   6.928  0.1477  0.2739  0.4792
   78SLPC   C27 7123   1.642   4.770   7.042 -0.4534  0.4376 -0.0014
   78SLPC   H7R 7124   1.631   4.845   7.123 -1.2272  2.7378 -2.1348
   78SLPC   H7S 7125   1.742   4.723   7.055  0.1323  1.5896 -0.2583
   78SLPC   C28 7126   1.545   4.657   7.042  0.3792 -0.1319 -0.1529
   78SLPC   H8R 7127   1.574   4.599   7.132 -1.2503  1.0272  1.2066
   78SLPC   H8S 7128   1.552   4.601   6.947  0.8644 -1.8989  0.8809
   78SLPC   C29 7129   1.402   4.704   7.051  0.1961  0.1901  0.1490
   78SLPC   H9R 7130   1.362   4.740   6.955  1.5007  0.6574 -0.2385
   78SLPC  C210 7131   1.333   4.731   7.164 -0.6743  0.2614 -0.5048
   78SLPC  H10R 7132   1.246   4.797   7.153  1.1147  2.6047 -1.5071
   78SLPC  C211 7133   1.382   4.710   7.306 -0.9715 -0.0424 -0.4452
   78SLPC  H11R 7134   1.402   4.601   7.312 -0.8918 -0.0378 -0.6150
   78SLPC  H11S 7135   1.293   4.711   7.372 -0.5449 -0.0607  0.1361
   78SLPC  C212 7136   1.493   4.795   7.365 -0.4090 -0.6255  0.1864
   78SLPC  H12R 7137   1.594   4.768   7.331 -0.3439 -0.2939  0.1161
   78SLPC  C213 7138   1.469   4.906   7.439  0.0424  0.5425 -0.0816
   78SLPC  H13R 7139   1.557   4.956   7.482  1.1694 -0.9818 -0.5157
   78SLPC  C214 7140   1.333   4.948   7.484  0.5235 -0.1148  0.4947
   78SLPC  H14R 7141   1.263   4.941   7.398  1.6892  0.8602 -0.5798
   78SLPC  H14S 7142   1.329   5.057   7.506  0.6840 -0.4373  2.2581
   78SLPC  C215 7143   1.284   4.879   7.616 -0.6145  0.0862 -0.2642
   78SLPC  H15R 7144   1.257   4.777   7.582  0.7898  0.1570 -1.7290
   78SLPC  H15S 7145   1.194   4.938   7.643 -0.4899  0.0652  0.2012
   78SLPC  C216 7146   1.387   4.881   7.731  0.1394  0.2988 -0.7122
   78SLPC  H16R 7147   1.424   4.986   7.736  1.0147  0.0069 -1.0655
   78SLPC  H16S 7148   1.469   4.812   7.701 -1.3826 -0.9650 -2.1669
   78SLPC  C217 7149   1.332   4.828   7.869  0.7272  0.2056  0.4656
   78SLPC  H17R 7150   1.236   4.875   7.901  0.1707 -0.8399  0.3688
   78SLPC  H17S 7151   1.404   4.857   7.949  0.2942  0.3903  0.7926
   78SLPC  C218 7152   1.328   4.676   7.860 -0.3977 -0.2338 -0.0092
   78SLPC  H18R 7153   1.289   4.643   7.761 -1.8436  1.1836  0.0451
   78SLPC  H18S 7154   1.258   4.637   7.936  0.0186  0.1712  0.5885
   78SLPC  H18T 7155   1.429   4.637   7.883 -1.2217 -1.9123  1.0141
   78SLPC   C33 7156   2.063   4.775   7.001  0.5398  0.7222 -0.0685
   78SLPC   H3X 7157   2.159   4.723   7.020 -0.2265  0.0241  2.2457
   78SLPC   H3Y 7158   1.995   4.703   6.952  2.7998 -0.4533 -1.6281
   78SLPC   C34 7159   2.021   4.826   7.135 -0.0775 -0.2849  0.0951
   78SLPC   H4X 7160   1.943   4.904   7.122  1.1935  0.9866 -0.1149
   78SLPC   H4Y 7161   2.107   4.886   7.171  0.3653 -0.4944 -0.5796
   78SLPC   C35 7162   1.978   4.719   7.236  0.4736 -0.1851 -0.0335
   78SLPC   H5X 7163   2.074   4.668   7.257  0.6423  0.6341  1.3669
   78SLPC   H5Y 7164   1.916   4.649   7.176 -0.1806 -0.5974  1.0882
   78SLPC   C36 7165   1.895   4.771   7.350  0.0506  0.0521 -0.0673
   78SLPC   H6X 7166   1.857   4.695   7.421  0.0684  0.2697  0.1747
   78SLPC   H6Y 7167   1.804   4.831   7.327 -0.9673 -1.0004  1.0657
   78SLPC   C37 7168   1.987   4.849   7.444  0.5048  0.0350  0.1020
   78SLPC   H7X 7169   2.067   4.911   7.397 -0.6420  0.5845 -1.1828
   78SLPC   H7Y 7170   2.049   4.783   7.508 -1.3789 -1.3964  0.4956
   78SLPC   C38 7171   1.919   4.957   7.534 -0.6507  0.2075  0.6975
   78SLPC   H8X 7172   1.879   5.037   7.467  1.5491 -0.1493 -1.1987
   78SLPC   H8Y 7173   1.997   5.011   7.591  0.1402  0.7845 -0.8702
   78SLPC   C39 7174   1.820   4.909   7.639  0.8656 -0.5182  0.0796
   78SLPC   H9X 7175   1.752   4.835   7.593  1.0798  0.4699 -1.9376
   78SLPC   H9Y 7176   1.760   4.994   7.679  0.0084 -0.8271 -0.5289
   78SLPC  C310 7177   1.883   4.822   7.755  0.0352 -0.2665  0.2784
   78SLPC  H10X 7178   1.920   4.728   7.708 -0.4655 -0.5313  0.4130
   78SLPC  H10Y 7179   1.795   4.798   7.818 -0.7002 -0.6479 -0.8790
   78SLPC  C311 7180   1.997   4.876   7.831 -0.0571 -0.0283 -0.6036
   78SLPC  H11X 7181   1.961   4.969   7.881  1.9060  1.6510 -2.1006
   78SLPC  H11Y 7182   2.083   4.895   7.763  2.4369 -0.8337  2.1621
   78SLPC  C312 7183   2.054   4.794   7.949 -0.2512  0.8378  0.2826
   78SLPC  H12X 7184   2.134   4.852   7.999  1.2589  0.0135 -1.1169
   78SLPC  H12Y 7185   2.098   4.703   7.904  0.3154  1.3254 -0.1641
   78SLPC  C313 7186   1.946   4.750   8.057  0.1286  0.4623 -0.2076
   78SLPC  H13X 7187   1.878   4.689   7.994  1.1289 -3.3054  2.0174
   78SLPC  H13Y 7188   1.892   4.836   8.100 -0.7016 -0.8836  1.5609
   78SLPC  C314 7189   1.994   4.675   8.176 -0.2942  0.0428 -0.0644
   78SLPC  H14X 7190   2.078   4.730   8.224  0.8290 -0.5547 -1.2707
   78SLPC  H14Y 7191   2.036   4.576   8.145 -0.8949  0.5381 -2.7060
   78SLPC  C315 7192   1.889   4.634   8.278 -0.1787  0.3449  0.0043
   78SLPC  H15X 7193   1.837   4.540   8.246  0.4907 -0.2611  0.6592
   78SLPC  H15Y 7194   1.809   4.711   8.279  1.0039  1.6302  1.8319
   78SLPC  C316 7195   1.938   4.627   8.422 -0.0315 -0.1456 -0.2008
   78SLPC  H16X 7196   1.845   4.636   8.483 -1.1321 -0.1588 -1.8223
   78SLPC  H16Y 7197   2.008   4.710   8.447  0.7236 -0.7812 -0.1688
   78SLPC  C317 7198   2.010   4.499   8.456  0.3319  0.3370  0.3715
   78SLPC  H17X 7199   2.082   4.468   8.377 -0.5646 -0.3136 -0.2201
   78SLPC  H17Y 7200   1.939   4.413   8.465  1.5586 -0.7950 -0.3526
   78SLPC  C318 7201   2.080   4.506   8.580  0.1317  0.5107  0.4376
   78SLPC  H18X 7202   2.018   4.557   8.657 -1.1744  1.3266 -1.0949
   78SLPC  H18Y 7203   2.169   4.571   8.569  0.4474 -0.0784 -0.5454
   78SLPC  H18Z 7204   2.104   4.402   8.609 -1.7817  0.3357  1.5707
   79SLPC     N 7205   0.844   0.905   6.311 -0.0307  0.8323  0.0371
   79SLPC   C13 7206   0.964   0.946   6.383 -0.8377 -0.3881 -0.4610
   79SLPC  H13A 7207   1.052   0.927   6.322 -0.5834 -1.7342  0.2812
   79SLPC  H13B 7208   0.972   1.051   6.407 -0.1575 -0.1898 -1.4848
   79SLPC  H13C 7209   0.984   0.886   6.471  0.4930  2.5971  1.4012
   79SLPC   C14 7210   0.839   0.753   6.298  0.4616  0.0278  0.0952
   79SLPC  H14A 7211   0.816   0.718   6.398  2.2074 -2.1837 -0.1991
   79SLPC  H14B 7212   0.768   0.719   6.225  0.5055 -0.1359  0.1283
   79SLPC  H14C 7213   0.940   0.716   6.285  0.5798  1.1168 -2.7892
   79SLPC   C15 7214   0.858   0.965   6.174  0.2111 -0.4662 -0.2699
   79SLPC  H15A 7215   0.960   0.953   6.139  1.0565 -1.1692  2.2424
   79SLPC  H15B 7216   0.801   0.909   6.103  1.0605 -2.2936  0.4382
   79SLPC  H15C 7217   0.821   1.066   6.166  2.3027  0.2201 -3.1665
   79SLPC   C12 7218   0.714   0.943   6.385 -0.3378 -0.3237  1.1842
   79SLPC  H12A 7219   0.628   0.915   6.326 -0.0570  0.0846  0.5676
   79SLPC  H12B 7220   0.713   1.051   6.384 -0.0069 -0.1592 -3.2769
   79SLPC   C11 7221   0.701   0.892   6.529  0.5113  0.3219 -0.2169
   79SLPC  H11A 7222   0.632   0.961   6.582 -0.9462 -1.1181 -0.1852
   79SLPC  H11B 7223   0.798   0.904   6.582  0.6683 -0.5821 -0.2981
   79SLPC     P 7224   0.525   0.693   6.511  0.3258  0.0935  0.2896
   79SLPC   O13 7225   0.484   0.753   6.384  0.4327 -0.4661  0.3256
   79SLPC   O14 7226   0.531   0.545   6.516  0.2352  0.1512  0.0971
   79SLPC   O12 7227   0.673   0.749   6.541  0.5662 -0.6936 -0.0843
   79SLPC   O11 7228   0.441   0.761   6.626 -0.2731 -0.2294 -0.0527
   79SLPC    C1 7229   0.479   0.783   6.756 -0.0061  0.1933  0.1631
   79SLPC    HA 7230   0.581   0.826   6.766  0.1211 -0.2389  0.7403
   79SLPC    HB 7231   0.401   0.849   6.799  0.5333  0.5112  0.6671
   79SLPC    C2 7232   0.489   0.658   6.838  0.2378 -0.0311 -0.3137
   79SLPC    HS 7233   0.564   0.594   6.788 -1.9231 -1.9011 -1.3493
   79SLPC   O21 7234   0.359   0.591   6.830  0.2762  0.4481  0.9254
   79SLPC   C21 7235   0.359   0.456   6.844 -0.1298  0.3064  0.1325
   79SLPC   O22 7236   0.457   0.382   6.846  0.0563  0.1455  0.0635
   79SLPC   C22 7237   0.216   0.412   6.891 -0.1685  0.1761  0.5967
   79SLPC   H2R 7238   0.161   0.507   6.907  1.3695  1.3753 -0.8250
   79SLPC   H2S 7239   0.166   0.359   6.807  1.0960  1.4674 -1.0514
   79SLPC    C3 7240   0.529   0.691   6.983  0.1574  0.6090  0.1421
   79SLPC    HX 7241   0.439   0.742   7.024 -0.2926 -0.5170  0.5752
   79SLPC    HY 7242   0.613   0.763   6.979 -0.4785  1.3360 -1.6265
   79SLPC   O31 7243   0.555   0.576   7.060  0.0237 -0.0138 -0.0704
   79SLPC   C31 7244   0.652   0.583   7.147 -0.3843  0.5800  0.3139
   79SLPC   O32 7245   0.733   0.671   7.161 -0.5147 -0.0222  0.7305
   79SLPC   C32 7246   0.652   0.451   7.223  0.2605 -0.2175 -0.1353
   79SLPC   H2X 7247   0.666   0.367   7.152 -0.7666 -2.0560  1.7381
   79SLPC   H2Y 7248   0.554   0.441   7.273  0.9911  1.0188  1.6497
   79SLPC   C23 7249   0.210   0.325   7.016 -0.0358  0.5939 -0.7882
   79SLPC   H3R 7250   0.274   0.234   7.010 -0.2056  0.4197 -0.0643
   79SLPC   H3S 7251   0.106   0.290   7.034  0.1754 -1.2065 -2.7041
   79SLPC   C24 7252   0.266   0.394   7.140  0.1912  0.6541  0.2565
   79SLPC   H4R 7253   0.215   0.493   7.140 -2.5428 -0.6402  1.7080
   79SLPC   H4S 7254   0.377   0.391   7.137  0.1676 -1.5432 -0.5450
   79SLPC   C25 7255   0.228   0.323   7.276 -0.7534  0.4004  0.3962
   79SLPC   H5R 7256   0.270   0.221   7.263 -1.5137 -0.1461  2.0619
   79SLPC   H5S 7257   0.117   0.313   7.282 -0.7532  0.3259  0.2867
   79SLPC   C26 7258   0.281   0.396   7.399 -0.3994  0.1949 -0.1481
   79SLPC   H6R 7259   0.248   0.501   7.410 -2.9467 -0.3120 -1.9578
   79SLPC   H6S 7260   0.391   0.392   7.408 -0.2181  0.4451 -1.8682
   79SLPC   C27 7261   0.225   0.332   7.534  0.0726  0.3285  0.0996
   79SLPC   H7R 7262   0.271   0.235   7.559 -0.2979  0.0112 -0.4389
   79SLPC   H7S 7263   0.115   0.321   7.527  0.1135 -0.0979  0.1304
   79SLPC   C28 7264   0.268   0.411   7.666 -0.7871 -0.1235 -0.0654
   79SLPC   H8R 7265   0.378   0.430   7.671 -0.9091  1.2537 -1.5848
   79SLPC   H8S 7266   0.262   0.341   7.751  0.1813  0.3212  0.3898
   79SLPC   C29 7267   0.188   0.536   7.686  0.4279 -0.7124 -0.2144
   79SLPC   H9R 7268   0.199   0.614   7.608  1.5591 -1.6302 -1.0094
   79SLPC  C210 7269   0.107   0.563   7.793 -0.2516 -1.0574 -0.0212
   79SLPC  H10R 7270   0.050   0.657   7.795 -1.2192 -1.6418  0.4121
   79SLPC  C211 7271   0.088   0.482   7.908  0.0960  0.1575  0.0686
   79SLPC  H11R 7272   0.180   0.475   7.971  0.4991 -0.1984 -0.5549
   79SLPC  H11S 7273   0.061   0.380   7.873 -3.4775  0.3316  1.8167
   79SLPC  C212 7274  -0.019   0.535   7.999  0.6395 -0.8198 -0.4753
   79SLPC  H12R 7275  -0.115   0.565   7.955  0.8565  0.7021  0.0282
   79SLPC  C213 7276   0.001   0.567   8.132  0.0682 -0.2846 -0.0836
   79SLPC  H13R 7277  -0.083   0.606   8.190  0.5582  0.8563 -0.1169
   79SLPC  C214 7278   0.130   0.554   8.211 -0.9104 -0.0080 -0.1125
   79SLPC  H14R 7279   0.183   0.650   8.198 -1.7963  0.8297  2.0434
   79SLPC  H14S 7280   0.201   0.476   8.175 -0.7425  1.3108 -2.8754
   79SLPC  C215 7281   0.105   0.552   8.361  0.4159 -0.1880  0.4923
   79SLPC  H15R 7282   0.040   0.637   8.390 -0.9732 -1.1248  0.2316
   79SLPC  H15S 7283   0.209   0.566   8.399  1.1541  0.4280 -1.6611
   79SLPC  C216 7284   0.047   0.423   8.415  0.0681  0.0319  0.6625
   79SLPC  H16R 7285   0.119   0.343   8.388  1.1989  0.9299  0.8816
   79SLPC  H16S 7286  -0.047   0.398   8.363  1.1637 -0.1726 -1.3166
   79SLPC  C217 7287   0.021   0.422   8.563 -0.4861  0.8958  0.3773
   79SLPC  H17R 7288   0.117   0.454   8.609  0.6837  0.0776 -1.4090
   79SLPC  H17S 7289  -0.001   0.318   8.595 -0.7032  1.3154  1.6981
   79SLPC  C218 7290  -0.095   0.512   8.610 -0.8553 -0.8832  0.1193
   79SLPC  H18R 7291  -0.094   0.614   8.566  0.3464 -0.6660  0.6110
   79SLPC  H18S 7292  -0.090   0.517   8.721 -1.6791 -0.1252  0.1275
   79SLPC  H18T 7293  -0.195   0.473   8.581 -1.2873 -0.4552  0.9829
   79SLPC   C33 7294   0.768   0.427   7.321  0.1026 -0.4860 -0.0809
   79SLPC   H3X 7295   0.867   0.456   7.281  0.0646 -1.5512 -0.9700
   79SLPC   H3Y 7296   0.779   0.320   7.346  3.4161  0.1190  1.6063
   79SLPC   C34 7297   0.739   0.493   7.459 -0.2686  0.7677 -0.3409
   79SLPC   H4X 7298   0.643   0.453   7.497 -0.0170 -0.1159 -0.6171
   79SLPC   H4Y 7299   0.720   0.602   7.448 -1.9337  0.5683  0.3221
   79SLPC   C35 7300   0.844   0.458   7.571 -0.1926  0.3874  0.8411
   79SLPC   H5X 7301   0.928   0.526   7.545 -0.5237  0.7428  0.6870
   79SLPC   H5Y 7302   0.879   0.352   7.571 -1.3318 -0.0125  1.5873
   79SLPC   C36 7303   0.788   0.484   7.704 -0.3558 -0.3820 -0.0988
   79SLPC   H6X 7304   0.736   0.579   7.727 -1.0557 -0.8188  0.1209
   79SLPC   H6Y 7305   0.872   0.474   7.776 -0.4056 -0.6209 -0.0708
   79SLPC   C37 7306   0.693   0.377   7.771 -0.4460 -0.0758  0.9779
   79SLPC   H7X 7307   0.714   0.268   7.760 -1.5898 -0.2213  0.1078
   79SLPC   H7Y 7308   0.594   0.395   7.723  1.1461  2.3738 -1.6962
   79SLPC   C38 7309   0.671   0.419   7.913  0.6040 -0.2038 -0.4570
   79SLPC   H8X 7310   0.654   0.529   7.913 -1.1027 -0.4404  0.3507
   79SLPC   H8Y 7311   0.761   0.417   7.979  0.1945  0.4228  0.1339
   79SLPC   C39 7312   0.556   0.350   7.980 -0.1854  0.2250  0.0367
   79SLPC   H9X 7313   0.559   0.240   7.959 -1.1543  0.6969 -3.0482
   79SLPC   H9Y 7314   0.457   0.377   7.940 -1.0537 -2.7904 -0.1448
   79SLPC  C310 7315   0.569   0.375   8.129  0.4802  0.1825 -0.1785
   79SLPC  H10X 7316   0.582   0.484   8.141  0.2452  0.0271  1.6701
   79SLPC  H10Y 7317   0.668   0.328   8.151  1.0512  0.3097 -2.1788
   79SLPC  C311 7318   0.458   0.324   8.224  0.2887  0.0321 -0.2533
   79SLPC  H11X 7319   0.360   0.349   8.178  1.2245  1.0261 -1.8097
   79SLPC  H11Y 7320   0.477   0.363   8.326  0.6268  0.9190 -0.6433
   79SLPC  C312 7321   0.452   0.167   8.233 -0.2829  0.2338 -0.6405
   79SLPC  H12X 7322   0.557   0.134   8.215  0.4044  1.9529 -0.0540
   79SLPC  H12Y 7323   0.387   0.132   8.150 -0.6892 -1.3628  0.3046
   79SLPC  C313 7324   0.405   0.100   8.364 -0.6842 -0.4787  0.0833
   79SLPC  H13X 7325   0.297   0.117   8.380 -0.6351 -0.2224  0.1474
   79SLPC  H13Y 7326   0.464   0.147   8.445 -2.7982  0.2889  1.2441
   79SLPC  C314 7327   0.445  -0.051   8.363 -0.0568  0.0507  0.0614
   79SLPC  H14X 7328   0.555  -0.067   8.372 -0.1601  0.0412  1.5530
   79SLPC  H14Y 7329   0.402  -0.085   8.267 -2.4776 -1.0441  1.4511
   79SLPC  C315 7330   0.387  -0.137   8.479  0.1666  0.0533 -0.4789
   79SLPC  H15X 7331   0.285  -0.100   8.501  0.1085 -0.5684  0.3860
   79SLPC  H15Y 7332   0.452  -0.124   8.569 -1.0243 -1.3956  0.6316
   79SLPC  C316 7333   0.386  -0.289   8.444 -0.9860  0.0522  0.1778
   79SLPC  H16X 7334   0.479  -0.304   8.386 -0.8542 -3.2351  1.0372
   79SLPC  H16Y 7335   0.314  -0.308   8.361  0.2897  0.4933 -1.0645
   79SLPC  C317 7336   0.369  -0.377   8.567 -0.0281  0.0041  0.4510
   79SLPC  H17X 7337   0.300  -0.462   8.545  0.7063 -0.1193 -1.6145
   79SLPC  H17Y 7338   0.314  -0.318   8.643  0.6520  2.1192 -0.6190
   79SLPC  C318 7339   0.506  -0.420   8.637  0.2243 -0.3196 -0.1850
   79SLPC  H18X 7340   0.489  -0.487   8.724  2.0899 -1.0557 -0.3302
   79SLPC  H18Y 7341   0.554  -0.324   8.667 -2.3448  1.5042 -1.5699
   79SLPC  H18Z 7342   0.566  -0.477   8.563  1.1397  1.3824 -0.8019
   80SLPC     N 7343   2.938   6.591   6.301  0.9661 -0.2129  0.2991
   80SLPC   C13 7344   2.861   6.548   6.182  0.2306 -0.2988 -0.3564
   80SLPC  H13A 7345   2.844   6.441   6.186  0.0038 -0.2830 -0.7412
   80SLPC  H13B 7346   2.761   6.588   6.194 -0.6459 -2.4217 -0.0543
   80SLPC  H13C 7347   2.912   6.572   6.090 -1.1727  2.7460 -0.4514
   80SLPC   C14 7348   3.079   6.538   6.286 -0.0241 -0.2009  0.3593
   80SLPC  H14A 7349   3.124   6.567   6.192  3.0361 -0.4143  1.6620
   80SLPC  H14B 7350   3.147   6.579   6.358  0.3653 -0.3036  0.0530
   80SLPC  H14C 7351   3.080   6.430   6.286  0.5795 -0.1963  1.0708
   80SLPC   C15 7352   2.874   6.537   6.425 -0.8247 -0.4367  0.2287
   80SLPC  H15A 7353   2.821   6.444   6.407 -0.9887 -0.4027  0.5353
   80SLPC  H15B 7354   2.947   6.524   6.503  1.2211  1.4982 -1.2121
   80SLPC  H15C 7355   2.794   6.600   6.461  0.6938  0.0108  3.0826
   80SLPC   C12 7356   2.948   6.746   6.316  0.5070 -0.3206  0.5151
   80SLPC  H12A 7357   3.041   6.776   6.271  0.5170  1.2144  1.5180
   80SLPC  H12B 7358   2.955   6.768   6.421  1.2119 -2.0076  0.8526
   80SLPC   C11 7359   2.832   6.830   6.250 -0.0771  0.1502 -0.8989
   80SLPC  H11A 7360   2.850   6.836   6.141 -3.1221 -0.2282 -1.4985
   80SLPC  H11B 7361   2.846   6.933   6.289  0.9990 -0.2550 -0.1485
   80SLPC     P 7362   2.614   6.809   6.384  0.1784 -0.1757  0.2576
   80SLPC   O13 7363   2.594   6.957   6.383  0.3468 -0.2616  0.0861
   80SLPC   O14 7364   2.486   6.741   6.372  0.2300 -0.0756  0.0495
   80SLPC   O12 7365   2.703   6.772   6.263 -1.1640 -0.2132  0.2922
   80SLPC   O11 7366   2.683   6.772   6.515 -0.6405 -0.1900  0.0811
   80SLPC    C1 7367   2.635   6.838   6.631  0.7543 -0.2388  0.8756
   80SLPC    HA 7368   2.617   6.947   6.613 -3.3091 -0.7689  0.7559
   80SLPC    HB 7369   2.541   6.790   6.665 -0.2374  1.6130  0.8705
   80SLPC    C2 7370   2.742   6.814   6.734 -0.2347 -0.0826 -0.2376
   80SLPC    HS 7371   2.768   6.706   6.733  1.1691  0.2273 -0.8912
   80SLPC   O21 7372   2.710   6.880   6.856  0.0837  0.0381  0.1388
   80SLPC   C21 7373   2.646   6.803   6.938  0.3907 -0.5938 -0.1085
   80SLPC   O22 7374   2.617   6.687   6.920  0.1443  0.6631  0.5118
   80SLPC   C22 7375   2.628   6.874   7.065  0.3514 -0.3086  0.7419
   80SLPC   H2R 7376   2.662   6.979   7.054 -0.8348  0.1664  1.4049
   80SLPC   H2S 7377   2.517   6.874   7.076  0.4068 -0.4066  1.3339
   80SLPC    C3 7378   2.880   6.870   6.681  0.0934  0.0023  0.2279
   80SLPC    HX 7379   2.867   6.979   6.665 -1.3893 -0.4133 -1.5900
   80SLPC    HY 7380   2.917   6.833   6.583 -1.1562 -2.9897  0.7929
   80SLPC   O31 7381   2.988   6.838   6.770 -0.0717  0.5682 -0.5652
   80SLPC   C31 7382   3.071   6.939   6.794  0.5639  0.3334 -0.5820
   80SLPC   O32 7383   3.078   7.045   6.730  0.5111 -0.0837  0.0084
   80SLPC   C32 7384   3.159   6.907   6.916 -0.2862 -0.3608 -0.3280
   80SLPC   H2X 7385   3.228   6.993   6.929  0.4816 -1.0807  0.4107
   80SLPC   H2Y 7386   3.218   6.818   6.886  1.7560  1.1795 -1.1145
   80SLPC   C23 7387   2.683   6.794   7.176  0.3070 -0.5600 -0.2779
   80SLPC   H3R 7388   2.792   6.769   7.173  0.5692  0.0650  2.0136
   80SLPC   H3S 7389   2.633   6.695   7.181 -0.1448 -0.2769  3.0556
   80SLPC   C24 7390   2.646   6.856   7.311 -0.8219  0.9663 -0.2447
   80SLPC   H4R 7391   2.535   6.857   7.318 -0.7422 -0.3362  2.6125
   80SLPC   H4S 7392   2.689   6.956   7.333 -2.4099  1.4123  1.0588
   80SLPC   C25 7393   2.699   6.768   7.424  0.1854 -0.7447 -0.4308
   80SLPC   H5R 7394   2.807   6.742   7.417  0.6766  0.9711  0.3371
   80SLPC   H5S 7395   2.627   6.683   7.420 -3.1783  1.8365  0.6550
   80SLPC   C26 7396   2.679   6.834   7.566  0.2972  0.0867 -0.0110
   80SLPC   H6R 7397   2.574   6.871   7.572  0.7348  2.6979 -4.1750
   80SLPC   H6S 7398   2.736   6.929   7.563  2.0991 -0.9763 -1.5514
   80SLPC   C27 7399   2.709   6.734   7.684  0.3296 -0.1211  0.5650
   80SLPC   H7R 7400   2.809   6.685   7.675 -0.4668 -1.9712  1.1588
   80SLPC   H7S 7401   2.635   6.654   7.662 -0.7691  0.9864  0.1381
   80SLPC   C28 7402   2.686   6.779   7.821 -0.4340 -0.5747 -0.2805
   80SLPC   H8R 7403   2.596   6.844   7.825 -2.4917 -2.4843 -5.8839
   80SLPC   H8S 7404   2.767   6.846   7.857 -2.5319  0.7728  2.2594
   80SLPC   C29 7405   2.672   6.662   7.921 -0.6151 -0.4322  1.1085
   80SLPC   H9R 7406   2.572   6.617   7.931 -0.4028 -0.9423  0.9666
   80SLPC  C210 7407   2.782   6.606   7.985 -0.1442  0.6062  0.1351
   80SLPC  H10R 7408   2.758   6.516   8.042 -1.1783  0.2021 -0.8910
   80SLPC  C211 7409   2.928   6.644   7.964  0.2670  0.1161 -0.0260
   80SLPC  H11R 7410   2.929   6.749   8.003  0.4793 -0.0482  0.4167
   80SLPC  H11S 7411   2.947   6.637   7.855 -0.8703  1.7712 -0.3802
   80SLPC  C212 7412   3.017   6.557   8.040 -0.4583  0.0017 -0.2492
   80SLPC  H12R 7413   2.968   6.500   8.121 -2.2653  1.9365  0.0851
   80SLPC  C213 7414   3.145   6.532   8.003 -0.2358  0.7650  0.6145
   80SLPC  H13R 7415   3.201   6.460   8.064  0.3702 -0.4641 -1.2936
   80SLPC  C214 7416   3.212   6.589   7.887 -0.3881  0.0613  0.1012
   80SLPC  H14R 7417   3.159   6.669   7.831  0.4878 -0.2212 -1.1966
   80SLPC  H14S 7418   3.238   6.516   7.807  2.2987  1.9765 -0.9253
   80SLPC  C215 7419   3.356   6.637   7.929  0.0678 -0.2367 -0.6258
   80SLPC  H15R 7420   3.350   6.714   8.009  1.2850  0.0996 -0.8436
   80SLPC  H15S 7421   3.379   6.704   7.843 -0.8979 -0.8787 -1.4158
   80SLPC  C216 7422   3.468   6.527   7.954 -0.4268 -0.1822 -0.3552
   80SLPC  H16R 7423   3.496   6.469   7.864  2.1723 -0.4146  0.4982
   80SLPC  H16S 7424   3.431   6.462   8.036  0.4448 -1.5989 -1.0566
   80SLPC  C217 7425   3.593   6.590   8.012  0.1574  0.2259  0.0023
   80SLPC  H17R 7426   3.567   6.659   8.095 -4.7922  1.0265 -1.9224
   80SLPC  H17S 7427   3.637   6.653   7.932  1.1475 -1.5933 -0.9503
   80SLPC  C218 7428   3.693   6.481   8.048 -0.7889  0.1043 -0.4127
   80SLPC  H18R 7429   3.764   6.510   8.129 -0.4124 -0.9123 -0.3715
   80SLPC  H18S 7430   3.743   6.442   7.958 -0.6556 -0.6914 -0.0048
   80SLPC  H18T 7431   3.638   6.394   8.090 -0.9169  0.4545  0.1591
   80SLPC   C33 7432   3.088   6.875   7.050 -0.0893 -0.1463  1.0608
   80SLPC   H3X 7433   3.133   6.786   7.099 -1.5554 -0.5355  1.7271
   80SLPC   H3Y 7434   2.995   6.823   7.018  1.1748 -0.9899 -1.5758
   80SLPC   C34 7435   3.071   6.990   7.143  0.1349 -0.0620  0.8553
   80SLPC   H4X 7436   3.003   7.068   7.103  0.2797  0.9277  2.4854
   80SLPC   H4Y 7437   3.168   7.045   7.149  0.4525 -0.6818  1.6610
   80SLPC   C35 7438   3.025   6.943   7.279 -0.8524 -0.7931 -0.2108
   80SLPC   H5X 7439   2.937   6.875   7.285 -2.3060  1.1002  1.3062
   80SLPC   H5Y 7440   2.996   7.031   7.339  0.4512 -1.2899  1.1897
   80SLPC   C36 7441   3.139   6.879   7.360  0.6779  0.3168 -0.7426
   80SLPC   H6X 7442   3.213   6.962   7.367 -2.2520  3.0758 -0.2290
   80SLPC   H6Y 7443   3.175   6.783   7.318 -1.0101 -0.1484 -1.2024
   80SLPC   C37 7444   3.099   6.841   7.511  1.1451  0.4103  0.2133
   80SLPC   H7X 7445   3.181   6.786   7.563 -0.3311 -0.9021  1.2568
   80SLPC   H7Y 7446   3.007   6.779   7.506  0.9217  0.8031 -0.7355
   80SLPC   C38 7447   3.078   6.972   7.588  0.6314  0.1238  0.5498
   80SLPC   H8X 7448   2.983   7.020   7.557  0.7392  0.5616  0.8917
   80SLPC   H8Y 7449   3.161   7.041   7.563 -2.2380  3.4004 -0.8421
   80SLPC   C39 7450   3.069   6.942   7.736 -0.0723  0.1405 -0.5296
   80SLPC   H9X 7451   3.159   6.879   7.754 -1.1691 -1.3355  0.0130
   80SLPC   H9Y 7452   2.982   6.883   7.771  0.7142 -0.3825  0.6256
   80SLPC  C310 7453   3.061   7.062   7.833 -0.1394  0.4110  0.4370
   80SLPC  H10X 7454   2.982   7.135   7.804 -1.1722 -0.4390  1.0140
   80SLPC  H10Y 7455   3.160   7.112   7.833 -1.1312  2.5174 -0.5486
   80SLPC  C311 7456   3.040   7.006   7.977 -0.3253 -0.2640  0.4488
   80SLPC  H11X 7457   3.133   6.953   8.007  0.3945  0.4153 -0.5124
   80SLPC  H11Y 7458   2.947   6.945   7.981 -0.9801  0.5428 -1.4442
   80SLPC  C312 7459   3.017   7.122   8.075  1.2493  0.2324 -0.2535
   80SLPC  H12X 7460   3.074   7.215   8.052 -2.1566  2.0429 -2.2656
   80SLPC  H12Y 7461   3.032   7.095   8.181 -2.0274  1.7935  0.7540
   80SLPC  C313 7462   2.867   7.163   8.086  0.5669  0.2218 -0.4785
   80SLPC  H13X 7463   2.804   7.076   8.059 -0.4796  0.3166  1.4472
   80SLPC  H13Y 7464   2.840   7.243   8.014  1.4804  0.3173 -0.7247
   80SLPC  C314 7465   2.810   7.211   8.221 -0.1816 -0.1925 -0.3551
   80SLPC  H14X 7466   2.825   7.144   8.308  1.5553 -0.7032 -1.0102
   80SLPC  H14Y 7467   2.702   7.233   8.203 -0.1144  1.4373  0.9683
   80SLPC  C315 7468   2.861   7.346   8.278  0.0181 -0.2578  0.6763
   80SLPC  H15X 7469   2.857   7.424   8.200  0.7928 -0.2579  0.6210
   80SLPC  H15Y 7470   2.969   7.325   8.297  0.8272  0.8754 -2.1426
   80SLPC  C316 7471   2.796   7.380   8.411  0.6557 -0.3006 -0.2805
   80SLPC  H16X 7472   2.794   7.285   8.468 -0.5078  0.5712  1.1972
   80SLPC  H16Y 7473   2.693   7.418   8.394  0.1000 -1.8657 -0.5361
   80SLPC  C317 7474   2.894   7.479   8.488  0.2418 -0.1166 -0.2514
   80SLPC  H17X 7475   2.968   7.421   8.547  0.4635 -1.0681 -1.4398
   80SLPC  H17Y 7476   2.834   7.533   8.565  1.6768  0.0973  0.7706
   80SLPC  C318 7477   2.960   7.589   8.406  0.3644 -0.0246 -0.4567
   80SLPC  H18X 7478   2.887   7.651   8.350 -1.8450 -0.6336  1.5998
   80SLPC  H18Y 7479   3.036   7.540   8.341  0.3882 -1.0972  0.3468
   80SLPC  H18Z 7480   3.009   7.661   8.475 -0.0229  0.1690 -0.3827
   81SAPS     N 7481   3.579   5.383  11.170 -0.2403  0.0242 -0.3924
   81SAPS   HN1 7482   3.570   5.482  11.141  0.9493  0.2012 -0.2116
   81SAPS   HN2 7483   3.648   5.372  11.248  1.4007  0.9771 -1.6498
   81SAPS   HN3 7484   3.626   5.336  11.090  2.9824 -0.4912  1.6341
   81SAPS   C12 7485   3.443   5.332  11.213  0.2662 -0.2867  0.6546
   81SAPS  H12A 7486   3.457   5.226  11.228 -1.6228 -0.6655  0.0449
   81SAPS   C13 7487   3.396   5.394  11.342  0.0551 -0.0182 -0.5761
   81SAPS  O13A 7488   3.464   5.478  11.411  0.3354 -0.0072  0.1751
   81SAPS  O13B 7489   3.287   5.350  11.385 -0.4775 -0.3291 -0.2668
   81SAPS   C11 7490   3.342   5.345  11.097 -0.1345 -0.6503 -0.9707
   81SAPS  H11A 7491   3.305   5.448  11.079  0.6987 -0.2130 -0.2759
   81SAPS  H11B 7492   3.253   5.288  11.131 -0.1239  0.0132  0.2388
   81SAPS     P 7493   3.363   5.151  10.914 -0.2809  0.2292 -0.4905
   81SAPS   O13 7494   3.450   5.059  10.985 -0.5614  0.6959 -0.2210
   81SAPS   O14 7495   3.218   5.134  10.929 -0.0100  0.7615  0.3733
   81SAPS   O12 7496   3.411   5.290  10.978 -0.2005 -0.0333  0.3759
   81SAPS   O11 7497   3.390   5.153  10.754  0.5529 -0.4611  0.0679
   81SAPS    C1 7498   3.505   5.232  10.708  0.3946 -0.1388  0.0349
   81SAPS    HA 7499   3.505   5.338  10.743  3.1395 -0.7410  2.3217
   81SAPS    HB 7500   3.598   5.184  10.746  0.6429 -2.1959 -2.8354
   81SAPS    C2 7501   3.515   5.235  10.554 -0.3009 -0.0476 -0.3904
   81SAPS    HS 7502   3.418   5.266  10.509 -0.5518 -3.5026 -2.5372
   81SAPS   O21 7503   3.537   5.107  10.509  0.3666 -0.2866  0.3834
   81SAPS   C21 7504   3.490   5.068  10.388 -0.0696 -0.0924  0.4682
   81SAPS   O22 7505   3.415   5.136  10.319 -0.5686 -0.0555 -0.9453
   81SAPS   C22 7506   3.539   4.932  10.356  0.5595 -0.5274 -0.3174
   81SAPS   H2R 7507   3.552   4.879  10.453  1.0929 -0.2308 -0.2219
   81SAPS   H2S 7508   3.449   4.886  10.310 -0.4203  2.6206 -1.8005
   81SAPS    C3 7509   3.631   5.334  10.513  0.0648  0.0718 -0.3545
   81SAPS    HX 7510   3.713   5.354  10.585 -0.9052  2.2878  0.2344
   81SAPS    HY 7511   3.586   5.434  10.531 -1.3936 -0.2646 -1.8501
   81SAPS   O31 7512   3.690   5.315  10.381  0.2863 -0.3151  0.4233
   81SAPS   C31 7513   3.665   5.410  10.295 -0.3451  0.5776 -0.7795
   81SAPS   O32 7514   3.598   5.505  10.323 -0.2670  0.6936  0.7792
   81SAPS   C32 7515   3.712   5.392  10.144 -0.1033  0.1595 -0.1204
   81SAPS   H2X 7516   3.793   5.317  10.136  3.0950  3.4688 -1.5935
   81SAPS   H2Y 7517   3.761   5.487  10.115  0.7886  0.2776  1.6241
   81SAPS   C23 7518   3.678   4.926  10.289  1.2656  0.0940  0.1895
   81SAPS   H3R 7519   3.708   4.820  10.302 -2.4627 -1.5849 -2.9461
   81SAPS   H3S 7520   3.748   4.994  10.341  1.3139  0.6901 -0.6326
   81SAPS   C24 7521   3.665   4.945  10.137  0.3986 -0.1245 -0.0976
   81SAPS   H4R 7522   3.626   5.048  10.124  1.1727  0.3213  0.9659
   81SAPS   H4S 7523   3.581   4.885  10.096  1.1577  0.0622 -2.0160
   81SAPS   C25 7524   3.797   4.947  10.060  0.1757  0.7657 -0.2875
   81SAPS   H5R 7525   3.886   4.969  10.121 -0.7196 -0.3364  1.4996
   81SAPS   C26 7526   3.807   4.899   9.940 -0.2341 -0.0295  0.0115
   81SAPS   H6R 7527   3.906   4.900   9.892 -0.3840  2.0942 -0.3166
   81SAPS   C27 7528   3.690   4.843   9.860 -0.0074 -0.2011  0.3785
   81SAPS   H7R 7529   3.617   4.926   9.849  0.6634  0.2098 -1.3927
   81SAPS   H7S 7530   3.639   4.762   9.917  2.1132 -1.5157  0.5185
   81SAPS   C28 7531   3.724   4.789   9.723 -0.2063 -0.4515  0.4918
   81SAPS   H8R 7532   3.713   4.679   9.720  0.4257 -0.5014 -0.1472
   81SAPS   C29 7533   3.768   4.854   9.611  0.2531  0.1968  0.4710
   81SAPS   H9R 7534   3.784   4.797   9.518  1.0577 -0.2470  0.8710
   81SAPS  C210 7535   3.790   5.000   9.591  0.5667 -0.5664 -0.1080
   81SAPS  H10R 7536   3.822   5.036   9.691  1.4625 -0.7842 -0.2993
   81SAPS  H10S 7537   3.694   5.046   9.562 -0.8649 -3.3594 -0.1020
   81SAPS  C211 7538   3.899   5.023   9.486  0.2611  0.7791  0.0438
   81SAPS  H11R 7539   4.003   5.025   9.521  0.0746  0.5484  0.6251
   81SAPS  C212 7540   3.871   5.064   9.358  0.7828  0.2793  0.1963
   81SAPS  H12R 7541   3.953   5.064   9.285  1.7847 -0.4958  1.2869
   81SAPS  C213 7542   3.732   5.100   9.308  0.2424  0.4372  0.1728
   81SAPS  H13R 7543   3.733   5.156   9.212 -0.9139  0.4309  0.1508
   81SAPS  H13S 7544   3.685   5.160   9.388  1.5304 -1.1830  2.2399
   81SAPS  C214 7545   3.641   4.980   9.281  0.1031 -0.7500 -0.2823
   81SAPS  H14R 7546   3.635   4.912   9.367 -2.7093  1.4759  1.4567
   81SAPS  C215 7547   3.577   4.951   9.166 -0.2496 -0.5112  0.5220
   81SAPS  H15R 7548   3.506   4.866   9.161  0.2899 -0.9176 -1.8924
   81SAPS  C216 7549   3.593   5.048   9.043  0.1556  0.5668 -0.1636
   81SAPS  H16R 7550   3.701   5.056   9.020  0.0013 -0.9979 -1.5956
   81SAPS  H16S 7551   3.546   5.149   9.047  1.5415  1.2155  1.4208
   81SAPS  C217 7552   3.531   4.976   8.919  0.2145  0.4722 -0.2070
   81SAPS  H17R 7553   3.425   4.946   8.929  1.1100 -2.9555  0.2101
   81SAPS  H17S 7554   3.576   4.876   8.901 -1.0361 -0.0079 -0.8240
   81SAPS  C218 7555   3.554   5.047   8.788 -0.2036 -0.1201 -0.6309
   81SAPS  H18R 7556   3.663   5.065   8.780  0.1879 -2.0604 -0.1402
   81SAPS  H18S 7557   3.501   5.144   8.793 -1.1228 -0.5888 -1.0291
   81SAPS  C219 7558   3.507   4.968   8.665  0.1167 -0.0392 -0.3318
   81SAPS  H19R 7559   3.397   4.980   8.659 -0.0992 -2.1387 -1.6099
   81SAPS  H19S 7560   3.534   4.863   8.685  1.9555  0.5539  0.5623
   81SAPS  C220 7561   3.567   5.017   8.534 -0.0476  0.4659 -0.3658
   81SAPS  H20R 7562   3.576   5.128   8.528 -2.5729  0.8530  1.4423
   81SAPS  H20S 7563   3.512   4.977   8.447 -1.5564 -1.3976  1.3622
   81SAPS  H20T 7564   3.669   4.973   8.536 -1.0821 -2.1643 -1.4180
   81SAPS   C33 7565   3.591   5.352  10.050 -0.9837 -0.8873 -0.4103
   81SAPS   H3X 7566   3.523   5.438  10.029 -0.0609 -0.0523 -0.0848
   81SAPS   H3Y 7567   3.538   5.272  10.105 -0.3817 -0.6367  0.5774
   81SAPS   C34 7568   3.644   5.305   9.915  0.0895  0.3773 -0.8247
   81SAPS   H4X 7569   3.730   5.239   9.941 -1.5799 -1.8282 -0.5527
   81SAPS   H4Y 7570   3.678   5.391   9.854  0.6688  2.5411  2.3219
   81SAPS   C35 7571   3.534   5.222   9.847  0.1884  0.6922 -0.0962
   81SAPS   H5X 7572   3.519   5.131   9.910 -1.1957  0.2019 -1.0620
   81SAPS   H5Y 7573   3.562   5.172   9.751 -0.6604 -1.0933  0.5296
   81SAPS   C36 7574   3.417   5.311   9.820  0.2780  0.3896  0.6077
   81SAPS   H6X 7575   3.444   5.413   9.783  1.0451  0.9845  2.6988
   81SAPS   H6Y 7576   3.367   5.325   9.919  0.3756 -0.8459  0.8391
   81SAPS   C37 7577   3.303   5.253   9.730 -0.5853  0.0455  0.2166
   81SAPS   H7X 7578   3.211   5.314   9.739 -0.8411  0.0182 -1.7482
   81SAPS   H7Y 7579   3.277   5.151   9.765 -2.2935  1.5665  3.9053
   81SAPS   C38 7580   3.339   5.254   9.577 -0.4894  0.4529  0.9639
   81SAPS   H8X 7581   3.421   5.180   9.565 -1.2972 -0.4237  0.7637
   81SAPS   H8Y 7582   3.365   5.351   9.530 -0.0700 -0.9220 -1.8513
   81SAPS   C39 7583   3.226   5.183   9.492  0.3730 -0.3502  0.5194
   81SAPS   H9X 7584   3.144   5.258   9.487  0.9690  0.2565 -0.7761
   81SAPS   H9Y 7585   3.204   5.094   9.554  1.2096 -0.3265  0.8642
   81SAPS  C310 7586   3.267   5.142   9.349 -0.4497 -0.3186 -0.4058
   81SAPS  H10X 7587   3.363   5.086   9.349 -0.0931  0.2735  0.3827
   81SAPS  H10Y 7588   3.285   5.230   9.283 -2.8523  1.0338  0.6026
   81SAPS  C311 7589   3.157   5.056   9.286 -0.8557 -0.0046  0.1760
   81SAPS  H11X 7590   3.062   5.112   9.273 -1.8152 -1.9157 -1.6825
   81SAPS  H11Y 7591   3.141   4.971   9.356  0.1888 -0.0807  0.3466
   81SAPS  C312 7592   3.197   5.005   9.146 -0.7366 -0.2789  0.8914
   81SAPS  H12X 7593   3.300   4.963   9.154 -0.3052  0.8868  1.8522
   81SAPS  H12Y 7594   3.206   5.084   9.069 -0.3955 -3.1914 -2.2692
   81SAPS  C313 7595   3.088   4.909   9.090 -0.4108  0.4604 -0.0297
   81SAPS  H13X 7596   2.986   4.953   9.098 -0.7520 -0.1239 -0.9247
   81SAPS  H13Y 7597   3.098   4.816   9.150  0.5617  1.3086  1.1550
   81SAPS  C314 7598   3.116   4.881   8.939 -0.0449  0.2177 -0.2110
   81SAPS  H14X 7599   3.028   4.830   8.894  0.2033  1.0127 -1.6743
   81SAPS  H14Y 7600   3.206   4.819   8.924  1.4613  1.7246  2.0491
   81SAPS  C315 7601   3.133   5.002   8.847  0.7638 -0.2444 -0.3353
   81SAPS  H15X 7602   3.238   5.036   8.853  0.3997  0.9120 -0.2602
   81SAPS  H15Y 7603   3.064   5.085   8.873  0.1063 -0.1495 -2.2776
   81SAPS  C316 7604   3.118   4.969   8.697  0.4505 -0.4994 -0.1199
   81SAPS  H16X 7605   3.017   4.934   8.668 -0.0806  1.1873 -0.4347
   81SAPS  H16Y 7606   3.187   4.887   8.669 -0.1560 -0.3700 -2.1243
   81SAPS  C317 7607   3.139   5.095   8.610  0.2858  0.1110  0.2081
   81SAPS  H17X 7608   3.242   5.131   8.632  0.6716 -0.4503 -0.6015
   81SAPS  H17Y 7609   3.075   5.174   8.654  1.0274 -0.1219  1.7722
   81SAPS  C318 7610   3.125   5.089   8.457  0.5526 -0.3565 -0.1520
   81SAPS  H18X 7611   3.198   5.028   8.400 -1.1223 -0.4498 -2.3155
   81SAPS  H18Y 7612   3.139   5.192   8.417 -0.0904  0.5564  1.8526
   81SAPS  H18Z 7613   3.028   5.044   8.428  0.6085 -2.1349  2.1229
   82SAPS     N 7614   2.642   4.943  10.713 -0.2876 -0.2228 -0.0380
   82SAPS   HN1 7615   2.715   4.897  10.655  2.1167 -0.9638  3.3023
   82SAPS   HN2 7616   2.584   5.004  10.653 -2.0094 -2.4210 -0.7456
   82SAPS   HN3 7617   2.694   5.004  10.780  1.3425  0.5660 -1.9116
   82SAPS   C12 7618   2.548   4.862  10.790  0.1489  0.6431 -0.6382
   82SAPS  H12A 7619   2.593   4.767  10.813 -1.3957 -0.2859 -1.2996
   82SAPS   C13 7620   2.515   4.928  10.930  0.7584  0.7130 -0.8033
   82SAPS  O13A 7621   2.580   5.028  10.961 -0.0878  0.2492 -0.2108
   82SAPS  O13B 7622   2.411   4.888  10.991  0.0301 -0.2440  0.5653
   82SAPS   C11 7623   2.421   4.838  10.702  0.1260  0.0294 -0.5389
   82SAPS  H11A 7624   2.443   4.850  10.594 -0.0629  0.5715 -0.5203
   82SAPS  H11B 7625   2.362   4.932  10.707 -1.0263 -0.5755 -1.8259
   82SAPS     P 7626   2.372   4.585  10.694  0.2820 -0.1379  0.1941
   82SAPS   O13 7627   2.441   4.514  10.801  0.3641  0.1643 -0.3344
   82SAPS   O14 7628   2.244   4.517  10.660  0.3266 -0.3006  0.0426
   82SAPS   O12 7629   2.340   4.732  10.742 -0.0496  0.1904 -0.0988
   82SAPS   O11 7630   2.468   4.611  10.569 -0.2279 -0.5744  0.0736
   82SAPS    C1 7631   2.566   4.510  10.525  0.5343  0.2642 -0.0119
   82SAPS    HA 7632   2.669   4.551  10.526 -0.0327  1.9066 -2.1360
   82SAPS    HB 7633   2.557   4.418  10.588  0.5484  1.1101  1.2780
   82SAPS    C2 7634   2.552   4.483  10.376 -0.6690 -0.0631 -0.2946
   82SAPS    HS 7635   2.558   4.584  10.330 -0.6352  0.7313  1.3800
   82SAPS   O21 7636   2.428   4.418  10.354  0.1251 -1.1319 -0.2630
   82SAPS   C21 7637   2.365   4.443  10.248 -0.2714  0.5540  0.4674
   82SAPS   O22 7638   2.407   4.502  10.149  0.0945 -0.1709 -0.0664
   82SAPS   C22 7639   2.212   4.384  10.265  0.1980 -0.6404  0.2815
   82SAPS   H2R 7640   2.226   4.274  10.261  0.0574 -0.6128 -1.9059
   82SAPS   H2S 7641   2.181   4.419  10.366 -0.0331  2.1959 -0.6836
   82SAPS    C3 7642   2.673   4.388  10.332 -0.3940 -0.0163 -0.4806
   82SAPS    HX 7643   2.657   4.298  10.396  0.6353 -0.1385 -0.3824
   82SAPS    HY 7644   2.773   4.431  10.354  0.2963 -1.5168 -0.5672
   82SAPS   O31 7645   2.665   4.342  10.195  0.3881  0.7339 -0.0485
   82SAPS   C31 7646   2.692   4.433  10.114  0.5735 -0.5686  0.1621
   82SAPS   O32 7647   2.745   4.542  10.136 -0.3310 -0.3286 -0.7329
   82SAPS   C32 7648   2.652   4.389   9.968  0.5741 -0.4360 -0.6513
   82SAPS   H2X 7649   2.548   4.426   9.958  1.2980  0.9771 -4.1392
   82SAPS   H2Y 7650   2.649   4.278   9.971 -0.4452 -0.4140  1.4384
   82SAPS   C23 7651   2.124   4.434  10.149  0.7264  0.1572  0.3556
   82SAPS   H3R 7652   2.167   4.403  10.052 -1.1054 -0.1306 -0.4076
   82SAPS   H3S 7653   2.125   4.545  10.153 -0.4646  0.1569  1.7305
   82SAPS   C24 7654   1.977   4.390  10.160 -0.2511 -0.4115  0.0600
   82SAPS   H4R 7655   1.983   4.279  10.160  0.5293 -0.3785  0.2169
   82SAPS   H4S 7656   1.936   4.421  10.061  0.2314 -0.3848 -0.1365
   82SAPS   C25 7657   1.891   4.456  10.259  1.4921 -1.0498 -0.2660
   82SAPS   H5R 7658   1.923   4.440  10.363  0.3485  1.7958  0.6288
   82SAPS   C26 7659   1.779   4.534  10.244 -0.0585  0.0777 -0.7403
   82SAPS   H6R 7660   1.727   4.566  10.336 -1.3350  1.3377 -1.8544
   82SAPS   C27 7661   1.696   4.573  10.125 -0.0433 -0.3995  0.8071
   82SAPS   H7R 7662   1.589   4.590  10.151 -0.7846 -2.9137 -0.3683
   82SAPS   H7S 7663   1.687   4.486  10.057 -2.9305  1.8042 -1.9018
   82SAPS   C28 7664   1.749   4.685  10.036  0.2710  0.5945 -0.4741
   82SAPS   H8R 7665   1.758   4.778  10.093 -1.1396  1.0840 -1.0034
   82SAPS   C29 7666   1.781   4.679   9.906  0.1377 -0.5340  0.0323
   82SAPS   H9R 7667   1.813   4.771   9.854 -1.5447  1.2616  1.9723
   82SAPS  C210 7668   1.764   4.561   9.816 -0.7775  0.2462  0.3980
   82SAPS  H10R 7669   1.717   4.600   9.724  3.2697  0.6692 -1.7388
   82SAPS  H10S 7670   1.687   4.492   9.856  1.1963 -1.6797  1.0900
   82SAPS  C211 7671   1.892   4.488   9.786  0.2795 -0.2492 -0.5619
   82SAPS  H11R 7672   1.958   4.494   9.874 -0.4710 -2.1450  0.1739
   82SAPS  C212 7673   1.913   4.397   9.691 -0.2062  0.0988  0.0671
   82SAPS  H12R 7674   2.012   4.351   9.684 -0.6887 -0.7270 -2.9163
   82SAPS  C213 7675   1.809   4.360   9.579  0.2686 -0.2033  0.8574
   82SAPS  H13R 7676   1.708   4.394   9.610  1.5288  2.0393  2.7681
   82SAPS  H13S 7677   1.801   4.249   9.573  1.4392 -0.3197  1.2895
   82SAPS  C214 7678   1.844   4.423   9.446  0.1572 -0.0348 -0.1664
   82SAPS  H14R 7679   1.870   4.529   9.459 -0.4018 -0.1882  2.7501
   82SAPS  C215 7680   1.850   4.367   9.322  0.7697  0.8309  0.0017
   82SAPS  H15R 7681   1.876   4.436   9.240  2.1170  0.4648  0.0910
   82SAPS  C216 7682   1.808   4.225   9.294 -0.5179  0.2396  0.0671
   82SAPS  H16R 7683   1.809   4.147   9.373 -1.1307 -0.4094 -0.5452
   82SAPS  H16S 7684   1.888   4.177   9.233 -1.6485  0.5076 -1.7239
   82SAPS  C217 7685   1.679   4.210   9.208  0.3430 -0.0890  0.2359
   82SAPS  H17R 7686   1.680   4.293   9.134  0.9349  1.0025  1.4499
   82SAPS  H17S 7687   1.586   4.241   9.260 -0.5943 -0.2870 -1.2520
   82SAPS  C218 7688   1.665   4.076   9.131  0.4014 -0.3948 -0.1692
   82SAPS  H18R 7689   1.559   4.044   9.121  0.8099 -0.9883 -4.5128
   82SAPS  H18S 7690   1.720   3.999   9.189 -0.9123 -2.2627 -1.2412
   82SAPS  C219 7691   1.724   4.094   8.989 -0.2095  0.0618 -0.3356
   82SAPS  H19R 7692   1.832   4.115   9.002 -0.2031 -0.8031  1.4547
   82SAPS  H19S 7693   1.672   4.181   8.943  1.7698  0.1397 -2.5627
   82SAPS  C220 7694   1.711   3.975   8.887 -0.4695  0.1236  0.5423
   82SAPS  H20R 7695   1.608   3.972   8.845  0.3330  0.1091 -1.5100
   82SAPS  H20S 7696   1.725   3.886   8.951  2.5543  0.3823  0.3776
   82SAPS  H20T 7697   1.781   3.971   8.802 -1.7947  1.9455 -0.7138
   82SAPS   C33 7698   2.721   4.461   9.848  0.0563 -0.1552  0.7250
   82SAPS   H3X 7699   2.829   4.461   9.872 -0.0968 -1.6324  1.5736
   82SAPS   H3Y 7700   2.696   4.569   9.844 -0.4387 -0.2571  0.9556
   82SAPS   C34 7701   2.689   4.390   9.713  0.3226 -0.7954 -0.3941
   82SAPS   H4X 7702   2.579   4.396   9.699  0.3207  0.1215 -0.0559
   82SAPS   H4Y 7703   2.706   4.280   9.707 -1.1640 -1.0708  0.0383
   82SAPS   C35 7704   2.782   4.454   9.602 -0.1595 -0.1536  0.1862
   82SAPS   H5X 7705   2.884   4.418   9.629 -0.1520 -0.0581  0.2831
   82SAPS   H5Y 7706   2.777   4.563   9.618  0.0656  0.0570 -1.1048
   82SAPS   C36 7707   2.734   4.393   9.468  0.0816  0.0946 -0.0415
   82SAPS   H6X 7708   2.630   4.426   9.445  0.6263 -0.1387 -3.3083
   82SAPS   H6Y 7709   2.732   4.283   9.482  2.9001 -0.1299 -0.7811
   82SAPS   C37 7710   2.812   4.460   9.350  0.4601 -0.1073 -0.0095
   82SAPS   H7X 7711   2.898   4.391   9.341  1.2817  0.9791 -0.7557
   82SAPS   H7Y 7712   2.837   4.564   9.380  2.8019 -0.9783  1.3248
   82SAPS   C38 7713   2.735   4.454   9.216 -0.3068  0.4081 -0.5237
   82SAPS   H8X 7714   2.769   4.541   9.156 -0.5624  0.1575 -1.0433
   82SAPS   H8Y 7715   2.627   4.458   9.241  0.0438 -1.5750  1.7161
   82SAPS   C39 7716   2.763   4.323   9.134 -0.5036  0.2612  0.2064
   82SAPS   H9X 7717   2.708   4.248   9.195 -0.3452 -0.5931 -0.6770
   82SAPS   H9Y 7718   2.870   4.296   9.148 -0.6212  0.0839  0.7934
   82SAPS  C310 7719   2.718   4.327   8.989  0.1918  0.2888 -0.3365
   82SAPS  H10X 7720   2.623   4.384   8.989  1.8879  3.3505 -1.6802
   82SAPS  H10Y 7721   2.710   4.221   8.957  2.0160 -0.7966  2.3757
   82SAPS  C311 7722   2.825   4.394   8.903 -0.7377 -0.4102  0.0973
   82SAPS  H11X 7723   2.916   4.339   8.934 -2.0640 -1.8631  1.6250
   82SAPS  H11Y 7724   2.839   4.498   8.940 -3.2080 -0.5508  1.6984
   82SAPS  C312 7725   2.807   4.388   8.752  0.8658  0.2604  0.6302
   82SAPS  H12X 7726   2.767   4.483   8.712  1.1394 -0.2041 -0.8004
   82SAPS  H12Y 7727   2.724   4.315   8.738  1.2456 -0.2269  0.8650
   82SAPS  C313 7728   2.931   4.351   8.678  0.0862 -0.4661 -0.2785
   82SAPS  H13X 7729   2.976   4.261   8.725  5.5028  2.1789  0.3155
   82SAPS  H13Y 7730   2.999   4.437   8.695 -0.9510  0.7302 -1.8327
   82SAPS  C314 7731   2.914   4.331   8.525  0.2245  0.1062 -0.3407
   82SAPS  H14X 7732   2.831   4.261   8.499 -0.3825  0.2736  1.0697
   82SAPS  H14Y 7733   3.006   4.294   8.475  1.3896  2.6803 -0.2496
   82SAPS  C315 7734   2.895   4.463   8.440  0.2348  0.2557  0.2658
   82SAPS  H15X 7735   2.820   4.528   8.489  1.0306  0.9425  0.6061
   82SAPS  H15Y 7736   2.851   4.437   8.342  0.1779 -1.0372  0.6201
   82SAPS  C316 7737   3.023   4.547   8.418 -0.1771 -0.6801  0.0732
   82SAPS  H16X 7738   3.085   4.511   8.333  1.9499 -0.6146  1.5026
   82SAPS  H16Y 7739   3.090   4.528   8.505 -0.5233  0.4735  0.6138
   82SAPS  C317 7740   2.986   4.686   8.390  0.2751 -0.2508 -0.4323
   82SAPS  H17X 7741   3.079   4.744   8.376  1.6347 -1.7296  1.7218
   82SAPS  H17Y 7742   2.951   4.730   8.486 -0.6676  0.7269 -1.1944
   82SAPS  C318 7743   2.877   4.709   8.286  0.6059  0.2270 -0.9827
   82SAPS  H18X 7744   2.895   4.645   8.197 -2.1112 -1.8762 -0.1175
   82SAPS  H18Y 7745   2.861   4.814   8.253  0.1778 -0.5143 -3.2528
   82SAPS  H18Z 7746   2.781   4.674   8.328  0.7293 -2.3662 -2.6446
   83SAPS     N 7747   2.495   1.567  11.185  0.2692 -0.1104 -0.0812
   83SAPS   HN1 7748   2.407   1.524  11.220  0.5238 -1.2447 -0.7760
   83SAPS   HN2 7749   2.519   1.519  11.096  0.1627  0.4658 -0.4229
   83SAPS   HN3 7750   2.570   1.547  11.254 -0.4113  1.6788  1.2544
   83SAPS   C12 7751   2.485   1.714  11.161  0.2038  0.3121  0.4919
   83SAPS  H12A 7752   2.434   1.756  11.246 -2.9685 -1.7215 -0.2378
   83SAPS   C13 7753   2.623   1.783  11.143  0.1580 -0.4839  0.7004
   83SAPS  O13A 7754   2.726   1.716  11.147  0.1540  0.3277 -0.7073
   83SAPS  O13B 7755   2.620   1.905  11.162 -0.3042 -0.0111  0.0499
   83SAPS   C11 7756   2.392   1.723  11.040  0.1684 -1.0782 -0.0204
   83SAPS  H11A 7757   2.457   1.694  10.954  2.6196  1.0662  0.9701
   83SAPS  H11B 7758   2.373   1.831  11.020  1.1231 -0.5277  1.8671
   83SAPS     P 7759   2.135   1.676  10.985 -0.3166  0.4517 -0.2905
   83SAPS   O13 7760   2.042   1.562  10.967 -0.3532  0.2841 -0.5850
   83SAPS   O14 7761   2.085   1.791  11.062  0.9343  0.5960 -0.2245
   83SAPS   O12 7762   2.280   1.640  11.038 -0.1472 -0.6246 -0.1493
   83SAPS   O11 7763   2.170   1.735  10.848 -0.1603 -0.6927  0.3502
   83SAPS    C1 7764   2.256   1.674  10.751 -0.4989  0.1621  0.5519
   83SAPS    HA 7765   2.349   1.734  10.740 -1.2265  1.0290 -1.0894
   83SAPS    HB 7766   2.290   1.571  10.774  1.0835  0.3114 -0.8955
   83SAPS    C2 7767   2.197   1.687  10.611  0.0534 -0.2937 -0.2844
   83SAPS    HS 7768   2.260   1.622  10.545 -0.4800 -0.2273 -0.8732
   83SAPS   O21 7769   2.194   1.823  10.560  0.4713 -0.0802  0.2045
   83SAPS   C21 7770   2.316   1.870  10.515  0.3807 -0.6382 -0.1187
   83SAPS   O22 7771   2.413   1.802  10.516 -0.0915  0.3103  0.6267
   83SAPS   C22 7772   2.311   2.023  10.494 -0.1062  0.0538 -0.4042
   83SAPS   H2R 7773   2.217   2.060  10.539 -0.2434 -0.7125 -0.0428
   83SAPS   H2S 7774   2.394   2.059  10.558 -0.1166 -0.8118  0.1108
   83SAPS    C3 7775   2.056   1.621  10.615 -0.1053 -0.5675 -1.0367
   83SAPS    HX 7776   1.988   1.698  10.658  1.1941  0.8233 -1.3916
   83SAPS    HY 7777   2.064   1.525  10.669 -0.8627 -0.7655 -1.2638
   83SAPS   O31 7778   2.005   1.600  10.483  0.1753 -0.5752  0.5153
   83SAPS   C31 7779   1.893   1.529  10.481  0.0176 -0.8612 -0.3291
   83SAPS   O32 7780   1.822   1.511  10.578 -0.2899 -0.4646 -0.0218
   83SAPS   C32 7781   1.862   1.486  10.334 -0.1371  0.1430 -0.1959
   83SAPS   H2X 7782   1.944   1.413  10.322 -1.4684 -1.4843  0.1181
   83SAPS   H2Y 7783   1.867   1.572  10.264 -1.3827  0.2516 -0.1872
   83SAPS   C23 7784   2.340   2.070  10.346 -0.2713  0.6368 -0.6224
   83SAPS   H3R 7785   2.436   2.024  10.316 -1.2151 -0.8099 -1.5926
   83SAPS   H3S 7786   2.358   2.178  10.360  0.9553  0.5105 -1.1681
   83SAPS   C24 7787   2.234   2.048  10.241 -0.0832  1.0615  0.6919
   83SAPS   H4R 7788   2.135   2.077  10.280 -1.3900 -1.9555 -0.1182
   83SAPS   H4S 7789   2.214   1.942  10.213 -1.2193  1.4248  0.0762
   83SAPS   C25 7790   2.260   2.125  10.112  0.2648  0.1605  0.3534
   83SAPS   H5R 7791   2.308   2.223  10.122 -0.2882  0.3695  0.9986
   83SAPS   C26 7792   2.232   2.084   9.990  0.2242  0.0404 -0.0025
   83SAPS   H6R 7793   2.253   2.146   9.902 -3.3227  0.4017 -0.7529
   83SAPS   C27 7794   2.161   1.957   9.952  0.0468  0.8589 -0.3873
   83SAPS   H7R 7795   2.153   1.881  10.032 -1.3965  0.0807 -1.2216
   83SAPS   H7S 7796   2.239   1.905   9.893 -0.5781 -0.7390  0.1258
   83SAPS   C28 7797   2.042   1.978   9.864  0.2981 -0.1473 -0.3006
   83SAPS   H8R 7798   1.946   1.996   9.914  0.7724  1.2835  0.1618
   83SAPS   C29 7799   2.035   1.975   9.736  0.8521 -0.5530 -0.2346
   83SAPS   H9R 7800   1.937   1.991   9.688  1.4955  1.4968 -0.9760
   83SAPS  C210 7801   2.149   1.956   9.633  0.5657 -0.2419  0.8245
   83SAPS  H10R 7802   2.141   1.865   9.570  1.4533 -0.0797  0.4537
   83SAPS  H10S 7803   2.252   1.960   9.675  0.7983 -0.8652  0.3383
   83SAPS  C211 7804   2.146   2.079   9.542  0.7706 -0.0774 -0.1956
   83SAPS  H11R 7805   2.196   2.164   9.590  1.0895 -1.5028  2.1412
   83SAPS  C212 7806   2.086   2.095   9.422  0.5168  0.1231  1.0517
   83SAPS  H12R 7807   2.113   2.191   9.376 -0.3848  1.1890  2.6295
   83SAPS  C213 7808   2.003   2.000   9.338 -0.3209 -0.1975  0.5902
   83SAPS  H13R 7809   1.941   2.067   9.273  2.0735  1.3110 -0.2761
   83SAPS  H13S 7810   1.929   1.949   9.403 -0.6169  0.4436  0.7599
   83SAPS  C214 7811   2.078   1.897   9.257 -0.6035  0.3350  0.2327
   83SAPS  H14R 7812   2.140   1.827   9.316 -0.4338  1.1865  1.0915
   83SAPS  C215 7813   2.086   1.898   9.120  0.0393  0.1482  0.3555
   83SAPS  H15R 7814   2.155   1.825   9.075  0.5545  2.1573 -2.3568
   83SAPS  C216 7815   2.034   1.997   9.017 -0.3236  0.1021 -0.3321
   83SAPS  H16R 7816   2.114   2.064   8.979 -0.9939  3.2435  3.2132
   83SAPS  H16S 7817   1.953   2.063   9.055 -1.2495  0.1770 -2.3291
   83SAPS  C217 7818   1.971   1.924   8.898  0.4386  1.2232  0.4831
   83SAPS  H17R 7819   1.879   1.872   8.934  1.1096 -0.4902 -0.1399
   83SAPS  H17S 7820   2.028   1.858   8.829 -1.5357  0.6426 -0.6923
   83SAPS  C218 7821   1.920   2.031   8.799 -0.9552  0.1370  0.2273
   83SAPS  H18R 7822   1.905   2.122   8.861  1.4430  0.0063  1.1021
   83SAPS  H18S 7823   1.822   2.003   8.754 -1.3327  1.3968  0.2156
   83SAPS  C219 7824   2.020   2.056   8.680  0.2173 -0.6456 -0.3498
   83SAPS  H19R 7825   1.960   2.102   8.599 -1.9646 -0.4376  1.3078
   83SAPS  H19S 7826   2.059   1.961   8.638  0.2961 -1.0598  0.6262
   83SAPS  C220 7827   2.142   2.144   8.707 -0.0687 -0.1346 -0.5752
   83SAPS  H20R 7828   2.110   2.246   8.738 -0.6708 -0.1421 -1.1411
   83SAPS  H20S 7829   2.193   2.169   8.612  2.8656 -0.9002  0.7028
   83SAPS  H20T 7830   2.196   2.087   8.786  0.9839  0.9134 -0.5188
   83SAPS   C33 7831   1.725   1.404  10.310 -0.3553 -0.2494 -0.1884
   83SAPS   H3X 7832   1.652   1.458  10.375 -0.4241  0.4108 -0.7993
   83SAPS   H3Y 7833   1.721   1.304  10.358 -1.4482  0.8658  2.1929
   83SAPS   C34 7834   1.681   1.412  10.165  0.0847  0.1250 -0.3361
   83SAPS   H4X 7835   1.724   1.503  10.119  0.9060 -0.8340 -1.5390
   83SAPS   H4Y 7836   1.571   1.396  10.163  0.0440 -0.0824  1.5056
   83SAPS   C35 7837   1.742   1.291  10.088  0.4503 -0.1948  0.1640
   83SAPS   H5X 7838   1.721   1.196  10.143 -2.9736  0.9202  1.0433
   83SAPS   H5Y 7839   1.852   1.304  10.084  0.3100  1.3039  0.5099
   83SAPS   C36 7840   1.677   1.274   9.946  0.2039  0.5043 -0.0067
   83SAPS   H6X 7841   1.678   1.372   9.895  0.5126 -0.0089 -1.0218
   83SAPS   H6Y 7842   1.580   1.222   9.959  1.1073 -1.0293  1.1064
   83SAPS   C37 7843   1.758   1.179   9.852 -0.0648 -0.0636  0.3789
   83SAPS   H7X 7844   1.784   1.087   9.907  1.9853  0.6829  0.7337
   83SAPS   H7Y 7845   1.857   1.227   9.838 -0.4069  0.7796  0.7372
   83SAPS   C38 7846   1.696   1.150   9.715  0.6829  0.6967  0.7793
   83SAPS   H8X 7847   1.678   1.249   9.667  2.7098  0.9603  0.4609
   83SAPS   H8Y 7848   1.594   1.109   9.728  0.2898  0.3216 -2.5699
   83SAPS   C39 7849   1.777   1.049   9.640  0.2733 -0.2126  0.1427
   83SAPS   H9X 7850   1.763   0.948   9.684  1.4931 -1.4414 -2.0987
   83SAPS   H9Y 7851   1.884   1.078   9.653 -0.4082  1.9832  1.4912
   83SAPS  C310 7852   1.753   1.035   9.491 -0.3945 -0.4556 -0.0952
   83SAPS  H10X 7853   1.645   1.016   9.475 -0.8735  0.3790  1.7966
   83SAPS  H10Y 7854   1.810   0.944   9.464  1.5386  0.7692 -0.3270
   83SAPS  C311 7855   1.813   1.152   9.417 -0.7162  0.6546  0.3183
   83SAPS  H11X 7856   1.911   1.180   9.462 -0.6533  2.4733 -0.8342
   83SAPS  H11Y 7857   1.738   1.234   9.423 -0.2303  1.2675 -1.4626
   83SAPS  C312 7858   1.829   1.129   9.266 -0.2894 -0.5391  0.7300
   83SAPS  H12X 7859   1.865   1.226   9.226 -3.2035  0.5967  0.6110
   83SAPS  H12Y 7860   1.728   1.112   9.222 -1.5914 -0.8093  3.5992
   83SAPS  C313 7861   1.931   1.026   9.214 -0.6514  0.5591 -0.2886
   83SAPS  H13X 7862   1.916   0.919   9.242  1.5404  0.3661  0.3886
   83SAPS  H13Y 7863   2.030   1.059   9.252 -0.3245  2.2141 -2.3927
   83SAPS  C314 7864   1.960   1.033   9.063  0.3365 -0.3038 -0.0803
   83SAPS  H14X 7865   2.049   0.974   9.031 -0.3330 -0.0338 -2.6950
   83SAPS  H14Y 7866   1.989   1.138   9.041 -1.0819 -0.0326 -0.7826
   83SAPS  C315 7867   1.835   1.004   8.987  0.8027  0.3777 -0.2521
   83SAPS  H15X 7868   1.763   1.081   9.021 -0.9076 -0.6684 -1.3358
   83SAPS  H15Y 7869   1.793   0.901   8.991 -0.7668  0.9179 -1.6537
   83SAPS  C316 7870   1.845   1.027   8.838 -0.7746  1.0555 -0.3287
   83SAPS  H16X 7871   1.934   0.971   8.803 -1.9278 -0.3881 -1.0980
   83SAPS  H16Y 7872   1.873   1.133   8.819 -1.6407  1.3514 -0.0327
   83SAPS  C317 7873   1.720   0.987   8.758  0.9958  0.5196  0.5719
   83SAPS  H17X 7874   1.687   0.887   8.792 -0.2524  0.5758 -0.4188
   83SAPS  H17Y 7875   1.751   1.002   8.653  0.0006  4.0877  0.6611
   83SAPS  C318 7876   1.613   1.101   8.763 -0.5412 -0.7496 -0.0247
   83SAPS  H18X 7877   1.661   1.183   8.706  0.3099 -1.4070 -0.2645
   83SAPS  H18Y 7878   1.592   1.143   8.864 -0.1557  1.3577 -0.7702
   83SAPS  H18Z 7879   1.518   1.081   8.708 -0.0538  0.1825 -1.2341
   84SAPS     N 7880   4.515   5.585  11.355  0.4226  0.2647  0.1487
   84SAPS   HN1 7881   4.411   5.594  11.355  0.2292 -1.6150 -0.0739
   84SAPS   HN2 7882   4.558   5.500  11.314 -1.5502  0.2701 -2.1764
   84SAPS   HN3 7883   4.553   5.588  11.451  0.2886  0.1823  0.2040
   84SAPS   C12 7884   4.576   5.698  11.283 -0.5985 -0.1973  0.6636
   84SAPS  H12A 7885   4.519   5.785  11.310 -1.2604 -0.6043  0.6229
   84SAPS   C13 7886   4.713   5.731  11.324  0.0315  0.0561 -0.4467
   84SAPS  O13A 7887   4.750   5.702  11.444  0.6774  0.1706  0.1354
   84SAPS  O13B 7888   4.783   5.821  11.265  0.0782  0.0491  0.4406
   84SAPS   C11 7889   4.573   5.681  11.123  0.0063  0.7844 -0.2103
   84SAPS  H11A 7890   4.634   5.590  11.103  1.5171  2.0421 -1.5601
   84SAPS  H11B 7891   4.614   5.774  11.078 -2.1538  2.8353  1.7538
   84SAPS     P 7892   4.358   5.789  11.033 -0.0261  0.1023  0.2655
   84SAPS   O13 7893   4.213   5.757  11.042  0.0110  0.6478  0.8916
   84SAPS   O14 7894   4.404   5.906  11.102  0.9491  0.2662  0.1863
   84SAPS   O12 7895   4.439   5.661  11.084 -0.3432 -0.3459  0.6283
   84SAPS   O11 7896   4.403   5.800  10.887  0.4011 -0.0524 -0.0306
   84SAPS    C1 7897   4.415   5.682  10.804 -0.3672  0.1908 -0.6688
   84SAPS    HA 7898   4.461   5.600  10.863  0.3634  0.8583 -0.2929
   84SAPS    HB 7899   4.315   5.653  10.765 -1.3636  0.4899  1.5260
   84SAPS    C2 7900   4.507   5.710  10.679  0.9689 -0.1345 -0.5926
   84SAPS    HS 7901   4.601   5.760  10.712  0.7490  1.0526 -1.6622
   84SAPS   O21 7902   4.433   5.808  10.597 -0.6505  0.3599  0.5153
   84SAPS   C21 7903   4.507   5.873  10.506 -0.4405 -0.6797  0.1353
   84SAPS   O22 7904   4.628   5.897  10.502  0.1722  0.5310 -0.1807
   84SAPS   C22 7905   4.410   5.905  10.388  0.4038  0.4308 -0.1266
   84SAPS   H2R 7906   4.368   5.804  10.370 -1.8595  0.4918  3.6849
   84SAPS   H2S 7907   4.340   5.978  10.435  3.1337  2.5139  0.9650
   84SAPS    C3 7908   4.529   5.577  10.604  0.3351 -0.3724  0.9138
   84SAPS    HX 7909   4.593   5.513  10.668  0.0476 -0.1775  1.4024
   84SAPS    HY 7910   4.580   5.605  10.509 -1.1656 -0.6173 -0.0072
   84SAPS   O31 7911   4.407   5.509  10.580  0.3947  0.7480 -0.5363
   84SAPS   C31 7912   4.347   5.522  10.461  0.4797 -0.3634 -0.6583
   84SAPS   O32 7913   4.403   5.570  10.365  0.8712  0.8244  0.1249
   84SAPS   C32 7914   4.208   5.467  10.459  0.7483 -0.8295 -0.3354
   84SAPS   H2X 7915   4.148   5.519  10.537  0.6899 -2.6055  0.8440
   84SAPS   H2Y 7916   4.207   5.359  10.484 -1.3357 -0.7866 -0.0191
   84SAPS   C23 7917   4.474   5.959  10.259 -0.3405  0.5579  0.1898
   84SAPS   H3R 7918   4.569   5.903  10.245  0.3238  1.0866  2.2346
   84SAPS   H3S 7919   4.505   6.063  10.285  0.3692 -0.1200  2.2192
   84SAPS   C24 7920   4.379   5.950  10.138 -0.3734  1.1845  0.7793
   84SAPS   H4R 7921   4.434   6.003  10.057  1.7236 -2.5129 -0.4571
   84SAPS   H4S 7922   4.289   6.009  10.165 -0.3151  2.1456 -0.9365
   84SAPS   C25 7923   4.360   5.806  10.089 -0.3260 -1.1363  0.1868
   84SAPS   H5R 7924   4.387   5.727  10.161  0.3321 -1.9838 -0.9499
   84SAPS   C26 7925   4.335   5.764   9.962 -0.2541 -0.0699 -0.2366
   84SAPS   H6R 7926   4.340   5.657   9.939  0.0714  0.1908 -1.4107
   84SAPS   C27 7927   4.317   5.851   9.839 -0.6678  0.3990 -0.3293
   84SAPS   H7R 7928   4.374   5.800   9.758  1.0052 -0.5290  1.3747
   84SAPS   H7S 7929   4.379   5.942   9.844 -0.4309  0.2972 -1.2046
   84SAPS   C28 7930   4.175   5.879   9.796  0.3570  0.0133  0.3859
   84SAPS   H8R 7931   4.124   5.953   9.860  0.7181 -0.3218  1.0832
   84SAPS   C29 7932   4.111   5.807   9.702  0.4700  0.0436  0.5627
   84SAPS   H9R 7933   4.017   5.851   9.666  1.9874  2.1784 -1.0189
   84SAPS  C210 7934   4.154   5.697   9.611  0.2500  0.2577  0.4880
   84SAPS  H10R 7935   4.063   5.639   9.582  0.3456  0.1555  0.3910
   84SAPS  H10S 7936   4.216   5.621   9.664 -1.6391 -1.9129 -0.2352
   84SAPS  C211 7937   4.236   5.748   9.490  0.3414 -0.6402 -0.1875
   84SAPS  H11R 7938   4.338   5.782   9.513  1.0277 -1.0791 -2.3156
   84SAPS  C212 7939   4.197   5.764   9.362  0.6716 -0.5934 -0.0311
   84SAPS  H12R 7940   4.264   5.805   9.285 -0.2264  2.2304  0.5638
   84SAPS  C213 7941   4.052   5.729   9.308 -0.1036  0.1762  0.1025
   84SAPS  H13R 7942   4.025   5.636   9.363  0.9896  0.8494  1.8394
   84SAPS  H13S 7943   4.058   5.703   9.200  0.5236  0.1779  0.1372
   84SAPS  C214 7944   3.943   5.825   9.322 -0.9444  0.6233 -0.3131
   84SAPS  H14R 7945   3.942   5.871   9.421 -0.8353  0.9622 -0.4655
   84SAPS  C215 7946   3.845   5.871   9.235 -0.5727  0.1161 -0.8696
   84SAPS  H15R 7947   3.771   5.943   9.271  1.8505  2.0446  0.6149
   84SAPS  C216 7948   3.801   5.819   9.100 -0.8335  0.5952  0.4238
   84SAPS  H16R 7949   3.807   5.709   9.106 -2.1749  0.5422  1.3887
   84SAPS  H16S 7950   3.865   5.852   9.015 -1.0172 -2.1235 -0.8561
   84SAPS  C217 7951   3.653   5.839   9.072 -0.1131 -0.6476  1.0935
   84SAPS  H17R 7952   3.632   5.947   9.085  0.0228 -0.2838 -1.3019
   84SAPS  H17S 7953   3.585   5.795   9.148 -1.1719 -0.7633  0.1171
   84SAPS  C218 7954   3.619   5.799   8.932  0.3643  0.1251  0.0326
   84SAPS  H18R 7955   3.639   5.689   8.927  0.2690  0.1279 -0.5026
   84SAPS  H18S 7956   3.675   5.859   8.857  0.1180 -3.3386 -3.2704
   84SAPS  C219 7957   3.467   5.812   8.903 -0.3846  0.3299  0.2697
   84SAPS  H19R 7958   3.434   5.915   8.926  0.5891  1.0039 -1.1742
   84SAPS  H19S 7959   3.397   5.751   8.964 -1.9486  1.0799 -0.6926
   84SAPS  C220 7960   3.448   5.777   8.757 -0.1106  0.0610 -0.5529
   84SAPS  H20R 7961   3.517   5.841   8.698  1.7691  0.2532  1.7023
   84SAPS  H20S 7962   3.343   5.799   8.728 -0.4984  1.2175  1.5322
   84SAPS  H20T 7963   3.464   5.669   8.734  2.1559  0.5336 -1.4485
   84SAPS   C33 7964   4.127   5.517  10.335 -0.1249 -0.0768  0.4117
   84SAPS   H3X 7965   4.173   5.612  10.301  1.7564 -1.2254 -0.4625
   84SAPS   H3Y 7966   4.028   5.550  10.373 -0.4284 -1.4953  0.9119
   84SAPS   C34 7967   4.105   5.419  10.222 -0.9123  0.3423 -0.0513
   84SAPS   H4X 7968   4.044   5.467  10.142 -0.8616 -0.6594 -0.7122
   84SAPS   H4Y 7969   4.068   5.329  10.275  2.4561 -1.9742 -1.3149
   84SAPS   C35 7970   4.233   5.357  10.149  0.1271  0.1137 -0.2809
   84SAPS   H5X 7971   4.282   5.293  10.226  0.0431 -1.1796 -1.2647
   84SAPS   H5Y 7972   4.299   5.442  10.123  1.1477 -0.4120  0.5066
   84SAPS   C36 7973   4.210   5.274  10.022 -0.1657 -0.8549  0.3204
   84SAPS   H6X 7974   4.148   5.191  10.062 -2.8871  1.7866  2.0222
   84SAPS   H6Y 7975   4.308   5.232   9.991  0.8942  2.1220 -0.7474
   84SAPS   C37 7976   4.139   5.355   9.910 -0.2673 -0.9732 -0.0108
   84SAPS   H7X 7977   4.196   5.444   9.877 -2.7645  1.2136  1.2580
   84SAPS   H7Y 7978   4.038   5.392   9.937  0.8444  0.5875  2.2796
   84SAPS   C38 7979   4.111   5.269   9.781 -0.2878  0.1951 -0.1327
   84SAPS   H8X 7980   4.066   5.170   9.803 -0.8245  0.7036  1.1111
   84SAPS   H8Y 7981   4.213   5.246   9.743 -0.2141  2.3281 -1.3639
   84SAPS   C39 7982   4.060   5.341   9.653  0.4844  0.7214 -0.4821
   84SAPS   H9X 7983   4.071   5.260   9.579 -0.3092  0.5249 -0.3999
   84SAPS   H9Y 7984   4.134   5.421   9.630  0.0773  1.1954 -0.1692
   84SAPS  C310 7985   3.916   5.391   9.665  0.0838 -0.3281 -0.0888
   84SAPS  H10X 7986   3.918   5.470   9.743  0.1585  0.0109 -0.4297
   84SAPS  H10Y 7987   3.856   5.306   9.706  0.6349 -0.3722  0.6485
   84SAPS  C311 7988   3.842   5.444   9.546  0.2716  0.6297 -0.2703
   84SAPS  H11X 7989   3.843   5.367   9.467 -1.2481 -0.8276  1.0569
   84SAPS  H11Y 7990   3.898   5.526   9.496 -1.4905  0.4000 -2.7939
   84SAPS  C312 7991   3.706   5.508   9.583  0.0225  0.7908  0.0291
   84SAPS  H12X 7992   3.705   5.546   9.687  0.1805 -1.4932  0.9177
   84SAPS  H12Y 7993   3.632   5.427   9.570  2.3130 -1.1420 -1.7081
   84SAPS  C313 7994   3.656   5.608   9.486 -0.0415 -0.0855  0.0622
   84SAPS  H13X 7995   3.725   5.694   9.477  2.8787 -2.0764  1.5522
   84SAPS  H13Y 7996   3.565   5.666   9.512  0.5017  0.3041  1.1268
   84SAPS  C314 7997   3.650   5.553   9.344  0.2517  0.6089 -0.2729
   84SAPS  H14X 7998   3.745   5.504   9.313 -0.5907 -1.1926 -0.1356
   84SAPS  H14Y 7999   3.640   5.638   9.274  2.4238  0.5766 -0.6927
   84SAPS  C315 8000   3.532   5.457   9.329  0.2343 -0.0876  0.2419
   84SAPS  H15X 8001   3.436   5.499   9.365  1.0540  1.3779  0.7981
   84SAPS  H15Y 8002   3.564   5.369   9.390 -1.8523 -0.0259  1.5132
   84SAPS  C316 8003   3.516   5.399   9.188 -0.0500  0.3346  0.1805
   84SAPS  H16X 8004   3.456   5.306   9.194 -0.9726  0.8044 -1.1079
   84SAPS  H16Y 8005   3.617   5.382   9.145  0.4062  0.6950  1.0809
   84SAPS  C317 8006   3.443   5.501   9.109 -0.0155  0.4918 -0.2824
   84SAPS  H17X 8007   3.504   5.593   9.093 -2.9406  3.5196  3.8135
   84SAPS  H17Y 8008   3.352   5.529   9.167 -0.6522 -0.7285 -0.6691
   84SAPS  C318 8009   3.394   5.430   8.979  0.1271 -0.6353  0.0563
   84SAPS  H18X 8010   3.340   5.334   8.997 -1.7729  0.3344 -0.2149
   84SAPS  H18Y 8011   3.488   5.410   8.924  0.4757  1.7470 -0.3191
   84SAPS  H18Z 8012   3.329   5.502   8.924  0.7383  0.1952  0.4069
   85SAPS     N 8013   2.533   2.291  10.850  0.5568 -0.2410  0.9286
   85SAPS   HN1 8014   2.572   2.195  10.853  0.4583 -0.3374 -0.2622
   85SAPS   HN2 8015   2.490   2.314  10.758  4.2711  0.6474 -0.7549
   85SAPS   HN3 8016   2.620   2.348  10.855  1.2791 -1.2800  0.5845
   85SAPS   C12 8017   2.436   2.321  10.959 -0.3315  0.8159  0.2688
   85SAPS  H12A 8018   2.377   2.231  10.952  1.5373 -0.4047 -1.1586
   85SAPS   C13 8019   2.510   2.313  11.099  0.0600 -0.0627 -0.5098
   85SAPS  O13A 8020   2.631   2.308  11.112  0.0175  0.4968  0.7231
   85SAPS  O13B 8021   2.442   2.325  11.201 -0.0135  0.2821  0.3183
   85SAPS   C11 8022   2.371   2.462  10.951  0.0776 -0.1180  0.2467
   85SAPS  H11A 8023   2.457   2.531  10.942 -1.6307  2.0824 -0.0509
   85SAPS  H11B 8024   2.317   2.475  11.048  0.6651 -1.5012  0.7925
   85SAPS     P 8025   2.206   2.606  10.820 -0.5704  0.1972 -0.4459
   85SAPS   O13 8026   2.088   2.569  10.739  0.4334 -0.5565 -0.3980
   85SAPS   O14 8027   2.183   2.673  10.954  0.2473 -0.3291 -0.2747
   85SAPS   O12 8028   2.283   2.474  10.836  0.3464 -0.4868 -0.0899
   85SAPS   O11 8029   2.305   2.696  10.731  0.3333 -0.0247  0.0144
   85SAPS    C1 8030   2.421   2.649  10.660  0.0448 -0.3098  0.6169
   85SAPS    HA 8031   2.484   2.738  10.643 -1.6979  1.0721  1.1243
   85SAPS    HB 8032   2.483   2.577  10.718  0.9293  0.7475  1.0092
   85SAPS    C2 8033   2.381   2.598  10.517 -0.2937  0.2630  0.9111
   85SAPS    HS 8034   2.292   2.531  10.516 -0.9144  1.0585  1.5347
   85SAPS   O21 8035   2.489   2.538  10.441  0.5983  0.6512  0.4041
   85SAPS   C21 8036   2.510   2.405  10.484  0.1441  0.4561 -0.1579
   85SAPS   O22 8037   2.466   2.363  10.590  0.0593 -0.6784 -0.4808
   85SAPS   C22 8038   2.612   2.332  10.392  0.0558 -0.0884  0.2915
   85SAPS   H2R 8039   2.709   2.344  10.445  1.8540 -0.2912 -2.7158
   85SAPS   H2S 8040   2.578   2.226  10.397  1.0315 -0.4162  0.1040
   85SAPS    C3 8041   2.325   2.716  10.428  0.0676  0.4298 -0.5200
   85SAPS    HX 8042   2.410   2.787  10.416 -0.5694  1.1567 -0.8894
   85SAPS    HY 8043   2.243   2.774  10.476 -0.6940  0.0765 -1.3852
   85SAPS   O31 8044   2.270   2.677  10.301 -0.5133  0.0895 -0.1487
   85SAPS   C31 8045   2.344   2.692  10.192  0.3891 -0.4032  0.0226
   85SAPS   O32 8046   2.455   2.737  10.188 -0.5368  0.2112 -0.1503
   85SAPS   C32 8047   2.265   2.654  10.075  0.1503 -0.1314 -0.1119
   85SAPS   H2X 8048   2.265   2.744  10.009  0.6001 -1.9312 -2.7436
   85SAPS   H2Y 8049   2.164   2.635  10.118 -0.2296 -2.7070 -1.8900
   85SAPS   C23 8050   2.623   2.374  10.240  0.2916  0.2828 -0.1030
   85SAPS   H3R 8051   2.637   2.485  10.244  1.1922  0.2523 -1.6204
   85SAPS   H3S 8052   2.533   2.341  10.185  0.8043 -1.3733  0.0107
   85SAPS   C24 8053   2.753   2.316  10.182 -0.9343 -0.7403  0.3462
   85SAPS   H4R 8054   2.841   2.329  10.248 -0.2893  1.8903 -0.8756
   85SAPS   H4S 8055   2.786   2.362  10.086  2.2103 -0.8925  1.2555
   85SAPS   C25 8056   2.744   2.168  10.151  0.4688  0.0397  0.0547
   85SAPS   H5R 8057   2.785   2.102  10.229 -0.4288  0.4969  0.9294
   85SAPS   C26 8058   2.714   2.107  10.037  0.8939 -0.6271 -0.3556
   85SAPS   H6R 8059   2.712   1.997  10.030 -0.4766 -0.6954  0.7315
   85SAPS   C27 8060   2.656   2.181   9.919 -0.3836  0.6109  0.3960
   85SAPS   H7R 8061   2.744   2.199   9.854 -1.6059 -0.2856 -1.6287
   85SAPS   H7S 8062   2.619   2.282   9.945  0.2040  1.5347 -2.0592
   85SAPS   C28 8063   2.541   2.114   9.840 -0.5994  0.0961 -0.0806
   85SAPS   H8R 8064   2.499   2.037   9.906  2.2712  2.2825  4.8408
   85SAPS   C29 8065   2.508   2.124   9.717 -0.7187  0.1947  0.9287
   85SAPS   H9R 8066   2.429   2.055   9.682 -2.0225  3.0075 -2.2475
   85SAPS  C210 8067   2.579   2.205   9.614  0.3738  0.0556 -0.2208
   85SAPS  H10R 8068   2.620   2.140   9.534 -0.8292 -1.9470  0.7082
   85SAPS  H10S 8069   2.658   2.267   9.660 -0.9623  1.4013  0.3615
   85SAPS  C211 8070   2.480   2.302   9.550 -0.0773  0.4346  0.7469
   85SAPS  H11R 8071   2.419   2.371   9.610 -1.1772 -0.7796  1.0700
   85SAPS  C212 8072   2.452   2.313   9.418 -0.2799  0.4733  0.4219
   85SAPS  H12R 8073   2.376   2.388   9.391  1.5880  2.6443  0.8999
   85SAPS  C213 8074   2.521   2.239   9.297  0.2135  0.2403 -0.1841
   85SAPS  H13R 8075   2.583   2.153   9.331  1.5060  1.2763  0.1386
   85SAPS  H13S 8076   2.595   2.303   9.245  0.8985  1.1066  1.7682
   85SAPS  C214 8077   2.424   2.175   9.203  0.4871  0.5067 -0.3695
   85SAPS  H14R 8078   2.336   2.128   9.249  2.6247 -4.0525 -0.4008
   85SAPS  C215 8079   2.432   2.170   9.067  0.2371 -0.6448 -0.2687
   85SAPS  H15R 8080   2.340   2.138   9.014 -0.3713 -1.0690  0.9906
   85SAPS  C216 8081   2.540   2.236   8.979  0.5265  0.4629 -0.3998
   85SAPS  H16R 8082   2.542   2.178   8.884 -2.7873 -0.5691  0.0116
   85SAPS  H16S 8083   2.639   2.234   9.029  1.1171 -2.5637 -1.5073
   85SAPS  C217 8084   2.500   2.385   8.943 -0.8721  0.1640  0.5301
   85SAPS  H17R 8085   2.594   2.429   8.903  0.5714 -2.0636  1.2549
   85SAPS  H17S 8086   2.486   2.445   9.036 -0.3800 -2.2098  2.2391
   85SAPS  C218 8087   2.386   2.396   8.846  0.7726 -0.5224 -0.1227
   85SAPS  H18R 8088   2.324   2.486   8.868  0.2836 -1.1605  1.2484
   85SAPS  H18S 8089   2.315   2.312   8.855  0.8925 -0.7732 -1.4009
   85SAPS  C219 8090   2.446   2.412   8.705 -0.1398 -0.2367 -0.3793
   85SAPS  H19R 8091   2.485   2.314   8.671 -0.8332 -1.1641  1.3939
   85SAPS  H19S 8092   2.533   2.481   8.713 -0.6504  0.4721 -0.8017
   85SAPS  C220 8093   2.345   2.476   8.614 -0.4298  0.7409  0.7308
   85SAPS  H20R 8094   2.345   2.583   8.642  1.4933  1.3617 -1.3458
   85SAPS  H20S 8095   2.245   2.429   8.632  0.0615  0.0514  1.7252
   85SAPS  H20T 8096   2.366   2.473   8.504  0.7560  0.9562  0.9396
   85SAPS   C33 8097   2.312   2.531   9.986 -0.3459  0.4405  0.4389
   85SAPS   H3X 8098   2.331   2.446  10.054  0.8623  1.3390  1.2690
   85SAPS   H3Y 8099   2.412   2.561   9.949  0.2899 -2.1862 -0.1610
   85SAPS   C34 8100   2.209   2.496   9.875 -0.4204  0.0532  0.4623
   85SAPS   H4X 8101   2.116   2.463   9.927  1.4894 -1.3961  3.2658
   85SAPS   H4Y 8102   2.254   2.409   9.822  1.9879  1.4189  0.1534
   85SAPS   C35 8103   2.191   2.605   9.771  0.6147  0.1457 -0.1406
   85SAPS   H5X 8104   2.291   2.649   9.751  0.5238  0.5053  0.1979
   85SAPS   H5Y 8105   2.125   2.680   9.820  2.1467 -0.2983  2.7967
   85SAPS   C36 8106   2.141   2.561   9.635  0.5210 -0.3370  0.2293
   85SAPS   H6X 8107   2.037   2.525   9.651 -0.0751  1.3062  0.3031
   85SAPS   H6Y 8108   2.202   2.478   9.596 -1.4242 -0.7970 -2.0260
   85SAPS   C37 8109   2.133   2.685   9.545  0.2722 -0.2396  0.2444
   85SAPS   H7X 8110   2.235   2.730   9.542 -0.6725  2.0591  0.6659
   85SAPS   H7Y 8111   2.081   2.767   9.598  0.6449  1.4124 -1.7980
   85SAPS   C38 8112   2.077   2.657   9.405 -0.0683 -0.3448  0.0299
   85SAPS   H8X 8113   2.120   2.749   9.359 -1.2078  0.2543  0.1403
   85SAPS   H8Y 8114   1.968   2.672   9.394 -0.2389  0.0207  1.8834
   85SAPS   C39 8115   2.135   2.528   9.343  0.0809 -0.4787  0.0356
   85SAPS   H9X 8116   2.104   2.433   9.392  0.1983 -1.6529 -2.0523
   85SAPS   H9Y 8117   2.244   2.536   9.362  0.0215 -1.0001  0.6550
   85SAPS  C310 8118   2.108   2.506   9.193 -0.3693  0.2065  0.4400
   85SAPS  H10X 8119   2.185   2.433   9.160 -0.5698  0.1163  0.1723
   85SAPS  H10Y 8120   2.119   2.605   9.144  0.9354  0.2679  0.8107
   85SAPS  C311 8121   1.966   2.442   9.166  0.7422 -0.0950  0.1571
   85SAPS  H11X 8122   1.898   2.502   9.231 -0.4885 -2.1195  0.8281
   85SAPS  H11Y 8123   1.974   2.343   9.216 -1.0048 -1.6263 -2.4209
   85SAPS  C312 8124   1.919   2.427   9.022 -0.5538 -0.5654  0.5743
   85SAPS  H12X 8125   1.855   2.336   9.024  0.2244 -1.1516 -0.1857
   85SAPS  H12Y 8126   2.002   2.410   8.950 -1.2447 -0.5499 -0.2377
   85SAPS  C313 8127   1.840   2.548   8.979  0.9628 -0.4553  0.8107
   85SAPS  H13X 8128   1.904   2.639   8.978  1.3778 -0.7477  0.6698
   85SAPS  H13Y 8129   1.751   2.564   9.044  0.3619  2.3069 -0.5307
   85SAPS  C314 8130   1.779   2.533   8.828  0.0806  0.0404  0.1459
   85SAPS  H14X 8131   1.866   2.531   8.760  0.1610 -1.0222  0.2641
   85SAPS  H14Y 8132   1.719   2.623   8.806 -2.0940 -1.0301  1.3684
   85SAPS  C315 8133   1.700   2.405   8.809  0.2060  0.4584  0.0761
   85SAPS  H15X 8134   1.765   2.318   8.832 -0.5838 -0.5988 -1.5012
   85SAPS  H15Y 8135   1.690   2.396   8.698 -2.2874 -0.8612  0.3247
   85SAPS  C316 8136   1.565   2.399   8.882 -0.1760 -1.0420 -0.5892
   85SAPS  H16X 8137   1.517   2.499   8.876  1.0846 -0.5162 -3.5654
   85SAPS  H16Y 8138   1.590   2.378   8.988 -1.2365 -1.5233 -0.4261
   85SAPS  C317 8139   1.467   2.304   8.825 -0.3699 -0.8075  0.0549
   85SAPS  H17X 8140   1.432   2.335   8.725  1.7986 -1.1132 -0.8597
   85SAPS  H17Y 8141   1.375   2.301   8.887 -1.7859  1.8460 -1.7492
   85SAPS  C318 8142   1.520   2.164   8.797  0.7803  0.9391  0.0841
   85SAPS  H18X 8143   1.547   2.119   8.896 -0.1742  1.0528  0.4063
   85SAPS  H18Y 8144   1.600   2.166   8.721 -0.3081  1.3629 -1.0777
   85SAPS  H18Z 8145   1.436   2.101   8.761  1.4591  0.2451 -0.3084
   86SAPS     N 8146   5.900   2.271  11.097 -0.0651  0.0825 -0.0358
   86SAPS   HN1 8147   5.873   2.171  11.089 -1.6022  0.2652  1.9347
   86SAPS   HN2 8148   6.001   2.268  11.122  0.1647  1.3812 -0.7163
   86SAPS   HN3 8149   5.847   2.321  11.172  1.0319  0.7701  0.3087
   86SAPS   C12 8150   5.887   2.352  10.971 -0.0629 -0.3048  0.2676
   86SAPS  H12A 8151   5.784   2.384  10.958  1.0262  2.7682 -1.9409
   86SAPS   C13 8152   5.978   2.476  10.964 -0.5607  0.5267  0.1651
   86SAPS  O13A 8153   6.050   2.512  11.068  0.8417 -0.2820 -0.4906
   86SAPS  O13B 8154   5.967   2.554  10.867 -0.2089  0.1313  0.0215
   86SAPS   C11 8155   5.911   2.265  10.848 -0.4616  0.6707 -0.1973
   86SAPS  H11A 8156   5.919   2.326  10.755  1.0319  0.4094 -0.2578
   86SAPS  H11B 8157   5.830   2.192  10.832  0.0202  0.0726  0.0525
   86SAPS     P 8158   6.098   2.112  10.746  0.2017 -0.0633  0.0368
   86SAPS   O13 8159   6.153   2.206  10.643  0.1446  0.0824 -0.1583
   86SAPS   O14 8160   6.196   2.019  10.805  0.0217  0.3974  0.3668
   86SAPS   O12 8161   6.037   2.195  10.860  0.0449 -0.6544 -0.1590
   86SAPS   O11 8162   5.972   2.035  10.683  0.2650  0.1381 -0.5457
   86SAPS    C1 8163   5.934   1.903  10.731 -0.5235 -0.2137  0.5931
   86SAPS    HA 8164   6.017   1.847  10.780  1.7584  1.5735 -1.0067
   86SAPS    HB 8165   5.848   1.918  10.800 -0.4733 -1.4113  0.9416
   86SAPS    C2 8166   5.893   1.813  10.609 -0.1513 -0.2087  0.1102
   86SAPS    HS 8167   5.839   1.724  10.647  1.1376 -1.0768 -0.0359
   86SAPS   O21 8168   6.013   1.771  10.536  0.3160  0.5304 -0.4564
   86SAPS   C21 8169   6.048   1.645  10.557  0.4364 -0.5812 -1.0658
   86SAPS   O22 8170   5.991   1.561  10.628 -0.7278  0.0710  0.0998
   86SAPS   C22 8171   6.174   1.620  10.477 -0.0438 -0.0175  0.2254
   86SAPS   H2R 8172   6.186   1.678  10.382  1.6718  0.5680  0.7566
   86SAPS   H2S 8173   6.264   1.656  10.533 -0.3523  2.8501 -0.9288
   86SAPS    C3 8174   5.794   1.891  10.515 -1.1919 -0.1223 -0.6998
   86SAPS    HX 8175   5.837   1.991  10.494 -1.9778  0.5155  0.6262
   86SAPS    HY 8176   5.699   1.915  10.568 -0.5525  0.1631  0.3501
   86SAPS   O31 8177   5.771   1.823  10.394 -0.2519  0.4130 -0.0133
   86SAPS   C31 8178   5.863   1.853  10.296  0.3204  0.1379 -0.1391
   86SAPS   O32 8179   5.954   1.932  10.311  0.3131 -0.2231  0.4778
   86SAPS   C32 8180   5.834   1.769  10.176 -0.3203  0.5741 -0.2268
   86SAPS   H2X 8181   5.724   1.784  10.171 -0.4817  0.3699  1.9019
   86SAPS   H2Y 8182   5.854   1.661  10.190 -0.4536  0.8021  1.9944
   86SAPS   C23 8183   6.205   1.468  10.449 -0.0131 -0.1397  1.5330
   86SAPS   H3R 8184   6.171   1.397  10.528 -1.8019  0.9924  1.8306
   86SAPS   H3S 8185   6.316   1.461  10.441 -0.0140  1.1434  0.0807
   86SAPS   C24 8186   6.140   1.419  10.319 -0.8382 -0.5745 -0.3904
   86SAPS   H4R 8187   6.189   1.324  10.289 -0.4626 -0.2109 -0.9576
   86SAPS   H4S 8188   6.164   1.483  10.231 -1.7915  0.9154  0.3852
   86SAPS   C25 8189   5.993   1.388  10.335 -0.0596 -0.4744  0.0110
   86SAPS   H5R 8190   5.948   1.371  10.434 -1.3837  3.3785  0.2222
   86SAPS   C26 8191   5.907   1.374  10.229 -0.7835  0.3641 -0.2527
   86SAPS   H6R 8192   5.808   1.328  10.244 -0.2987 -1.0706 -1.2030
   86SAPS   C27 8193   5.932   1.395  10.084 -0.1673  0.2568 -0.3797
   86SAPS   H7R 8194   6.039   1.418  10.068  0.0611 -0.1817  0.4071
   86SAPS   H7S 8195   5.869   1.480  10.049  2.1034  0.9492 -3.0996
   86SAPS   C28 8196   5.897   1.278  10.010 -0.1667 -0.1218  0.0470
   86SAPS   H8R 8197   5.881   1.183  10.065 -0.2888  0.4465  1.0147
   86SAPS   C29 8198   5.883   1.274   9.878  0.4159 -0.9325  0.2733
   86SAPS   H9R 8199   5.857   1.179   9.829  2.6417 -1.7662  0.5870
   86SAPS  C210 8200   5.901   1.391   9.776  0.2019 -0.0738 -0.1300
   86SAPS  H10R 8201   5.947   1.482   9.818 -0.9848 -0.5212  2.3229
   86SAPS  H10S 8202   5.806   1.418   9.724  0.6457 -0.2147 -1.0485
   86SAPS  C211 8203   5.992   1.334   9.666  1.1423 -0.5164 -0.1522
   86SAPS  H11R 8204   6.044   1.241   9.690  0.0801 -1.6211 -1.8653
   86SAPS  C212 8205   6.010   1.366   9.533  0.1803  0.0946 -0.7527
   86SAPS  H12R 8206   6.094   1.320   9.479 -0.9725 -3.1469  0.0070
   86SAPS  C213 8207   5.938   1.479   9.467 -0.2842  0.3420  0.1387
   86SAPS  H13R 8208   5.993   1.575   9.478 -1.4702  1.3248 -2.0357
   86SAPS  H13S 8209   5.841   1.506   9.514  0.6458  2.0028  1.2060
   86SAPS  C214 8210   5.942   1.447   9.316  0.5249 -0.1960  0.8197
   86SAPS  H14R 8211   6.045   1.434   9.278  0.5376  0.9692  0.4213
   86SAPS  C215 8212   5.833   1.458   9.231 -0.2065  0.1462 -0.1769
   86SAPS  H15R 8213   5.844   1.441   9.123 -2.9064 -1.3817 -0.2872
   86SAPS  C216 8214   5.698   1.498   9.269 -0.0200 -0.0864  0.0785
   86SAPS  H16R 8215   5.684   1.602   9.233 -1.8870 -1.0102 -2.0915
   86SAPS  H16S 8216   5.667   1.488   9.376 -3.1557  3.4580 -0.2727
   86SAPS  C217 8217   5.586   1.425   9.191 -0.0247  0.1627 -0.1935
   86SAPS  H17R 8218   5.491   1.481   9.210  0.0353 -0.3275  1.6910
   86SAPS  H17S 8219   5.570   1.329   9.244  0.2887  0.1445 -0.1341
   86SAPS  C218 8220   5.595   1.407   9.041 -0.5037 -0.1261 -0.0711
   86SAPS  H18R 8221   5.672   1.328   9.024  0.6961  0.5756  1.8504
   86SAPS  H18S 8222   5.635   1.496   8.989  1.4935 -0.6825  0.4218
   86SAPS  C219 8223   5.465   1.367   8.975 -0.3939  0.0644  0.5172
   86SAPS  H19R 8224   5.381   1.436   8.997  0.7305  1.0391  1.9386
   86SAPS  H19S 8225   5.440   1.272   9.026 -3.1177 -0.1078 -0.9206
   86SAPS  C220 8226   5.481   1.333   8.833 -0.2937 -0.4400 -0.9058
   86SAPS  H20R 8227   5.386   1.297   8.789  1.0794 -2.7088 -2.2548
   86SAPS  H20S 8228   5.548   1.244   8.825  0.6066  0.2735 -1.6476
   86SAPS  H20T 8229   5.511   1.413   8.761  0.0662 -1.6913 -2.2118
   86SAPS   C33 8230   5.904   1.808  10.043  0.1038 -0.6786  0.4042
   86SAPS   H3X 8231   5.991   1.740  10.033 -0.2077 -0.9683 -0.5038
   86SAPS   H3Y 8232   5.935   1.914  10.045 -2.3979  0.4374 -4.0541
   86SAPS   C34 8233   5.819   1.801   9.917  0.1467  0.6580  0.1261
   86SAPS   H4X 8234   5.726   1.860   9.922 -0.8300 -0.9169  1.9322
   86SAPS   H4Y 8235   5.787   1.696   9.899  1.1760 -0.0755  2.2694
   86SAPS   C35 8236   5.899   1.840   9.795  0.1794  0.2104 -0.1712
   86SAPS   H5X 8237   5.982   1.766   9.787  0.4126  0.4633 -0.0907
   86SAPS   H5Y 8238   5.927   1.947   9.806 -0.6764  0.3722  0.4963
   86SAPS   C36 8239   5.816   1.821   9.674  0.3529 -0.8020  0.6425
   86SAPS   H6X 8240   5.721   1.875   9.693  0.3003 -0.2920 -0.9522
   86SAPS   H6Y 8241   5.800   1.717   9.638 -2.4905 -0.4399  0.6430
   86SAPS   C37 8242   5.884   1.901   9.559  0.0009 -1.0059 -0.7194
   86SAPS   H7X 8243   5.993   1.876   9.554 -0.2988 -2.4442 -0.4091
   86SAPS   H7Y 8244   5.864   2.007   9.584  1.4801 -0.3702 -2.0003
   86SAPS   C38 8245   5.822   1.873   9.423  0.1613  0.5291 -0.5203
   86SAPS   H8X 8246   5.711   1.879   9.424  0.1008 -0.6814  0.4719
   86SAPS   H8Y 8247   5.857   1.773   9.390  2.7714  1.0946  0.3853
   86SAPS   C39 8248   5.877   1.962   9.313  0.1242 -0.0851 -1.4474
   86SAPS   H9X 8249   5.987   1.970   9.327  0.0814 -0.3814 -0.8909
   86SAPS   H9Y 8250   5.824   2.059   9.325 -1.5184 -1.1946  1.3869
   86SAPS  C310 8251   5.847   1.909   9.173 -0.0429  0.0663 -0.0627
   86SAPS  H10X 8252   5.841   1.995   9.102 -0.4373 -0.3977 -0.5997
   86SAPS  H10Y 8253   5.745   1.865   9.175 -0.1418  0.2412  2.8978
   86SAPS  C311 8254   5.940   1.799   9.123  0.1310 -0.2063 -0.3685
   86SAPS  H11X 8255   5.950   1.724   9.205  0.8119  2.1058  1.7921
   86SAPS  H11Y 8256   6.045   1.835   9.118 -0.5973  2.2885  0.6729
   86SAPS  C312 8257   5.887   1.735   8.996 -0.1713  0.0205 -0.2352
   86SAPS  H12X 8258   5.877   1.804   8.909 -1.4284  0.5671  0.3271
   86SAPS  H12Y 8259   5.798   1.677   9.026  2.2986 -3.6717  0.6998
   86SAPS  C313 8260   5.982   1.627   8.948 -0.3617 -0.2968 -0.4547
   86SAPS  H13X 8261   6.008   1.554   9.028  0.9276  0.9873  0.3381
   86SAPS  H13Y 8262   6.081   1.662   8.909 -0.0367 -0.4682  0.2048
   86SAPS  C314 8263   5.916   1.548   8.832 -0.3747  0.5807  0.4342
   86SAPS  H14X 8264   5.824   1.494   8.865 -0.8722  1.1346 -0.0160
   86SAPS  H14Y 8265   5.993   1.478   8.794  0.2506  0.7839  1.2903
   86SAPS  C315 8266   5.878   1.631   8.711  0.7207  0.7074 -0.1137
   86SAPS  H15X 8267   5.950   1.716   8.708  0.4452  0.9112 -2.4459
   86SAPS  H15Y 8268   5.784   1.689   8.722 -0.3801 -1.1055  0.3800
   86SAPS  C316 8269   5.867   1.547   8.587 -0.5781 -0.8568 -0.4195
   86SAPS  H16X 8270   5.794   1.466   8.608  1.2266 -2.0245  1.7409
   86SAPS  H16Y 8271   5.962   1.491   8.570  0.6023  0.0605  2.5255
   86SAPS  C317 8272   5.811   1.617   8.461 -0.5620  0.1187 -0.1586
   86SAPS  H17X 8273   5.877   1.698   8.423  0.0150 -0.6286 -0.7871
   86SAPS  H17Y 8274   5.715   1.669   8.485 -0.5506  1.5186 -2.7443
   86SAPS  C318 8275   5.768   1.526   8.342 -0.6016  0.4267  0.1703
   86SAPS  H18X 8276   5.856   1.483   8.288 -1.3908 -0.5985 -0.3430
   86SAPS  H18Y 8277   5.710   1.594   8.277 -2.8803  2.2568  3.7877
   86SAPS  H18Z 8278   5.703   1.443   8.377 -0.1882 -0.2253 -0.5616
   87SAPS     N 8279   3.165   1.502  11.185  0.0801  0.2450  0.2516
   87SAPS   HN1 8280   3.146   1.497  11.083  0.2903 -1.5870  0.2602
   87SAPS   HN2 8281   3.114   1.417  11.218  0.8722 -0.0212  0.8378
   87SAPS   HN3 8282   3.102   1.575  11.224  0.3715  0.4979  0.2520
   87SAPS   C12 8283   3.307   1.540  11.226 -0.0560  0.4877 -0.5081
   87SAPS  H12A 8284   3.347   1.608  11.152  1.1520 -0.7564 -1.0361
   87SAPS   C13 8285   3.311   1.615  11.357  0.6794  0.3431 -0.2894
   87SAPS  O13A 8286   3.205   1.639  11.419 -0.2095  0.7576  0.4416
   87SAPS  O13B 8287   3.421   1.656  11.396  0.0511 -0.0831 -0.3457
   87SAPS   C11 8288   3.395   1.407  11.223 -0.1500 -0.1262 -0.4920
   87SAPS  H11A 8289   3.363   1.339  11.305 -1.6612  1.1950  0.0637
   87SAPS  H11B 8290   3.496   1.438  11.258 -0.6170  2.1117 -0.9888
   87SAPS     P 8291   3.480   1.225  11.062 -0.0152 -0.5960 -0.3444
   87SAPS   O13 8292   3.609   1.273  11.012 -0.0444  0.0080 -0.0684
   87SAPS   O14 8293   3.480   1.135  11.181 -0.1113 -0.0168 -0.0599
   87SAPS   O12 8294   3.397   1.348  11.089  0.1482 -0.0364  0.0320
   87SAPS   O11 8295   3.414   1.158  10.937  0.0019  0.8480  0.3243
   87SAPS    C1 8296   3.383   1.226  10.821 -0.4837 -0.5417  0.3677
   87SAPS    HA 8297   3.279   1.211  10.785 -1.0922 -1.3381  2.3118
   87SAPS    HB 8298   3.399   1.336  10.825  1.4466 -0.7282 -1.0906
   87SAPS    C2 8299   3.476   1.175  10.710  0.0868  0.0104 -0.7642
   87SAPS    HS 8300   3.576   1.201  10.749 -0.7153  1.4749  0.3993
   87SAPS   O21 8301   3.428   1.242  10.594 -0.2432  0.0826  0.1151
   87SAPS   C21 8302   3.528   1.310  10.532 -0.2227 -0.5457 -0.1577
   87SAPS   O22 8303   3.641   1.315  10.570 -0.4608 -0.5721  0.1211
   87SAPS   C22 8304   3.482   1.363  10.398  0.0922  0.7015 -0.0042
   87SAPS   H2R 8305   3.380   1.325  10.379 -0.0376  0.8576  0.3851
   87SAPS   H2S 8306   3.471   1.473  10.409 -2.9148  0.3414  1.3748
   87SAPS    C3 8307   3.462   1.014  10.699 -0.1134 -0.0776  0.2714
   87SAPS    HX 8308   3.378   0.986  10.632  1.0013 -2.3635 -0.2520
   87SAPS    HY 8309   3.437   0.961  10.793  0.7375  1.9063  1.6896
   87SAPS   O31 8310   3.583   0.958  10.650  0.4644  0.2325 -0.1453
   87SAPS   C31 8311   3.592   0.898  10.538  0.3395  0.2598  0.5389
   87SAPS   O32 8312   3.497   0.872  10.464  0.7107 -0.6024  0.2913
   87SAPS   C32 8313   3.732   0.848  10.501 -0.7718  0.0008 -0.6635
   87SAPS   H2X 8314   3.766   0.788  10.588 -0.7217  0.1396 -0.5862
   87SAPS   H2Y 8315   3.802   0.935  10.497 -0.1085 -0.1365  3.5687
   87SAPS   C23 8316   3.569   1.339  10.276 -0.5358 -0.2532  0.1588
   87SAPS   H3R 8317   3.675   1.363  10.301 -0.2712 -1.4727  0.2430
   87SAPS   H3S 8318   3.537   1.401  10.190 -0.1761  0.0855  0.2642
   87SAPS   C24 8319   3.597   1.191  10.250  0.1008  0.4306 -0.5486
   87SAPS   H4R 8320   3.634   1.157  10.349  0.7059  0.1967 -0.8501
   87SAPS   H4S 8321   3.684   1.192  10.181  0.2204 -2.9064 -0.6349
   87SAPS   C25 8322   3.473   1.127  10.200  0.1224 -0.1541 -0.0584
   87SAPS   H5R 8323   3.414   1.077  10.279 -1.5727 -0.3917 -1.4076
   87SAPS   C26 8324   3.434   1.112  10.070  0.7022 -0.5824  0.7152
   87SAPS   H6R 8325   3.344   1.052  10.056 -0.3064  1.2480 -1.2160
   87SAPS   C27 8326   3.513   1.165   9.948  0.0336  0.1243  0.0113
   87SAPS   H7R 8327   3.619   1.184   9.977 -0.1259  0.6903  0.2445
   87SAPS   H7S 8328   3.478   1.266   9.918  0.8908  0.1736 -0.8610
   87SAPS   C28 8329   3.504   1.066   9.836 -0.1127 -0.1903  1.0984
   87SAPS   H8R 8330   3.532   0.961   9.854  1.2986  0.1271  0.8109
   87SAPS   C29 8331   3.458   1.095   9.712  0.4249 -0.2550 -0.0567
   87SAPS   H9R 8332   3.458   1.021   9.631  0.5978 -0.0235 -0.2692
   87SAPS  C210 8333   3.407   1.230   9.655  0.2732  0.1341 -0.0285
   87SAPS  H10R 8334   3.474   1.270   9.575 -0.1080  3.3905  1.1502
   87SAPS  H10S 8335   3.421   1.310   9.731  0.5858 -0.0244  0.0807
   87SAPS  C211 8336   3.263   1.205   9.613  0.3073 -0.4503 -0.1145
   87SAPS  H11R 8337   3.190   1.207   9.695  0.4880  1.6804  0.0556
   87SAPS  C212 8338   3.227   1.186   9.485  0.6173 -0.0520  0.6085
   87SAPS  H12R 8339   3.119   1.182   9.464  0.5895 -0.4600  0.8240
   87SAPS  C213 8340   3.310   1.194   9.366  0.2512  0.1879  0.2682
   87SAPS  H13R 8341   3.408   1.145   9.385 -0.0641 -0.8894 -0.7291
   87SAPS  H13S 8342   3.329   1.299   9.335 -0.5314  0.2903  0.1104
   87SAPS  C214 8343   3.242   1.135   9.247  0.8723  0.2692  0.4152
   87SAPS  H14R 8344   3.151   1.187   9.212  0.9038  0.1044  0.0918
   87SAPS  C215 8345   3.300   1.035   9.176  0.4226 -0.0071  0.3233
   87SAPS  H15R 8346   3.242   0.991   9.093  0.3807 -0.1942  0.4494
   87SAPS  C216 8347   3.427   0.961   9.192  0.4442  0.3856  0.2965
   87SAPS  H16R 8348   3.400   0.855   9.211 -0.4190  0.6503  0.5952
   87SAPS  H16S 8349   3.500   0.997   9.267  0.6943  0.8306 -0.1551
   87SAPS  C217 8350   3.527   0.985   9.074 -0.6761 -0.2886  0.4096
   87SAPS  H17R 8351   3.625   0.938   9.100 -0.2932 -0.0513 -0.5734
   87SAPS  H17S 8352   3.547   1.094   9.066  0.0851 -0.3304  1.4529
   87SAPS  C218 8353   3.471   0.939   8.935  0.0372  0.3210 -1.0851
   87SAPS  H18R 8354   3.380   0.997   8.909  0.8712  1.3143 -1.8924
   87SAPS  H18S 8355   3.438   0.833   8.941 -1.3298  0.7717 -0.2904
   87SAPS  C219 8356   3.566   0.971   8.819 -0.3568  0.7692  0.3432
   87SAPS  H19R 8357   3.658   0.915   8.847 -1.3714 -0.2894  1.7035
   87SAPS  H19S 8358   3.591   1.078   8.837 -2.8930  1.5254 -0.2363
   87SAPS  C220 8359   3.511   0.941   8.679  0.2048  0.1760  0.1900
   87SAPS  H20R 8360   3.579   0.925   8.593  1.2559  4.3783  0.0189
   87SAPS  H20S 8361   3.479   1.038   8.633 -1.4302 -0.4334 -0.0325
   87SAPS  H20T 8362   3.424   0.872   8.676 -0.3764  0.9198 -0.4477
   87SAPS   C33 8363   3.731   0.774  10.363  0.3873  0.2953 -0.1158
   87SAPS   H3X 8364   3.665   0.829  10.292  1.4523 -0.8613 -2.0971
   87SAPS   H3Y 8365   3.688   0.672  10.368  0.3841 -0.0326 -3.9295
   87SAPS   C34 8366   3.873   0.765  10.298  0.2394 -0.2525  0.4480
   87SAPS   H4X 8367   3.927   0.674  10.331  1.5535  0.0993 -0.6164
   87SAPS   H4Y 8368   3.934   0.857  10.316  0.7751 -0.7254  1.1359
   87SAPS   C35 8369   3.850   0.753  10.144 -0.3545  0.3408 -1.0158
   87SAPS   H5X 8370   3.796   0.841  10.104 -0.0476  0.5306 -1.0158
   87SAPS   H5Y 8371   3.799   0.654  10.146  0.3517 -0.0437 -1.6732
   87SAPS   C36 8372   3.978   0.754  10.064  0.2988  0.7574  0.4406
   87SAPS   H6X 8373   4.039   0.670  10.104 -1.1025 -0.7151 -0.4175
   87SAPS   H6Y 8374   4.041   0.845  10.076  1.5670 -0.3430  2.8881
   87SAPS   C37 8375   3.961   0.721   9.919  0.4230 -0.0033  0.3419
   87SAPS   H7X 8376   3.909   0.623   9.910 -0.6121  0.5830 -0.4314
   87SAPS   H7Y 8377   4.060   0.715   9.870  0.0008 -0.8386 -0.4449
   87SAPS   C38 8378   3.872   0.825   9.845 -0.7347 -0.2432  0.2787
   87SAPS   H8X 8379   3.912   0.927   9.861 -0.2910  0.2876 -3.3337
   87SAPS   H8Y 8380   3.767   0.822   9.884 -1.4598  0.8623 -1.4611
   87SAPS   C39 8381   3.848   0.780   9.704  1.3283 -0.2280 -0.1234
   87SAPS   H9X 8382   3.834   0.670   9.698  1.5168 -0.2924  0.5352
   87SAPS   H9Y 8383   3.944   0.810   9.657  0.5344  1.4792 -0.7442
   87SAPS  C310 8384   3.739   0.858   9.626 -0.1484  0.1613  0.5644
   87SAPS  H10X 8385   3.740   0.968   9.643  0.8629 -0.1884  3.3231
   87SAPS  H10Y 8386   3.639   0.813   9.648 -0.3909  0.1856 -0.4468
   87SAPS  C311 8387   3.759   0.823   9.474  0.1411 -0.4306 -0.3684
   87SAPS  H11X 8388   3.865   0.854   9.458  0.8033 -0.6664  2.7694
   87SAPS  H11Y 8389   3.687   0.890   9.423  2.2771  2.4755  0.1248
   87SAPS  C312 8390   3.739   0.668   9.431  0.1595  0.0332  0.0110
   87SAPS  H12X 8391   3.645   0.660   9.371 -0.8360 -1.1389  1.6530
   87SAPS  H12Y 8392   3.727   0.614   9.527 -1.9813 -0.6826 -0.6071
   87SAPS  C313 8393   3.856   0.610   9.361 -0.7976  0.0073  1.1574
   87SAPS  H13X 8394   3.847   0.499   9.354  0.1954  0.0206 -1.5740
   87SAPS  H13Y 8395   3.955   0.622   9.411  0.9244 -0.5316 -1.8364
   87SAPS  C314 8396   3.873   0.658   9.217  0.4210 -0.1503  0.5174
   87SAPS  H14X 8397   3.896   0.766   9.232 -4.1321  0.9132  1.5333
   87SAPS  H14Y 8398   3.785   0.664   9.149 -0.1104 -1.7543  1.0129
   87SAPS  C315 8399   3.995   0.599   9.139 -0.2522 -0.3284  0.8392
   87SAPS  H15X 8400   4.062   0.564   9.221 -0.2240  0.3806  1.1252
   87SAPS  H15Y 8401   4.040   0.680   9.077 -1.0857 -0.2502  0.3232
   87SAPS  C316 8402   3.949   0.482   9.043  0.0375 -0.4995 -0.0206
   87SAPS  H16X 8403   3.880   0.525   8.967  0.4536 -0.0948 -0.1749
   87SAPS  H16Y 8404   3.881   0.409   9.093 -1.6657  1.3519  0.5319
   87SAPS  C317 8405   4.066   0.401   8.980 -0.1761  0.3099  0.3016
   87SAPS  H17X 8406   4.118   0.331   9.049 -0.0717  2.5476  2.6325
   87SAPS  H17Y 8407   4.150   0.474   8.972  0.7177 -0.1241  3.9865
   87SAPS  C318 8408   4.025   0.345   8.840 -0.2553  0.8501  0.5553
   87SAPS  H18X 8409   4.118   0.321   8.783  0.8901 -0.1828  2.7441
   87SAPS  H18Y 8410   3.955   0.415   8.789  0.2414  0.4311 -0.7471
   87SAPS  H18Z 8411   3.966   0.252   8.858 -0.4169  0.2962 -2.3148
   88SAPS     N 8412   6.507   0.678  10.979  0.3572 -0.1928 -0.5127
   88SAPS   HN1 8413   6.587   0.619  10.949  0.7607 -0.1195  0.3783
   88SAPS   HN2 8414   6.438   0.674  10.901  2.0516  0.2062 -2.0947
   88SAPS   HN3 8415   6.548   0.772  10.993 -2.7127  1.4007 -1.3864
   88SAPS   C12 8416   6.446   0.633  11.108  0.8427 -0.7449  0.0902
   88SAPS  H12A 8417   6.530   0.604  11.169  0.6959  0.3591  0.8427
   88SAPS   C13 8418   6.381   0.761  11.174  0.5391 -0.3380  0.3982
   88SAPS  O13A 8419   6.377   0.872  11.117  1.3175  0.1296  0.2425
   88SAPS  O13B 8420   6.320   0.743  11.284 -0.4701 -0.0013  0.0199
   88SAPS   C11 8421   6.338   0.533  11.067 -1.2062  0.0417 -0.2189
   88SAPS  H11A 8422   6.259   0.506  11.141  0.0627 -2.3409  0.3565
   88SAPS  H11B 8423   6.396   0.440  11.049 -2.6538 -0.8474 -0.4631
   88SAPS     P 8424   6.155   0.485  10.882 -0.4959  0.1655 -0.3362
   88SAPS   O13 8425   6.170   0.349  10.930  0.6193  0.2984  0.2084
   88SAPS   O14 8426   6.023   0.550  10.906 -0.6490  0.0551  0.5672
   88SAPS   O12 8427   6.273   0.573  10.941  0.9017 -0.1462 -0.5623
   88SAPS   O11 8428   6.205   0.494  10.727 -0.0591 -0.2532 -0.6158
   88SAPS    C1 8429   6.119   0.498  10.615  0.2889 -0.4064  0.3590
   88SAPS    HA 8430   6.021   0.455  10.648 -0.2977  2.8896  3.6036
   88SAPS    HB 8431   6.104   0.603  10.583  1.4871  0.1626  1.5794
   88SAPS    C2 8432   6.186   0.432  10.491 -0.4396  0.3948  0.0899
   88SAPS    HS 8433   6.222   0.330  10.514  0.5795  0.5785 -0.6211
   88SAPS   O21 8434   6.300   0.511  10.455 -0.6230 -0.3875 -0.6296
   88SAPS   C21 8435   6.394   0.445  10.395  0.3621  0.2580 -0.1513
   88SAPS   O22 8436   6.397   0.324  10.375 -0.6927  0.0991  0.3124
   88SAPS   C22 8437   6.510   0.545  10.373  0.6189 -0.0610 -0.2990
   88SAPS   H2R 8438   6.530   0.594  10.470  0.2867 -0.6561  0.0759
   88SAPS   H2S 8439   6.594   0.476  10.348  0.4881 -0.0484 -0.7916
   88SAPS    C3 8440   6.083   0.429  10.372  0.2403  0.2555  0.5048
   88SAPS    HX 8441   6.047   0.532  10.352  0.9184  1.1750  3.5078
   88SAPS    HY 8442   5.992   0.380  10.411 -0.5268  2.5531  1.8219
   88SAPS   O31 8443   6.142   0.375  10.253  0.0103 -0.6980  0.2690
   88SAPS   C31 8444   6.103   0.254  10.217 -0.1638 -0.0326  0.5275
   88SAPS   O32 8445   6.009   0.192  10.267 -0.0866 -0.1535  0.0878
   88SAPS   C32 8446   6.176   0.201  10.094 -0.6228  0.3791 -0.5625
   88SAPS   H2X 8447   6.259   0.150  10.149 -2.6851 -1.5710  0.9183
   88SAPS   H2Y 8448   6.213   0.292  10.041 -1.4508  0.5508 -0.8542
   88SAPS   C23 8449   6.485   0.655  10.275  0.0701 -0.0825  0.3681
   88SAPS   H3R 8450   6.548   0.741  10.305 -0.8568  0.2724  1.3401
   88SAPS   H3S 8451   6.379   0.682  10.296 -0.1834 -1.3824  0.8417
   88SAPS   C24 8452   6.514   0.618  10.128 -0.0008 -0.1213 -0.1434
   88SAPS   H4R 8453   6.620   0.583  10.124  0.3325  0.8581 -0.1907
   88SAPS   H4S 8454   6.510   0.709  10.064  0.5127  0.2530  0.3473
   88SAPS   C25 8455   6.422   0.523  10.060 -0.5687  0.4634  0.5783
   88SAPS   H5R 8456   6.322   0.524  10.105 -0.8441  1.4667 -0.0196
   88SAPS   C26 8457   6.450   0.438   9.955  0.1962 -0.0430 -0.0116
   88SAPS   H6R 8458   6.383   0.363   9.912  2.8337 -2.3482 -0.3780
   88SAPS   C27 8459   6.595   0.431   9.902 -0.7629  0.2078 -0.0802
   88SAPS   H7R 8460   6.629   0.329   9.931 -0.6823  0.7632  1.9569
   88SAPS   H7S 8461   6.671   0.495   9.951  0.5871 -2.2991  1.2934
   88SAPS   C28 8462   6.610   0.436   9.755 -0.7898 -0.0881  0.2248
   88SAPS   H8R 8463   6.692   0.504   9.726  2.5658 -4.0111 -0.4804
   88SAPS   C29 8464   6.573   0.346   9.665  0.2733 -0.2828  0.4556
   88SAPS   H9R 8465   6.612   0.367   9.564  1.2621 -1.7600  0.4952
   88SAPS  C210 8466   6.505   0.213   9.682  0.1081 -0.7223  0.2949
   88SAPS  H10R 8467   6.472   0.179   9.582 -0.8424  0.6470  0.1125
   88SAPS  H10S 8468   6.410   0.230   9.737  0.9455 -0.6713  1.7919
   88SAPS  C211 8469   6.581   0.110   9.760  0.0155  0.4060  0.1337
   88SAPS  H11R 8470   6.624   0.158   9.850  2.7920 -1.0284 -0.3238
   88SAPS  C212 8471   6.622  -0.020   9.738  0.6087 -0.4653 -0.7002
   88SAPS  H12R 8472   6.678  -0.072   9.816 -1.4590 -1.7961 -0.0189
   88SAPS  C213 8473   6.577  -0.092   9.614  0.3082 -0.3617  0.1223
   88SAPS  H13R 8474   6.481  -0.056   9.572  0.5832 -0.7802 -0.9062
   88SAPS  H13S 8475   6.546  -0.193   9.647 -1.3838 -0.0171 -0.3295
   88SAPS  C214 8476   6.686  -0.098   9.507 -0.5678  0.0767 -0.2934
   88SAPS  H14R 8477   6.778  -0.158   9.521  0.8376  2.1044 -0.4169
   88SAPS  C215 8478   6.679  -0.047   9.385  0.0403 -0.5111  0.9843
   88SAPS  H15R 8479   6.760  -0.064   9.313 -0.7359 -0.5668  0.1112
   88SAPS  C216 8480   6.566   0.032   9.317 -0.7034  0.3397 -0.0387
   88SAPS  H16R 8481   6.471   0.029   9.374 -0.7822  1.6158 -0.0839
   88SAPS  H16S 8482   6.551  -0.003   9.213  3.1502 -0.2960 -0.5320
   88SAPS  C217 8483   6.613   0.176   9.292 -0.3518  0.2412 -0.2847
   88SAPS  H17R 8484   6.711   0.174   9.240 -0.0420  0.2909  0.2828
   88SAPS  H17S 8485   6.639   0.221   9.391 -1.2069 -1.6243  0.8578
   88SAPS  C218 8486   6.508   0.267   9.225  0.8450 -0.2120  0.2343
   88SAPS  H18R 8487   6.549   0.370   9.232 -1.3606  0.8370 -1.2492
   88SAPS  H18S 8488   6.417   0.255   9.288  0.4510  1.9987  0.1693
   88SAPS  C219 8489   6.475   0.235   9.086  0.7334 -0.5797  0.2118
   88SAPS  H19R 8490   6.389   0.295   9.052 -0.2969 -1.1474  1.6861
   88SAPS  H19S 8491   6.438   0.130   9.082 -0.8345 -0.0350 -0.0291
   88SAPS  C220 8492   6.592   0.259   8.980 -0.3380  0.3219 -0.4599
   88SAPS  H20R 8493   6.563   0.242   8.875 -2.5615  1.2830 -0.0487
   88SAPS  H20S 8494   6.682   0.194   8.992 -0.0753  0.6507 -0.6211
   88SAPS  H20T 8495   6.626   0.365   8.985  2.1240 -0.3110 -2.0342
   88SAPS   C33 8496   6.099   0.097  10.014 -0.2438 -0.3639 -1.4949
   88SAPS   H3X 8497   6.008   0.154   9.985 -0.3920  1.5612  2.0932
   88SAPS   H3Y 8498   6.075   0.010  10.078 -1.5144  1.4192  0.6240
   88SAPS   C34 8499   6.184   0.059   9.892  0.2958 -0.0825  0.4358
   88SAPS   H4X 8500   6.279   0.007   9.917 -0.2083 -1.5453 -0.5655
   88SAPS   H4Y 8501   6.220   0.156   9.852 -1.1007 -0.2783 -1.4062
   88SAPS   C35 8502   6.112  -0.019   9.779  0.0523  0.1550 -0.2423
   88SAPS   H5X 8503   6.017   0.033   9.755 -0.2629 -1.0687 -1.8243
   88SAPS   H5Y 8504   6.075  -0.111   9.828  3.3527 -0.9672  0.3907
   88SAPS   C36 8505   6.178  -0.026   9.642  0.1532 -0.1654 -0.1681
   88SAPS   H6X 8506   6.271  -0.086   9.647  0.9789  1.0346 -0.7250
   88SAPS   H6Y 8507   6.206   0.078   9.614  2.3726 -0.5670  0.4050
   88SAPS   C37 8508   6.079  -0.086   9.543  0.2816 -0.5778 -0.9453
   88SAPS   H7X 8509   5.986  -0.026   9.537  0.4498 -0.4257 -2.3720
   88SAPS   H7Y 8510   6.054  -0.192   9.569 -1.0963 -0.0187  0.1685
   88SAPS   C38 8511   6.144  -0.096   9.398  0.0065 -0.2299 -0.3052
   88SAPS   H8X 8512   6.246  -0.139   9.402 -0.4973 -1.5317 -1.0942
   88SAPS   H8Y 8513   6.170   0.007   9.364 -1.3502  0.6617  1.1710
   88SAPS   C39 8514   6.059  -0.163   9.292  0.1893  0.2925 -0.6521
   88SAPS   H9X 8515   5.964  -0.106   9.296  0.7205  1.1229  1.8170
   88SAPS   H9Y 8516   6.029  -0.261   9.333  0.5739  1.3632  2.4755
   88SAPS  C310 8517   6.127  -0.166   9.158 -0.2150 -0.2648  0.2048
   88SAPS  H10X 8518   6.233  -0.201   9.155  0.2902  1.2096 -0.3298
   88SAPS  H10Y 8519   6.129  -0.057   9.139 -0.5463 -0.4241 -0.7881
   88SAPS  C311 8520   6.042  -0.233   9.052  0.2632  0.7775  0.3439
   88SAPS  H11X 8521   5.942  -0.186   9.061 -0.1863 -0.1103  0.0750
   88SAPS  H11Y 8522   6.028  -0.342   9.064 -1.1750  0.6747 -1.7937
   88SAPS  C312 8523   6.098  -0.223   8.909  0.1627 -0.2890 -0.1779
   88SAPS  H12X 8524   6.184  -0.292   8.899  1.2225  1.1659 -1.5226
   88SAPS  H12Y 8525   6.115  -0.118   8.877  1.1395 -0.2982  0.2901
   88SAPS  C313 8526   6.006  -0.266   8.794 -0.4285  0.1420 -0.2768
   88SAPS  H13X 8527   5.939  -0.178   8.784  0.5316  0.7329 -1.7480
   88SAPS  H13Y 8528   5.945  -0.348   8.837  1.1637 -1.0454 -0.1905
   88SAPS  C314 8529   6.086  -0.301   8.666  0.3562  0.0573  0.0069
   88SAPS  H14X 8530   6.165  -0.223   8.653  0.1439 -0.0094 -1.9330
   88SAPS  H14Y 8531   6.014  -0.296   8.582  0.7247 -0.3244 -0.3334
   88SAPS  C315 8532   6.155  -0.440   8.658 -0.1131 -0.6223 -0.6450
   88SAPS  H15X 8533   6.082  -0.499   8.718 -2.3512  2.3323 -0.2029
   88SAPS  H15Y 8534   6.251  -0.431   8.714 -0.2034  0.6815 -0.6530
   88SAPS  C316 8535   6.164  -0.496   8.515  0.0801 -1.0461  0.6146
   88SAPS  H16X 8536   6.214  -0.427   8.444 -1.2275  0.8005  1.4139
   88SAPS  H16Y 8537   6.062  -0.502   8.471  0.7800 -0.1193 -1.2554
   88SAPS  C317 8538   6.224  -0.630   8.511  0.2157 -0.2671  0.1652
   88SAPS  H17X 8539   6.197  -0.682   8.605 -0.8020  1.1710  0.7066
   88SAPS  H17Y 8540   6.335  -0.632   8.502  0.0999 -3.4375 -3.5440
   88SAPS  C318 8541   6.164  -0.717   8.396  0.5221 -0.2077 -0.5672
   88SAPS  H18X 8542   6.059  -0.747   8.416  0.3563  1.2652  1.1057
   88SAPS  H18Y 8543   6.230  -0.804   8.376 -1.0025 -0.8482 -3.2065
   88SAPS  H18Z 8544   6.158  -0.654   8.305  2.9837  1.3725  0.2558
   89SAPS     N 8545   1.361   3.244  10.806 -0.2741 -0.2737 -0.0080
   89SAPS   HN1 8546   1.341   3.345  10.795  1.3198  0.3582  2.2789
   89SAPS   HN2 8547   1.461   3.214  10.808 -0.8243 -2.2990 -0.1019
   89SAPS   HN3 8548   1.340   3.202  10.713  0.5765  1.0270 -0.8193
   89SAPS   C12 8549   1.290   3.157  10.903 -0.1885  0.1123  0.4739
   89SAPS  H12A 8550   1.338   3.063  10.881 -0.7188 -0.1223  0.2926
   89SAPS   C13 8551   1.299   3.192  11.046 -0.3766 -0.1555 -0.0746
   89SAPS  O13A 8552   1.360   3.302  11.078  0.3694 -0.3911  1.0402
   89SAPS  O13B 8553   1.268   3.109  11.136  0.5010  0.3636 -0.1316
   89SAPS   C11 8554   1.143   3.148  10.853  0.6292  0.4342 -0.6111
   89SAPS  H11A 8555   1.087   3.243  10.863 -1.6449 -0.6571 -2.0625
   89SAPS  H11B 8556   1.080   3.074  10.908  0.3911  0.4263 -0.8927
   89SAPS     P 8557   1.018   3.120  10.626  0.4767 -0.6159 -0.1260
   89SAPS   O13 8558   0.958   2.987  10.598 -0.1234 -0.4114  0.3293
   89SAPS   O14 8559   0.932   3.219  10.696  0.4166 -0.4213 -0.0597
   89SAPS   O12 8560   1.149   3.110  10.711 -0.3455 -0.5528 -0.1236
   89SAPS   O11 8561   1.070   3.183  10.488 -0.0415  0.3167 -0.5574
   89SAPS    C1 8562   1.056   3.114  10.362  0.5176 -0.0054 -0.4685
   89SAPS    HA 8563   0.959   3.058  10.366  0.3616  0.3058  0.5181
   89SAPS    HB 8564   1.032   3.183  10.279 -0.8346  1.5759  1.1616
   89SAPS    C2 8565   1.181   3.023  10.346  0.4714 -0.7974  0.1556
   89SAPS    HS 8566   1.216   3.004  10.450  2.2281  1.4798  0.0414
   89SAPS   O21 8567   1.271   3.110  10.276  0.5390 -0.2737  0.1022
   89SAPS   C21 8568   1.395   3.068  10.288 -0.8404 -0.4822  0.1005
   89SAPS   O22 8569   1.435   2.981  10.361  0.3389  0.2998  0.5682
   89SAPS   C22 8570   1.480   3.163  10.201 -0.7425  0.5149 -0.0244
   89SAPS   H2R 8571   1.448   3.269  10.213  1.5643  1.0726  1.7487
   89SAPS   H2S 8572   1.583   3.157  10.241 -0.8109 -1.3528 -0.0371
   89SAPS    C3 8573   1.150   2.880  10.268 -0.1827 -0.0465 -0.0628
   89SAPS    HX 8574   1.061   2.836  10.319 -0.8399  1.1367 -0.1476
   89SAPS    HY 8575   1.241   2.825  10.298 -0.4842  0.0538  1.0985
   89SAPS   O31 8576   1.130   2.888  10.124 -0.7944  0.1639 -0.0396
   89SAPS   C31 8577   1.217   2.821  10.058 -0.6211  0.5678  0.2428
   89SAPS   O32 8578   1.292   2.739  10.104  0.0114 -0.2252 -0.3137
   89SAPS   C32 8579   1.236   2.888   9.919 -0.4854 -0.3205  0.2418
   89SAPS   H2X 8580   1.344   2.912   9.922 -0.4996 -0.3114  1.0442
   89SAPS   H2Y 8581   1.168   2.975   9.907 -0.5285 -0.5079 -0.9443
   89SAPS   C23 8582   1.485   3.117  10.047 -0.4530 -0.2546  0.4812
   89SAPS   H3R 8583   1.385   3.148  10.008 -0.5509 -0.6370  0.4188
   89SAPS   H3S 8584   1.500   3.007  10.050  1.7481  0.0289  2.6351
   89SAPS   C24 8585   1.586   3.194   9.967 -0.0100 -0.7515  0.3085
   89SAPS   H4R 8586   1.684   3.163  10.009 -0.1613 -1.0304  0.4569
   89SAPS   H4S 8587   1.577   3.301   9.995  0.4214 -0.4476 -0.6632
   89SAPS   C25 8588   1.587   3.170   9.815  0.2342  0.1874  0.1103
   89SAPS   H5R 8589   1.572   3.063   9.795 -1.1000  0.7908 -2.5274
   89SAPS   C26 8590   1.627   3.255   9.719  0.9368 -0.3697 -0.1300
   89SAPS   H6R 8591   1.628   3.220   9.614  1.1832 -0.0375 -0.2402
   89SAPS   C27 8592   1.675   3.402   9.707  0.5804  0.0346  0.5254
   89SAPS   H7R 8593   1.782   3.395   9.681  0.7039  0.2185  0.9735
   89SAPS   H7S 8594   1.657   3.459   9.801  1.7563  3.0954 -0.9803
   89SAPS   C28 8595   1.585   3.459   9.600  0.4529  0.5232  0.3254
   89SAPS   H8R 8596   1.480   3.468   9.629  0.1893  0.9650 -0.7197
   89SAPS   C29 8597   1.623   3.496   9.480 -0.0933  0.5947  0.2509
   89SAPS   H9R 8598   1.549   3.546   9.415 -1.0582  1.1169  1.7155
   89SAPS  C210 8599   1.767   3.503   9.417  0.9042 -0.2914  0.3123
   89SAPS  H10R 8600   1.837   3.446   9.482 -1.9549 -2.2219  1.8857
   89SAPS  H10S 8601   1.803   3.608   9.408 -1.8581  0.8129  1.1277
   89SAPS  C211 8602   1.770   3.440   9.283  0.1029 -0.2462 -0.7118
   89SAPS  H11R 8603   1.699   3.356   9.276 -0.4561  0.1160  0.3372
   89SAPS  C212 8604   1.840   3.479   9.176 -0.6684  0.2256  0.2110
   89SAPS  H12R 8605   1.814   3.437   9.078 -1.4394 -0.9120  0.8663
   89SAPS  C213 8606   1.937   3.603   9.170  0.4931  0.3739 -0.3343
   89SAPS  H13R 8607   2.030   3.571   9.220 -1.0101 -0.8565  1.8642
   89SAPS  H13S 8608   1.910   3.697   9.223 -1.4044 -1.1131  1.5477
   89SAPS  C214 8609   1.966   3.636   9.024 -0.2761 -0.4471 -0.2518
   89SAPS  H14R 8610   1.917   3.730   8.995  0.5358 -0.0655 -0.4262
   89SAPS  C215 8611   2.039   3.572   8.935 -1.0305 -0.8719  0.5185
   89SAPS  H15R 8612   2.058   3.627   8.842  1.5705 -1.2698  0.7400
   89SAPS  C216 8613   2.113   3.444   8.952  0.6489  0.2576  0.3648
   89SAPS  H16R 8614   2.073   3.391   9.041 -0.2664  0.9385  0.3704
   89SAPS  H16S 8615   2.224   3.449   8.959  0.8054 -2.0957  0.4945
   89SAPS  C217 8616   2.088   3.339   8.854  0.5296  0.4707  0.4840
   89SAPS  H17R 8617   1.990   3.288   8.856  0.6567 -0.0448 -2.3253
   89SAPS  H17S 8618   2.159   3.254   8.870 -0.5746 -0.1771  2.2138
   89SAPS  C218 8619   2.109   3.367   8.699  0.1487  0.0832  0.0353
   89SAPS  H18R 8620   2.216   3.366   8.671 -0.0055  0.2670 -0.5692
   89SAPS  H18S 8621   2.065   3.464   8.667  2.7276  0.7353 -1.8387
   89SAPS  C219 8622   2.038   3.251   8.617 -0.1851 -0.4154 -0.5047
   89SAPS  H19R 8623   1.931   3.247   8.648 -0.4349  3.2546 -0.4444
   89SAPS  H19S 8624   2.084   3.151   8.628  2.0052  0.2746 -2.6029
   89SAPS  C220 8625   2.038   3.274   8.462 -0.3072 -0.1555  0.2697
   89SAPS  H20R 8626   1.985   3.185   8.420 -2.2200  1.0864 -0.0644
   89SAPS  H20S 8627   2.137   3.278   8.411 -0.5819  0.1037 -0.2586
   89SAPS  H20T 8628   1.991   3.371   8.434 -0.1620 -0.7887 -2.5526
   89SAPS   C33 8629   1.205   2.797   9.799  0.0593  1.1764 -0.4927
   89SAPS   H3X 8630   1.246   2.694   9.810 -0.5586  1.0185  0.4833
   89SAPS   H3Y 8631   1.239   2.847   9.706 -1.2690  0.6307 -1.3036
   89SAPS   C34 8632   1.056   2.779   9.796 -0.3215  0.4805  0.5502
   89SAPS   H4X 8633   1.018   2.878   9.763  0.7293 -0.0937 -2.6590
   89SAPS   H4Y 8634   1.031   2.761   9.903  0.8587  1.6866  1.0515
   89SAPS   C35 8635   1.021   2.675   9.689  0.2252 -0.0834 -0.3633
   89SAPS   H5X 8636   0.912   2.656   9.694  0.4770 -1.2834  1.2725
   89SAPS   H5Y 8637   1.069   2.577   9.712  0.8479  0.1678 -0.5554
   89SAPS   C36 8638   1.046   2.728   9.541  0.5292  0.2417  0.2520
   89SAPS   H6X 8639   1.149   2.708   9.504  0.7474 -0.4688  1.2084
   89SAPS   H6Y 8640   1.014   2.834   9.536  2.6990  1.0314  1.7013
   89SAPS   C37 8641   0.949   2.669   9.446 -0.2582  0.0964 -0.0666
   89SAPS   H7X 8642   0.847   2.699   9.478 -0.7223 -1.6761  0.2171
   89SAPS   H7Y 8643   0.953   2.558   9.450 -3.2683 -0.0982 -0.2573
   89SAPS   C38 8644   0.976   2.722   9.305 -0.5242 -0.0143 -0.6183
   89SAPS   H8X 8645   0.898   2.681   9.237 -0.8128  0.5289 -0.6278
   89SAPS   H8Y 8646   1.077   2.687   9.274 -0.2688 -0.1166  0.3235
   89SAPS   C39 8647   0.979   2.869   9.301  0.1614 -0.6965 -0.4218
   89SAPS   H9X 8648   1.071   2.905   9.352 -1.3562  1.8742  0.7155
   89SAPS   H9Y 8649   0.899   2.904   9.370  0.8207 -1.5519  0.8176
   89SAPS  C310 8650   0.954   2.913   9.158  0.0748 -0.4060 -0.7765
   89SAPS  H10X 8651   0.952   3.024   9.152 -2.4929 -0.3927 -0.8304
   89SAPS  H10Y 8652   0.852   2.877   9.130 -0.3016 -0.3725  0.4935
   89SAPS  C311 8653   1.047   2.858   9.048 -2.0189 -0.6503 -0.0894
   89SAPS  H11X 8654   1.019   2.753   9.025 -0.2889 -1.0497 -0.5745
   89SAPS  H11Y 8655   1.150   2.847   9.088 -2.0932 -0.4139  0.1736
   89SAPS  C312 8656   1.028   2.930   8.914  1.0127  0.3726 -0.1966
   89SAPS  H12X 8657   0.920   2.954   8.911  1.0067  0.6681  1.5898
   89SAPS  H12Y 8658   1.067   2.865   8.833 -1.1545 -1.6608  0.2998
   89SAPS  C313 8659   1.115   3.061   8.917 -0.1090  0.0367 -0.0558
   89SAPS  H13X 8660   1.220   3.035   8.942  0.0479  0.7052  0.0234
   89SAPS  H13Y 8661   1.083   3.129   8.999 -0.9503 -1.3594  0.8149
   89SAPS  C314 8662   1.104   3.146   8.783 -0.7950 -0.1029 -0.2893
   89SAPS  H14X 8663   1.123   3.248   8.821  1.8919 -0.8894  0.7317
   89SAPS  H14Y 8664   1.009   3.149   8.726  0.5179  0.0752 -2.6184
   89SAPS  C315 8665   1.209   3.109   8.684 -0.1803 -0.3116  0.7660
   89SAPS  H15X 8666   1.199   3.004   8.650 -0.6726  0.5377 -1.9105
   89SAPS  H15Y 8667   1.305   3.134   8.735  1.1389 -0.2648 -1.6234
   89SAPS  C316 8668   1.194   3.206   8.566  0.4355  0.1027 -0.2810
   89SAPS  H16X 8669   1.086   3.220   8.545  0.6587  0.3645 -1.3334
   89SAPS  H16Y 8670   1.252   3.158   8.484  0.0044 -1.0607  0.0873
   89SAPS  C317 8671   1.243   3.347   8.594 -0.1767 -0.0207 -0.6459
   89SAPS  H17X 8672   1.353   3.348   8.604 -0.3432  0.5575  1.8988
   89SAPS  H17Y 8673   1.215   3.368   8.700 -0.3920 -2.0049 -0.2832
   89SAPS  C318 8674   1.184   3.464   8.515  0.1366  0.3518 -0.3408
   89SAPS  H18X 8675   1.201   3.567   8.554 -1.5240  1.2411 -1.8158
   89SAPS  H18Y 8676   1.077   3.447   8.493 -0.3306 -0.0937  2.0908
   89SAPS  H18Z 8677   1.241   3.474   8.419  2.2909 -1.6637  0.6280
   90SAPS     N 8678   1.840   3.391  10.823 -0.1676  0.0498 -0.1231
   90SAPS   HN1 8679   1.922   3.407  10.885 -0.1606  0.6290 -0.2732
   90SAPS   HN2 8680   1.752   3.433  10.859  0.1065  0.5431 -0.0161
   90SAPS   HN3 8681   1.844   3.288  10.811  1.0591  0.3055 -2.5058
   90SAPS   C12 8682   1.874   3.450  10.691  0.7607 -0.4161 -0.2963
   90SAPS  H12A 8683   1.798   3.416  10.622  0.5714  2.4811 -1.6814
   90SAPS   C13 8684   1.876   3.600  10.686 -0.4027  0.0007  0.1242
   90SAPS  O13A 8685   1.853   3.664  10.787 -0.4470  0.0155  0.3673
   90SAPS  O13B 8686   1.905   3.660  10.576 -0.6532  0.1695  0.3719
   90SAPS   C11 8687   2.011   3.394  10.635  0.5500  0.0489 -0.6742
   90SAPS  H11A 8688   2.103   3.442  10.673  1.5076 -0.1220 -2.6299
   90SAPS  H11B 8689   1.998   3.408  10.525 -0.9603 -0.8204 -0.6332
   90SAPS     P 8690   1.938   3.135  10.609 -0.1692 -0.2810 -0.1212
   90SAPS   O13 8691   2.005   3.006  10.633 -0.1641 -0.2398 -0.3886
   90SAPS   O14 8692   1.812   3.151  10.680 -0.3192 -0.8421  0.2624
   90SAPS   O12 8693   2.035   3.253  10.651  0.2756 -0.0055 -0.4196
   90SAPS   O11 8694   1.916   3.155  10.452 -0.1716 -0.8180 -0.3212
   90SAPS    C1 8695   2.020   3.169  10.353 -0.0914 -0.2592 -0.0040
   90SAPS    HA 8696   1.979   3.238  10.278  0.0866  1.5533  1.4938
   90SAPS    HB 8697   2.115   3.210  10.395  1.1695 -3.6086  0.8032
   90SAPS    C2 8698   2.062   3.028  10.291 -0.0290 -0.2305  0.0310
   90SAPS    HS 8699   2.080   2.951  10.368  1.4139 -2.1373 -2.0795
   90SAPS   O21 8700   2.180   3.035  10.213 -0.2713 -0.1048  0.0537
   90SAPS   C21 8701   2.297   3.066  10.268  0.0304 -0.0736  0.4244
   90SAPS   O22 8702   2.329   3.059  10.385 -0.1846 -0.7162 -0.7144
   90SAPS   C22 8703   2.387   3.131  10.164  0.3526 -0.4112  0.4187
   90SAPS   H2R 8704   2.487   3.082  10.167 -0.6274 -2.6680 -0.7658
   90SAPS   H2S 8705   2.343   3.105  10.065  0.7125  1.6910 -0.3360
   90SAPS    C3 8706   1.940   2.983  10.200  0.2542  0.4091 -0.1964
   90SAPS    HX 8707   1.853   2.986  10.269 -1.5877  0.1397 -2.3842
   90SAPS    HY 8708   1.958   2.881  10.160  3.5851  1.5245 -1.8509
   90SAPS   O31 8709   1.921   3.085  10.091  0.0832  0.4851 -0.2106
   90SAPS   C31 8710   1.974   3.061   9.972  0.5414  0.7275 -0.4722
   90SAPS   O32 8711   2.042   2.968   9.941 -0.3754 -0.3052  0.8107
   90SAPS   C32 8712   1.952   3.188   9.884 -0.0670  0.1279 -0.3815
   90SAPS   H2X 8713   1.957   3.281   9.945 -2.5776  0.3981 -0.4794
   90SAPS   H2Y 8714   1.855   3.200   9.832 -1.2376 -1.5449  1.3108
   90SAPS   C23 8715   2.397   3.288  10.176 -0.7342  0.6138 -0.6655
   90SAPS   H3R 8716   2.488   3.318  10.119 -0.9234 -2.0428 -2.5587
   90SAPS   H3S 8717   2.404   3.312  10.285  1.5868 -0.6265 -0.4647
   90SAPS   C24 8718   2.280   3.360  10.119  0.0813  0.1543  0.4060
   90SAPS   H4R 8719   2.190   3.325  10.175 -0.5714 -3.0189 -2.3187
   90SAPS   H4S 8720   2.260   3.342  10.011 -0.1102  2.0677  0.0829
   90SAPS   C25 8721   2.290   3.514  10.127 -0.4682  0.3251  0.0767
   90SAPS   H5R 8722   2.382   3.553  10.080  1.2995 -0.5235  2.6037
   90SAPS   C26 8723   2.211   3.603  10.187  0.2272 -0.3359  0.7173
   90SAPS   H6R 8724   2.248   3.707  10.183  0.5250 -0.4267  0.9883
   90SAPS   C27 8725   2.085   3.581  10.271  0.0190  0.9700  0.6270
   90SAPS   H7R 8726   2.108   3.602  10.378 -1.6600 -0.6778  1.3738
   90SAPS   H7S 8727   2.045   3.477  10.270 -1.1917  1.4249 -0.7194
   90SAPS   C28 8728   1.972   3.660  10.216 -0.0527  0.4042  0.2036
   90SAPS   H8R 8729   2.005   3.764  10.201  3.4480 -0.0842  3.1166
   90SAPS   C29 8730   1.842   3.636  10.200 -0.6777  0.5580  0.7416
   90SAPS   H9R 8731   1.777   3.712  10.154  0.4537 -0.3807 -2.7373
   90SAPS  C210 8732   1.771   3.502  10.230  0.0144 -0.5644  0.2703
   90SAPS  H10R 8733   1.838   3.423  10.270  1.4866  0.1357 -0.6906
   90SAPS  H10S 8734   1.755   3.462  10.127  1.8727 -0.1265 -0.2442
   90SAPS  C211 8735   1.640   3.508  10.297  0.7863  0.2865 -0.5958
   90SAPS  H11R 8736   1.641   3.449  10.391 -0.3307  1.2501  0.0547
   90SAPS  C212 8737   1.522   3.568  10.258  0.5486 -0.0604  0.0294
   90SAPS  H12R 8738   1.433   3.548  10.319  1.5176  3.6332  2.9831
   90SAPS  C213 8739   1.496   3.645  10.135  0.3011  0.2129  0.0810
   90SAPS  H13R 8740   1.498   3.573  10.050  0.8823  0.0993  0.1920
   90SAPS  H13S 8741   1.582   3.711  10.110  1.7145 -1.6670 -0.2259
   90SAPS  C214 8742   1.377   3.742  10.135 -0.4666  0.4064 -0.1850
   90SAPS  H14R 8743   1.320   3.761  10.228  1.8181  2.6154  0.8844
   90SAPS  C215 8744   1.345   3.812  10.027  0.7580 -0.4268 -0.5590
   90SAPS  H15R 8745   1.259   3.880  10.027  2.5555  2.0411 -2.7178
   90SAPS  C216 8746   1.403   3.804   9.891 -0.5740  0.0584 -0.2013
   90SAPS  H16R 8747   1.440   3.702   9.865 -1.3864  0.0548 -1.3940
   90SAPS  H16S 8748   1.487   3.876   9.877  0.1905 -0.6812  0.4648
   90SAPS  C217 8749   1.297   3.822   9.772  0.4944  0.0730 -0.6416
   90SAPS  H17R 8750   1.290   3.931   9.756 -0.3985  0.2932  1.0107
   90SAPS  H17S 8751   1.198   3.776   9.793  0.8003 -1.5064 -2.3766
   90SAPS  C218 8752   1.342   3.755   9.641  0.3065  0.4023 -0.1654
   90SAPS  H18R 8753   1.246   3.737   9.587 -0.2682  0.5530  0.7719
   90SAPS  H18S 8754   1.394   3.661   9.669  0.2840  0.0913 -1.1247
   90SAPS  C219 8755   1.437   3.844   9.554  0.0849 -0.1744  0.1492
   90SAPS  H19R 8756   1.513   3.777   9.507  2.3442  0.7467  2.2405
   90SAPS  H19S 8757   1.492   3.910   9.625 -1.2406  2.8664 -1.4551
   90SAPS  C220 8758   1.370   3.928   9.448  0.5896 -0.4475 -0.1862
   90SAPS  H20R 8759   1.280   3.974   9.493 -2.1623 -4.3466 -1.1923
   90SAPS  H20S 8760   1.330   3.857   9.372 -3.1470 -1.9544  2.8843
   90SAPS  H20T 8761   1.440   4.002   9.403 -1.6794  1.1399 -1.2899
   90SAPS   C33 8762   2.072   3.197   9.780 -0.0456  0.7771 -0.7613
   90SAPS   H3X 8763   2.167   3.187   9.836 -1.2098 -0.3185  1.1666
   90SAPS   H3Y 8764   2.060   3.296   9.731  2.3466  1.0332 -0.9478
   90SAPS   C34 8765   2.067   3.095   9.662  0.6206 -0.1041  0.4093
   90SAPS   H4X 8766   2.084   2.995   9.706  1.2147 -0.2270 -0.0949
   90SAPS   H4Y 8767   2.152   3.117   9.595  1.3804 -0.5650  1.2109
   90SAPS   C35 8768   1.941   3.099   9.574  0.8055  0.0059 -1.0739
   90SAPS   H5X 8769   1.943   3.207   9.548 -0.0239 -0.0491 -1.4066
   90SAPS   H5Y 8770   1.848   3.068   9.628 -0.6296  2.1213 -2.1804
   90SAPS   C36 8771   1.946   3.013   9.448  0.2883  0.3966  0.0776
   90SAPS   H6X 8772   1.907   2.914   9.477 -0.7598  0.3936 -1.2600
   90SAPS   H6Y 8773   2.048   2.998   9.405 -0.2739 -0.6394 -0.9332
   90SAPS   C37 8774   1.853   3.059   9.340  1.0405 -0.0071 -0.2945
   90SAPS   H7X 8775   1.871   3.160   9.298 -0.7578  0.2808 -0.4764
   90SAPS   H7Y 8776   1.755   3.087   9.384  0.7161  2.4948 -2.3272
   90SAPS   C38 8777   1.845   2.958   9.230 -0.0841 -0.7968 -0.2570
   90SAPS   H8X 8778   1.813   2.864   9.280  0.3530 -0.8556 -0.0864
   90SAPS   H8Y 8779   1.948   2.942   9.193  1.0217  0.1695  2.2078
   90SAPS   C39 8780   1.747   2.997   9.124  0.5710  0.2499 -1.2236
   90SAPS   H9X 8781   1.735   3.108   9.131  0.2712  0.1323  0.6765
   90SAPS   H9Y 8782   1.649   2.948   9.142  1.5137 -1.7414 -1.2456
   90SAPS  C310 8783   1.782   2.966   8.983 -0.2426  0.2597  0.1135
   90SAPS  H10X 8784   1.760   2.858   8.966 -1.4077  0.8006 -2.3256
   90SAPS  H10Y 8785   1.886   3.000   8.965 -0.2333 -0.2813 -0.9449
   90SAPS  C311 8786   1.694   3.038   8.878  0.3680 -0.2794  0.7587
   90SAPS  H11X 8787   1.735   3.021   8.776 -3.1504  0.3723 -0.9162
   90SAPS  H11Y 8788   1.688   3.148   8.893  0.8826 -0.3973  1.8744
   90SAPS  C312 8789   1.549   2.986   8.858 -0.0744  0.2656 -0.3883
   90SAPS  H12X 8790   1.503   3.060   8.790  2.5109  1.7532 -0.6273
   90SAPS  H12Y 8791   1.490   2.997   8.952  2.4870 -0.4435  1.3965
   90SAPS  C313 8792   1.550   2.843   8.787  0.6077 -0.6220 -0.2246
   90SAPS  H13X 8793   1.546   2.761   8.861  0.7044 -0.6629 -0.2644
   90SAPS  H13Y 8794   1.644   2.834   8.729  0.3814  0.6823 -0.8340
   90SAPS  C314 8795   1.436   2.822   8.687 -0.3806  0.5130 -0.1295
   90SAPS  H14X 8796   1.447   2.896   8.606 -1.5913  0.0997 -0.6831
   90SAPS  H14Y 8797   1.339   2.830   8.741 -0.4350  3.2084 -0.5314
   90SAPS  C315 8798   1.442   2.683   8.620  0.9380  0.1411 -0.0034
   90SAPS  H15X 8799   1.413   2.607   8.696  1.5818  0.1476  0.2495
   90SAPS  H15Y 8800   1.541   2.658   8.576  1.4583  2.3825 -0.2248
   90SAPS  C316 8801   1.335   2.677   8.505 -0.5023 -0.8199  0.1880
   90SAPS  H16X 8802   1.350   2.764   8.437 -0.4084 -1.1017 -0.1554
   90SAPS  H16Y 8803   1.234   2.689   8.550 -0.4475  0.0169  0.1088
   90SAPS  C317 8804   1.350   2.549   8.426 -0.2541 -0.4241 -0.2996
   90SAPS  H17X 8805   1.347   2.458   8.489 -2.8988 -1.4247 -1.7147
   90SAPS  H17Y 8806   1.450   2.543   8.378  0.1184 -1.7388  0.6060
   90SAPS  C318 8807   1.242   2.530   8.320  0.7116 -0.0327  0.5869
   90SAPS  H18X 8808   1.141   2.524   8.366  0.3055 -1.6640 -0.4347
   90SAPS  H18Y 8809   1.270   2.437   8.267 -2.4243 -1.9457  1.9689
   90SAPS  H18Z 8810   1.242   2.610   8.242  0.7058 -0.4757  0.1303
   91SAPS     N 8811   5.997   3.177   6.224 -0.2272  0.0166  0.1325
   91SAPS   HN1 8812   6.004   3.259   6.287  2.2299  1.5972 -1.9607
   91SAPS   HN2 8813   5.934   3.102   6.259  0.1219 -0.5867 -0.4913
   91SAPS   HN3 8814   6.087   3.134   6.193 -0.7349 -0.5419 -0.5927
   91SAPS   C12 8815   5.939   3.220   6.099  1.3290 -0.0171  0.8710
   91SAPS  H12A 8816   5.841   3.260   6.119  1.1260  1.4539 -2.4630
   91SAPS   C13 8817   5.994   3.330   6.006 -0.0836  0.8211  0.3109
   91SAPS  O13A 8818   6.063   3.421   6.064  0.5779  0.1174  0.5733
   91SAPS  O13B 8819   5.928   3.354   5.898 -0.0002 -0.4481 -0.0024
   91SAPS   C11 8820   5.910   3.092   6.010 -0.6520  0.0947  0.4807
   91SAPS  H11A 8821   6.002   3.074   5.950  0.0494  3.9565  0.1292
   91SAPS  H11B 8822   5.825   3.116   5.943  1.0057 -1.7980 -2.5355
   91SAPS     P 8823   5.844   2.846   6.015  0.2215 -0.0782  0.1902
   91SAPS   O13 8824   5.717   2.870   5.943  0.4775  0.4820 -0.2322
   91SAPS   O14 8825   5.957   2.788   5.943 -0.9572  0.5166 -0.1147
   91SAPS   O12 8826   5.888   2.974   6.085  0.0170 -0.0138 -0.4022
   91SAPS   O11 8827   5.830   2.737   6.130  0.8171 -0.0604 -0.7004
   91SAPS    C1 8828   5.771   2.774   6.255  0.0006  0.4089 -0.0319
   91SAPS    HA 8829   5.778   2.681   6.316 -1.2174  0.2732 -0.0642
   91SAPS    HB 8830   5.825   2.859   6.301  0.2623 -0.1817  0.7808
   91SAPS    C2 8831   5.623   2.810   6.256  0.4988 -0.7079  0.2296
   91SAPS    HS 8832   5.560   2.763   6.177 -3.3064  2.2729  1.2047
   91SAPS   O21 8833   5.621   2.958   6.250  0.1704 -0.3710  0.2475
   91SAPS   C21 8834   5.503   3.003   6.191 -0.3954 -0.2541  0.6718
   91SAPS   O22 8835   5.412   2.928   6.154  0.1210 -0.1812 -0.2128
   91SAPS   C22 8836   5.507   3.154   6.176 -0.2876 -0.0093 -0.0032
   91SAPS   H2R 8837   5.587   3.189   6.244 -0.9875  1.4896  0.0881
   91SAPS   H2S 8838   5.540   3.182   6.074  0.4218  3.0750  0.9743
   91SAPS    C3 8839   5.560   2.764   6.395 -0.0359 -1.0203 -0.1226
   91SAPS    HX 8840   5.577   2.654   6.396  1.5795 -0.7912  0.2811
   91SAPS    HY 8841   5.453   2.793   6.398  0.6739  2.4357 -2.1383
   91SAPS   O31 8842   5.635   2.827   6.504 -0.2344 -0.2037 -0.2649
   91SAPS   C31 8843   5.628   2.751   6.620  0.0431 -0.5397 -0.2688
   91SAPS   O32 8844   5.556   2.652   6.630 -0.1157 -0.2179 -0.0570
   91SAPS   C32 8845   5.724   2.804   6.730 -0.7500 -0.6195  0.0078
   91SAPS   H2X 8846   5.705   2.913   6.733  0.2481 -0.4565  1.2679
   91SAPS   H2Y 8847   5.826   2.783   6.690 -0.0455 -2.0509  2.3533
   91SAPS   C23 8848   5.369   3.222   6.189  0.6501 -0.0729  0.0837
   91SAPS   H3R 8849   5.298   3.175   6.117 -0.6530  4.0283 -1.6299
   91SAPS   H3S 8850   5.389   3.324   6.150  0.1527  0.4143  1.0763
   91SAPS   C24 8851   5.313   3.244   6.327 -0.3193  0.3300 -0.1407
   91SAPS   H4R 8852   5.250   3.336   6.333  0.6014  1.0065 -0.5974
   91SAPS   H4S 8853   5.394   3.281   6.393 -0.8796  0.9540  0.2174
   91SAPS   C25 8854   5.245   3.119   6.387 -0.3096 -0.2809 -0.6759
   91SAPS   H5R 8855   5.167   3.080   6.320 -2.0896  0.0961  1.0583
   91SAPS   C26 8856   5.250   3.075   6.511  0.1816  0.1692  0.7516
   91SAPS   H6R 8857   5.190   2.985   6.533  0.6559 -0.6521 -1.1155
   91SAPS   C27 8858   5.328   3.127   6.627 -0.1955 -0.1628  0.3837
   91SAPS   H7R 8859   5.282   3.083   6.719 -0.6623 -1.9824 -0.6698
   91SAPS   H7S 8860   5.296   3.233   6.641  0.6984  0.2662 -0.7564
   91SAPS   C28 8861   5.480   3.113   6.625  0.8160  0.1886 -0.3656
   91SAPS   H8R 8862   5.525   3.064   6.537 -0.3484  0.7971 -1.3262
   91SAPS   C29 8863   5.566   3.149   6.719  0.0963 -0.1349 -0.5478
   91SAPS   H9R 8864   5.672   3.134   6.693  0.4404  1.2238  0.0056
   91SAPS  C210 8865   5.533   3.202   6.852 -0.7793  0.2558 -0.2063
   91SAPS  H10R 8866   5.425   3.226   6.866 -1.4341 -2.3065 -0.3765
   91SAPS  H10S 8867   5.583   3.301   6.863  1.0457 -0.6489 -0.1737
   91SAPS  C211 8868   5.599   3.106   6.953 -0.1891  0.0747 -0.3814
   91SAPS  H11R 8869   5.549   3.009   6.970  1.6386 -0.6483  1.2506
   91SAPS  C212 8870   5.703   3.139   7.034  0.5196  0.5147 -0.1533
   91SAPS  H12R 8871   5.738   3.060   7.103 -0.8022 -0.8853 -1.0241
   91SAPS  C213 8872   5.792   3.266   7.036  0.4825  0.2139 -0.2446
   91SAPS  H13R 8873   5.729   3.333   7.099  0.4614 -0.2950  0.2859
   91SAPS  H13S 8874   5.806   3.315   6.938  2.4200 -1.1922 -0.7301
   91SAPS  C214 8875   5.930   3.254   7.098  0.0135  0.1738  0.2667
   91SAPS  H14R 8876   6.007   3.224   7.026 -0.0904  2.0337 -0.6766
   91SAPS  C215 8877   5.978   3.270   7.222 -0.0086 -0.4210 -0.4002
   91SAPS  H15R 8878   6.084   3.259   7.249 -0.1500 -0.6563  0.0746
   91SAPS  C216 8879   5.893   3.305   7.336 -0.1652 -0.2687 -0.6115
   91SAPS  H16R 8880   5.785   3.318   7.312 -0.0793 -0.5366 -1.1583
   91SAPS  H16S 8881   5.910   3.408   7.374 -1.8883  0.6717 -2.2614
   91SAPS  C217 8882   5.909   3.201   7.445  0.0886  0.4963  0.0767
   91SAPS  H17R 8883   6.009   3.212   7.491  1.1850 -0.2943 -1.9872
   91SAPS  H17S 8884   5.908   3.099   7.400  1.8240  0.5120 -0.0421
   91SAPS  C218 8885   5.802   3.225   7.551 -0.0337  0.2207 -0.5950
   91SAPS  H18R 8886   5.706   3.195   7.504 -0.3657  1.7158 -0.9284
   91SAPS  H18S 8887   5.808   3.333   7.579  1.1440  0.2724 -0.9727
   91SAPS  C219 8888   5.830   3.137   7.674  0.8441 -0.1618 -0.5766
   91SAPS  H19R 8889   5.938   3.145   7.698  0.3356  0.4704  1.7350
   91SAPS  H19S 8890   5.797   3.035   7.646 -0.7207  0.2366 -0.2925
   91SAPS  C220 8891   5.752   3.175   7.797 -0.3940 -0.1574 -0.7482
   91SAPS  H20R 8892   5.778   3.282   7.811  0.0524 -0.2193 -1.0840
   91SAPS  H20S 8893   5.765   3.111   7.887  0.4028  1.5082  0.3877
   91SAPS  H20T 8894   5.643   3.165   7.780 -0.6818  1.4481 -0.0974
   91SAPS   C33 8895   5.707   2.740   6.870  0.4065 -0.0827  0.5560
   91SAPS   H3X 8896   5.605   2.763   6.906 -0.1685 -0.6690 -0.6316
   91SAPS   H3Y 8897   5.782   2.781   6.940  1.6619 -1.4349  0.0480
   91SAPS   C34 8898   5.744   2.589   6.873 -0.2199  0.2329 -0.1282
   91SAPS   H4X 8899   5.851   2.576   6.847 -0.3374  1.1133 -1.0912
   91SAPS   H4Y 8900   5.677   2.546   6.797  0.1861  1.1619 -1.0399
   91SAPS   C35 8901   5.717   2.505   7.005 -0.7062  0.8861 -0.2795
   91SAPS   H5X 8902   5.745   2.399   6.987  1.7890  1.4920 -0.3160
   91SAPS   H5Y 8903   5.612   2.501   7.042 -0.2216 -1.5900  1.1115
   91SAPS   C36 8904   5.803   2.534   7.132 -0.2473  0.2476 -0.3957
   91SAPS   H6X 8905   5.790   2.642   7.157  1.4972  0.4326 -0.1615
   91SAPS   H6Y 8906   5.909   2.507   7.115 -0.9939 -2.2885 -1.3906
   91SAPS   C37 8907   5.754   2.450   7.253  0.2404 -0.1486  0.2167
   91SAPS   H7X 8908   5.760   2.346   7.214 -0.2120  0.1951 -0.7913
   91SAPS   H7Y 8909   5.648   2.475   7.272  0.3047 -0.4091  0.9447
   91SAPS   C38 8910   5.838   2.471   7.382  0.0938  0.1171 -0.5832
   91SAPS   H8X 8911   5.868   2.577   7.401  5.3365 -1.3049  0.8535
   91SAPS   H8Y 8912   5.943   2.434   7.371  0.8079  1.9926 -0.4722
   91SAPS   C39 8913   5.763   2.412   7.507 -0.1486 -0.4987  0.0118
   91SAPS   H9X 8914   5.759   2.304   7.482 -2.0080 -0.1726 -1.3232
   91SAPS   H9Y 8915   5.657   2.447   7.514 -0.7398 -2.1798  0.0172
   91SAPS  C310 8916   5.833   2.426   7.639 -1.5431  0.0345  0.2444
   91SAPS  H10X 8917   5.846   2.536   7.655 -0.6900  0.3973 -2.4979
   91SAPS  H10Y 8918   5.933   2.379   7.650 -0.6996  1.7585  0.3729
   91SAPS  C311 8919   5.740   2.381   7.750 -0.1789 -0.6747 -0.0747
   91SAPS  H11X 8920   5.726   2.271   7.760 -0.4776 -0.4254  3.6566
   91SAPS  H11Y 8921   5.641   2.429   7.732 -0.6519 -1.3281  0.7148
   91SAPS  C312 8922   5.778   2.435   7.889  1.2699 -0.1158  0.7607
   91SAPS  H12X 8923   5.710   2.379   7.956  2.2236 -1.9035  0.3022
   91SAPS  H12Y 8924   5.769   2.545   7.901  0.9939 -0.0374 -0.0401
   91SAPS  C313 8925   5.917   2.400   7.923 -0.5494 -0.5888 -0.0016
   91SAPS  H13X 8926   5.973   2.484   7.877 -0.6988 -0.9690 -0.9103
   91SAPS  H13Y 8927   5.944   2.295   7.897  0.5984 -0.3451  0.1405
   91SAPS  C314 8928   5.946   2.415   8.072  0.0456  0.4378 -0.1879
   91SAPS  H14X 8929   5.891   2.347   8.141  1.2173  0.5565  0.8967
   91SAPS  H14Y 8930   5.912   2.512   8.115 -0.2774 -0.5357  1.8670
   91SAPS  C315 8931   6.092   2.395   8.116  0.4172  0.0096 -0.4966
   91SAPS  H15X 8932   6.159   2.448   8.046  0.9037  2.3032  1.5638
   91SAPS  H15Y 8933   6.126   2.289   8.114 -2.2479 -0.9291 -0.6138
   91SAPS  C316 8934   6.137   2.441   8.254 -0.6212  0.3280 -0.2633
   91SAPS  H16X 8935   6.063   2.405   8.328  1.6308 -1.5143  1.2395
   91SAPS  H16Y 8936   6.139   2.552   8.262 -0.3307  0.3648 -0.7654
   91SAPS  C317 8937   6.278   2.390   8.295 -0.0441  0.2077  0.4356
   91SAPS  H17X 8938   6.278   2.280   8.308 -3.0634  0.4073  3.5267
   91SAPS  H17Y 8939   6.300   2.447   8.388 -0.0479  1.5199 -0.3417
   91SAPS  C318 8940   6.389   2.408   8.192 -0.7974 -0.3331 -0.2845
   91SAPS  H18X 8941   6.398   2.518   8.176  0.6295 -0.6273 -1.7014
   91SAPS  H18Y 8942   6.355   2.362   8.097 -0.2349  1.4211 -1.3869
   91SAPS  H18Z 8943   6.487   2.367   8.223 -0.1882  1.5592  0.4334
   92SAPS     N 8944   4.354   5.022   5.744  0.0143  0.3053 -0.3157
   92SAPS   HN1 8945   4.422   5.096   5.771 -0.7646  0.6554  0.7794
   92SAPS   HN2 8946   4.408   4.934   5.755 -0.6929 -0.0673  0.3407
   92SAPS   HN3 8947   4.318   5.023   5.646 -3.3124 -1.4726  0.7163
   92SAPS   C12 8948   4.237   5.017   5.836  0.0947 -0.2468  0.3487
   92SAPS  H12A 8949   4.189   5.114   5.836  2.3333  0.9557  2.4216
   92SAPS   C13 8950   4.124   4.917   5.796  0.2472 -0.4793  0.6564
   92SAPS  O13A 8951   4.118   4.881   5.675 -0.0023  0.4353 -0.3368
   92SAPS  O13B 8952   4.016   4.918   5.863 -0.6670 -0.0613  0.2214
   92SAPS   C11 8953   4.278   4.987   5.987 -1.1459 -0.6596 -0.0718
   92SAPS  H11A 8954   4.333   4.891   5.996  1.8752  0.5732 -3.0859
   92SAPS  H11B 8955   4.187   4.987   6.050 -0.2019  2.1351  1.4609
   92SAPS     P 8956   4.319   5.219   6.117  0.4320 -0.3594  0.0363
   92SAPS   O13 8957   4.439   5.305   6.145  0.2748  0.5364 -0.3644
   92SAPS   O14 8958   4.213   5.292   6.039  0.6681  0.4254 -0.2248
   92SAPS   O12 8959   4.374   5.088   6.035 -0.1543  0.2159 -0.0075
   92SAPS   O11 8960   4.257   5.157   6.250 -0.1082 -0.0708  0.2744
   92SAPS    C1 8961   4.127   5.177   6.273  0.1732  0.8564  0.3450
   92SAPS    HA 8962   4.059   5.171   6.185 -1.2479 -0.4320  1.4749
   92SAPS    HB 8963   4.088   5.090   6.330 -1.1162 -0.5050 -2.3904
   92SAPS    C2 8964   4.107   5.305   6.354  0.3312  0.6368 -0.1215
   92SAPS    HS 8965   4.153   5.390   6.300 -2.2127  0.2180 -3.2550
   92SAPS   O21 8966   4.175   5.293   6.478  0.5539 -0.4855 -0.7483
   92SAPS   C21 8967   4.198   5.401   6.548  0.6248 -0.0542 -0.3505
   92SAPS   O22 8968   4.176   5.516   6.515 -0.1010  0.0241  0.0103
   92SAPS   C22 8969   4.250   5.354   6.682 -0.2813 -0.9503 -0.7407
   92SAPS   H2R 8970   4.179   5.281   6.725  0.9005 -2.4965 -1.2957
   92SAPS   H2S 8971   4.335   5.288   6.652 -0.3772 -1.2406 -0.3747
   92SAPS    C3 8972   3.950   5.331   6.368  0.0255  0.8610 -0.4461
   92SAPS    HX 8973   3.884   5.245   6.345 -1.2123  1.3332  1.1060
   92SAPS    HY 8974   3.924   5.413   6.298  1.1930  1.1094 -0.6126
   92SAPS   O31 8975   3.923   5.369   6.509  0.1902  0.3114 -0.2682
   92SAPS   C31 8976   3.798   5.408   6.526 -0.7412 -0.8269  0.2499
   92SAPS   O32 8977   3.705   5.391   6.449  0.2726  0.4080  0.1232
   92SAPS   C32 8978   3.781   5.485   6.663 -0.6825 -0.2881  0.5611
   92SAPS   H2X 8979   3.799   5.592   6.642 -0.8516 -0.3920 -0.1241
   92SAPS   H2Y 8980   3.864   5.450   6.729  0.0403 -1.0877 -0.7393
   92SAPS   C23 8981   4.316   5.470   6.768  0.1653  0.1176 -0.3216
   92SAPS   H3R 8982   4.367   5.549   6.708 -0.9651  0.3354 -1.0345
   92SAPS   H3S 8983   4.394   5.418   6.826 -1.3102 -2.3866 -0.4432
   92SAPS   C24 8984   4.216   5.526   6.869  0.6997 -0.0037  0.6890
   92SAPS   H4R 8985   4.154   5.442   6.906  1.0602 -0.2191  0.8086
   92SAPS   H4S 8986   4.141   5.583   6.809 -0.0412 -1.5683  0.0720
   92SAPS   C25 8987   4.289   5.605   6.975  0.0821  0.1452 -0.3242
   92SAPS   H5R 8988   4.345   5.693   6.939  0.2195 -0.1816 -0.9139
   92SAPS   C26 8989   4.280   5.581   7.110 -0.0803 -0.6786  0.4108
   92SAPS   H6R 8990   4.315   5.658   7.179 -1.4490  0.7254 -0.3985
   92SAPS   C27 8991   4.212   5.469   7.179  0.4642 -0.0421 -0.7201
   92SAPS   H7R 8992   4.250   5.372   7.140  1.3271  0.0333 -0.0838
   92SAPS   H7S 8993   4.106   5.483   7.150  0.3931 -0.2145 -0.5538
   92SAPS   C28 8994   4.213   5.460   7.328  0.6448 -0.3565 -0.1757
   92SAPS   H8R 8995   4.263   5.370   7.364  1.8924 -0.4207 -1.9366
   92SAPS   C29 8996   4.178   5.552   7.411  0.3957 -0.8621 -0.0692
   92SAPS   H9R 8997   4.174   5.525   7.517  0.6510 -0.5025  0.0323
   92SAPS  C210 8998   4.127   5.686   7.381  0.7208  0.2206 -0.0760
   92SAPS  H10R 8999   4.093   5.688   7.275 -0.4407 -2.3944  0.1542
   92SAPS  H10S 9000   4.211   5.757   7.379  0.7499  0.1766 -0.8735
   92SAPS  C211 9001   4.012   5.736   7.463 -0.1854 -0.5185  0.5543
   92SAPS  H11R 9002   3.914   5.737   7.414 -0.2899 -1.4149  0.7384
   92SAPS  C212 9003   4.002   5.777   7.592  0.2040  0.0928 -0.4200
   92SAPS  H12R 9004   3.912   5.833   7.619  0.2830 -0.2688  0.6413
   92SAPS  C213 9005   4.108   5.769   7.699  0.9680 -0.3071  0.0222
   92SAPS  H13R 9006   4.097   5.866   7.751 -3.3423 -1.2204  1.2505
   92SAPS  H13S 9007   4.207   5.758   7.649  0.2667 -0.2203 -1.4551
   92SAPS  C214 9008   4.077   5.648   7.785  0.3604  0.0829  0.8653
   92SAPS  H14R 9009   4.064   5.552   7.732 -0.7779  1.3819 -1.3121
   92SAPS  C215 9010   4.079   5.646   7.920  0.2472 -0.0254  0.2555
   92SAPS  H15R 9011   4.052   5.549   7.965  2.1561  0.0607  1.6725
   92SAPS  C216 9012   4.113   5.759   8.012  0.2971  0.4981  0.2366
   92SAPS  H16R 9013   4.144   5.843   7.945 -0.2319  0.1397 -0.4795
   92SAPS  H16S 9014   4.202   5.732   8.072  1.4652  0.2613 -1.5135
   92SAPS  C217 9015   4.001   5.801   8.108  0.4462  0.2678 -0.8117
   92SAPS  H17R 9016   4.060   5.871   8.172  0.6522 -2.0314  1.6675
   92SAPS  H17S 9017   3.971   5.715   8.171  0.6729  0.7068 -0.0807
   92SAPS  C218 9018   3.882   5.860   8.040 -0.0340 -0.2442  0.5518
   92SAPS  H18R 9019   3.807   5.783   8.015 -0.1131 -0.8586  2.4798
   92SAPS  H18S 9020   3.922   5.910   7.949 -0.6425 -0.5162  0.1320
   92SAPS  C219 9021   3.818   5.967   8.128  0.4489 -0.3310 -0.5358
   92SAPS  H19R 9022   3.728   6.016   8.084 -1.3427 -0.7253  2.4393
   92SAPS  H19S 9023   3.897   6.042   8.149  0.7231 -0.1930 -1.9855
   92SAPS  C220 9024   3.765   5.903   8.257 -0.1066  0.5573  1.0537
   92SAPS  H20R 9025   3.835   5.873   8.338  1.8800 -1.0850 -1.1685
   92SAPS  H20S 9026   3.710   5.813   8.222 -1.9053  1.6937  0.8192
   92SAPS  H20T 9027   3.684   5.970   8.295 -2.1577 -1.5088  0.5579
   92SAPS   C33 9028   3.633   5.473   6.720 -0.3671  0.0092 -0.3102
   92SAPS   H3X 9029   3.611   5.366   6.740  0.8049 -0.4750 -1.4291
   92SAPS   H3Y 9030   3.559   5.502   6.643  0.7628 -0.6862 -1.6939
   92SAPS   C34 9031   3.621   5.551   6.851 -0.1309 -0.9801  0.4424
   92SAPS   H4X 9032   3.524   5.533   6.901  0.4244 -2.1586  1.1493
   92SAPS   H4Y 9033   3.635   5.659   6.828 -0.6402 -1.2299 -1.1502
   92SAPS   C35 9034   3.727   5.517   6.950 -0.2337  0.2487  0.5687
   92SAPS   H5X 9035   3.822   5.558   6.910 -0.3266 -0.5931 -0.5531
   92SAPS   H5Y 9036   3.731   5.406   6.950  0.7005  0.2527 -1.3581
   92SAPS   C36 9037   3.697   5.582   7.085 -0.5441  0.2194 -0.5465
   92SAPS   H6X 9038   3.669   5.687   7.064 -1.2587  0.1421 -0.0404
   92SAPS   H6Y 9039   3.789   5.579   7.147 -0.1553  3.1147 -0.8517
   92SAPS   C37 9040   3.586   5.505   7.175 -0.0914  0.2342 -0.6762
   92SAPS   H7X 9041   3.619   5.399   7.186 -1.5272 -0.2625 -0.9362
   92SAPS   H7Y 9042   3.489   5.512   7.120 -1.1247  0.0263  1.0389
   92SAPS   C38 9043   3.569   5.576   7.304 -0.0257  0.4157 -0.7534
   92SAPS   H8X 9044   3.474   5.540   7.348  1.2998 -0.9997  1.0839
   92SAPS   H8Y 9045   3.566   5.687   7.299 -0.3945  0.4503  0.0377
   92SAPS   C39 9046   3.678   5.537   7.405  0.4741 -0.5055  0.1198
   92SAPS   H9X 9047   3.779   5.580   7.384  1.1461 -0.6420  2.7856
   92SAPS   H9Y 9048   3.700   5.428   7.402  1.8327 -0.2447 -0.4204
   92SAPS  C310 9049   3.634   5.577   7.549  0.1111  0.4018 -0.2348
   92SAPS  H10X 9050   3.538   5.521   7.556  1.1447 -1.2696  1.7816
   92SAPS  H10Y 9051   3.627   5.687   7.549 -0.3650  0.3860 -1.6254
   92SAPS  C311 9052   3.719   5.528   7.666 -0.4918  0.3408 -0.0895
   92SAPS  H11X 9053   3.799   5.604   7.679 -0.6840  0.9689 -2.2851
   92SAPS  H11Y 9054   3.767   5.429   7.653  0.4253  1.1964 -4.5269
   92SAPS  C312 9055   3.641   5.534   7.796 -0.1350 -0.0341 -0.4131
   92SAPS  H12X 9056   3.562   5.456   7.787 -1.6212  1.2496  0.8400
   92SAPS  H12Y 9057   3.596   5.634   7.815  0.8492  0.1436  1.2071
   92SAPS  C313 9058   3.726   5.510   7.921 -0.8812  0.0410 -0.2828
   92SAPS  H13X 9059   3.807   5.587   7.927 -1.7817  0.9964 -0.1459
   92SAPS  H13Y 9060   3.757   5.403   7.928 -0.5102  0.2399  2.2423
   92SAPS  C314 9061   3.642   5.544   8.045 -0.5114 -0.1758  0.1469
   92SAPS  H14X 9062   3.548   5.485   8.038  1.0603 -2.6705 -2.0694
   92SAPS  H14Y 9063   3.615   5.652   8.039  0.7987  0.1289 -0.6600
   92SAPS  C315 9064   3.702   5.513   8.179 -0.1507  0.1850 -0.6739
   92SAPS  H15X 9065   3.778   5.591   8.203  1.5032 -1.8807  1.2217
   92SAPS  H15Y 9066   3.760   5.419   8.189  0.2259  0.3169 -1.5072
   92SAPS  C316 9067   3.589   5.511   8.281  0.5407  0.0552 -0.0429
   92SAPS  H16X 9068   3.522   5.431   8.242  0.7456  0.4202 -1.1794
   92SAPS  H16Y 9069   3.522   5.599   8.272 -0.1626 -0.5507 -0.9602
   92SAPS  C317 9070   3.629   5.489   8.424  0.0967 -0.1863  0.1364
   92SAPS  H17X 9071   3.682   5.576   8.467 -1.0853  0.7334 -0.2136
   92SAPS  H17Y 9072   3.687   5.394   8.430  0.7721  0.3193  3.6705
   92SAPS  C318 9073   3.503   5.455   8.513  0.7215  0.5658  0.5845
   92SAPS  H18X 9074   3.439   5.546   8.515  1.0817  0.8115  1.0893
   92SAPS  H18Y 9075   3.546   5.434   8.613  2.6562 -0.2596 -0.3515
   92SAPS  H18Z 9076   3.452   5.363   8.479  0.9492  0.2051  1.2124
   93SAPS     N 9077   4.414   0.471   6.690 -0.8164  0.0995 -0.5663
   93SAPS   HN1 9078   4.416   0.417   6.780 -3.5052  2.5375  1.1338
   93SAPS   HN2 9079   4.495   0.535   6.693 -1.4929  0.9929 -1.0019
   93SAPS   HN3 9080   4.326   0.522   6.709 -0.8987 -0.7493  1.6479
   93SAPS   C12 9081   4.417   0.400   6.570 -0.1573  0.3838  0.5265
   93SAPS  H12A 9082   4.404   0.466   6.485 -0.8008  2.0891  1.8898
   93SAPS   C13 9083   4.536   0.306   6.550 -1.1446  0.0092 -0.0762
   93SAPS  O13A 9084   4.615   0.286   6.643 -0.0927 -0.2661  0.0025
   93SAPS  O13B 9085   4.567   0.284   6.429 -0.0977 -0.6085 -0.6646
   93SAPS   C11 9086   4.297   0.315   6.568  0.2022  0.8823 -0.1208
   93SAPS  H11A 9087   4.295   0.246   6.655  3.0093  2.1733  1.0920
   93SAPS  H11B 9088   4.301   0.249   6.479 -0.1053 -0.6564  0.9761
   93SAPS     P 9089   4.034   0.331   6.516  0.2219 -0.0818  0.0079
   93SAPS   O13 9090   3.972   0.445   6.440  0.3463  0.0670  0.4787
   93SAPS   O14 9091   4.066   0.202   6.446 -0.1057  0.2933  0.0403
   93SAPS   O12 9092   4.175   0.389   6.564  0.4558  0.9665 -0.2170
   93SAPS   O11 9093   3.969   0.309   6.656 -0.5166  0.1032 -0.2777
   93SAPS    C1 9094   4.007   0.194   6.737 -0.8955  0.2123  0.6402
   93SAPS    HA 9095   4.078   0.120   6.693  0.0398 -1.4495  4.5263
   93SAPS    HB 9096   4.048   0.220   6.837 -0.6676 -0.6545  0.7889
   93SAPS    C2 9097   3.883   0.107   6.778  0.0614  0.0293  0.4972
   93SAPS    HS 9098   3.832   0.074   6.685 -1.6496  1.0429  1.0393
   93SAPS   O21 9099   3.794   0.182   6.856 -0.2480  0.1768 -0.2089
   93SAPS   C21 9100   3.667   0.144   6.847 -0.5891 -0.0260 -1.0794
   93SAPS   O22 9101   3.637   0.045   6.786 -0.0827  0.5280 -0.1175
   93SAPS   C22 9102   3.586   0.227   6.941  0.7116  0.2839  0.1733
   93SAPS   H2R 9103   3.646   0.310   6.984 -0.8901  0.3272  2.4625
   93SAPS   H2S 9104   3.501   0.272   6.885  1.2023  2.4459  1.0693
   93SAPS    C3 9105   3.930  -0.019   6.854  0.4169 -0.3454  0.0637
   93SAPS    HX 9106   3.979  -0.080   6.776 -2.4436 -2.8346  0.0336
   93SAPS    HY 9107   3.842  -0.078   6.888  0.1462  0.1332  0.2035
   93SAPS   O31 9108   4.020   0.008   6.967 -0.3803  0.5851 -0.0752
   93SAPS   C31 9109   3.957   0.017   7.087 -0.4582 -0.0493  0.4234
   93SAPS   O32 9110   3.839   0.014   7.107 -0.0678  0.2290 -0.1093
   93SAPS   C32 9111   4.065   0.017   7.198  0.2834  0.6539 -0.0614
   93SAPS   H2X 9112   4.150   0.080   7.164  0.5798  0.1936 -0.1842
   93SAPS   H2Y 9113   4.102  -0.087   7.210 -1.2956  0.3705  3.0546
   93SAPS   C23 9114   3.524   0.140   7.057  0.2149 -0.0717 -0.4058
   93SAPS   H3R 9115   3.596   0.062   7.090  1.2493  1.2032  0.4628
   93SAPS   H3S 9116   3.440   0.083   7.011 -0.0643 -1.3639  1.5913
   93SAPS   C24 9117   3.481   0.225   7.178  0.0933 -0.4446 -0.0174
   93SAPS   H4R 9118   3.386   0.174   7.206 -1.1130  0.3847 -2.3126
   93SAPS   H4S 9119   3.467   0.332   7.155  2.2261 -0.0559  0.3255
   93SAPS   C25 9120   3.594   0.232   7.285 -0.6987  0.5851 -0.1111
   93SAPS   H5R 9121   3.697   0.211   7.251 -0.6864 -1.1286  0.8468
   93SAPS   C26 9122   3.583   0.273   7.413  0.4725  0.1170 -0.0877
   93SAPS   H6R 9123   3.671   0.274   7.479 -1.4002  0.7976  2.5845
   93SAPS   C27 9124   3.449   0.320   7.465 -0.2277 -0.5684 -0.2388
   93SAPS   H7R 9125   3.404   0.246   7.535  2.3419 -0.9871  1.0784
   93SAPS   H7S 9126   3.373   0.335   7.385 -0.5399 -1.5330 -0.1383
   93SAPS   C28 9127   3.468   0.445   7.541 -0.8268 -0.2811  0.2474
   93SAPS   H8R 9128   3.476   0.540   7.487  0.5737 -0.7044 -0.3199
   93SAPS   C29 9129   3.480   0.457   7.673 -1.1087  0.3099  0.8928
   93SAPS   H9R 9130   3.500   0.557   7.714 -0.5327  1.3042 -1.6179
   93SAPS  C210 9131   3.460   0.347   7.774 -0.2765  0.2130  0.5404
   93SAPS  H10R 9132   3.379   0.281   7.738 -1.4310  1.7931  0.1445
   93SAPS  H10S 9133   3.418   0.399   7.863 -0.9760  0.2432  0.1963
   93SAPS  C211 9134   3.585   0.266   7.810 -0.1904 -0.1897 -0.1745
   93SAPS  H11R 9135   3.662   0.255   7.733  1.2655  2.9451  0.7016
   93SAPS  C212 9136   3.598   0.206   7.928 -0.6433  0.5282  0.0984
   93SAPS  H12R 9137   3.680   0.134   7.943 -2.0168 -0.7918  1.8509
   93SAPS  C213 9138   3.505   0.210   8.048 -0.5269 -0.5042 -0.3167
   93SAPS  H13R 9139   3.486   0.107   8.085  2.2585 -0.7237  0.8080
   93SAPS  H13S 9140   3.408   0.257   8.021 -0.8121  0.2936  1.9052
   93SAPS  C214 9141   3.578   0.280   8.154 -0.7166  0.5619  0.0265
   93SAPS  H14R 9142   3.661   0.347   8.128 -0.0335  0.3920  1.6531
   93SAPS  C215 9143   3.562   0.272   8.289  0.5559  1.0162 -0.5988
   93SAPS  H15R 9144   3.633   0.326   8.354  2.0589 -1.4449 -0.0735
   93SAPS  C216 9145   3.461   0.177   8.352  0.5273  0.3598  0.4122
   93SAPS  H16R 9146   3.372   0.157   8.288  0.3883  1.7427  0.1578
   93SAPS  H16S 9147   3.421   0.229   8.442 -0.4842 -1.2573  0.9426
   93SAPS  C217 9148   3.532   0.044   8.409 -0.5278 -0.1817  0.2952
   93SAPS  H17R 9149   3.592   0.075   8.497 -0.2098  0.7234 -0.2314
   93SAPS  H17S 9150   3.597  -0.008   8.336  1.8697 -1.1362  2.9287
   93SAPS  C218 9151   3.440  -0.069   8.447 -0.3244 -0.1954 -0.4532
   93SAPS  H18R 9152   3.388  -0.036   8.540  0.7364 -0.5677  0.2879
   93SAPS  H18S 9153   3.498  -0.155   8.487 -2.0876 -0.8505  0.8452
   93SAPS  C219 9154   3.340  -0.094   8.339  0.6866  0.7211  0.3867
   93SAPS  H19R 9155   3.377  -0.123   8.238  1.4994 -1.5081  1.2561
   93SAPS  H19S 9156   3.262  -0.015   8.332  0.6396  0.5767 -1.0190
   93SAPS  C220 9157   3.268  -0.226   8.388  0.0518 -0.0705  0.3068
   93SAPS  H20R 9158   3.222  -0.205   8.486  0.3621  2.2062  0.0199
   93SAPS  H20S 9159   3.335  -0.313   8.408  1.9242  1.0345 -0.8549
   93SAPS  H20T 9160   3.182  -0.252   8.323 -2.5640  0.3610  3.3962
   93SAPS   C33 9161   4.010   0.071   7.335 -0.3258  0.6747  0.4132
   93SAPS   H3X 9162   4.072   0.024   7.415 -0.2935 -0.1212 -0.0725
   93SAPS   H3Y 9163   3.908   0.037   7.363  0.3329 -0.0695  2.0396
   93SAPS   C34 9164   4.017   0.222   7.343 -0.2718  0.1054  0.7078
   93SAPS   H4X 9165   3.916   0.253   7.309 -0.5078 -0.8456  0.5046
   93SAPS   H4Y 9166   4.089   0.259   7.266 -1.4467  0.5225 -0.2303
   93SAPS   C35 9167   4.052   0.273   7.482 -0.6863  0.3887  0.3220
   93SAPS   H5X 9168   4.042   0.383   7.489 -0.5615  0.4814 -0.7756
   93SAPS   H5Y 9169   4.154   0.236   7.506 -1.1325 -1.0581  0.1286
   93SAPS   C36 9170   3.965   0.204   7.589  0.1462  0.4119  0.0514
   93SAPS   H6X 9171   4.002   0.100   7.606 -0.1350 -0.0315 -1.7886
   93SAPS   H6Y 9172   3.858   0.190   7.565 -0.2084  1.3624  1.0147
   93SAPS   C37 9173   3.968   0.269   7.732 -0.3368  0.1703  0.1868
   93SAPS   H7X 9174   3.887   0.338   7.764  0.4158  0.9122  0.4926
   93SAPS   H7Y 9175   4.063   0.326   7.739 -0.2697  0.0180  0.5652
   93SAPS   C38 9176   3.967   0.151   7.838  0.5623 -0.2046 -0.1747
   93SAPS   H8X 9177   4.053   0.083   7.820 -0.2541 -1.3530  0.1283
   93SAPS   H8Y 9178   3.878   0.087   7.818  0.6535 -0.6803  0.8748
   93SAPS   C39 9179   3.953   0.188   7.987 -0.0774 -0.0694  0.5119
   93SAPS   H9X 9180   3.872   0.264   7.994  1.4068  1.5631  0.6018
   93SAPS   H9Y 9181   4.050   0.234   8.015  0.8304 -1.3917 -0.3368
   93SAPS  C310 9182   3.932   0.062   8.067 -0.1828  0.9073 -0.3701
   93SAPS  H10X 9183   4.029   0.008   8.063 -0.7629 -0.0988 -2.4249
   93SAPS  H10Y 9184   3.859  -0.004   8.014 -0.0169  1.2934 -1.1008
   93SAPS  C311 9185   3.909   0.108   8.213  0.2182  0.6985 -0.3295
   93SAPS  H11X 9186   3.805   0.145   8.220 -0.1491  0.1653 -2.2201
   93SAPS  H11Y 9187   3.970   0.199   8.232 -0.9297  1.2391  0.9664
   93SAPS  C312 9188   3.932  -0.006   8.320  0.4580  0.0020 -0.4272
   93SAPS  H12X 9189   3.911  -0.103   8.270 -2.5556  0.5935 -0.5119
   93SAPS  H12Y 9190   3.850   0.001   8.395 -1.0983 -0.9856 -1.9596
   93SAPS  C313 9191   4.060   0.006   8.399  0.0133 -0.2566  0.1274
   93SAPS  H13X 9192   4.064   0.111   8.435 -0.6728 -0.1084 -0.2145
   93SAPS  H13Y 9193   4.141  -0.015   8.326 -0.4493  0.0280 -0.4785
   93SAPS  C314 9194   4.042  -0.093   8.511 -0.0326  0.5035  0.3033
   93SAPS  H14X 9195   4.002  -0.187   8.467  3.7172 -0.9196 -0.4249
   93SAPS  H14Y 9196   3.994  -0.058   8.604  1.7954  0.5423  1.2795
   93SAPS  C315 9197   4.190  -0.129   8.562  0.6287  0.5648 -0.0757
   93SAPS  H15X 9198   4.244  -0.151   8.467 -0.4572 -0.2379 -0.5359
   93SAPS  H15Y 9199   4.183  -0.225   8.618 -0.2122  1.7116  1.8643
   93SAPS  C316 9200   4.246  -0.020   8.654  0.2180 -0.0040  0.7814
   93SAPS  H16X 9201   4.169  -0.010   8.733  1.1076  0.5251  1.6059
   93SAPS  H16Y 9202   4.255   0.074   8.595 -5.0284 -0.1097 -0.6559
   93SAPS  C317 9203   4.377  -0.068   8.724  0.4663  0.5990 -0.2282
   93SAPS  H17X 9204   4.450  -0.106   8.650 -0.2032  0.4269 -0.8091
   93SAPS  H17Y 9205   4.353  -0.149   8.795  0.7077  1.0520  0.3834
   93SAPS  C318 9206   4.434   0.043   8.817  0.0342  0.2011 -0.5203
   93SAPS  H18X 9207   4.505   0.111   8.765  0.2504  0.2898 -0.1182
   93SAPS  H18Y 9208   4.501  -0.002   8.895 -0.4565 -0.0117 -0.2172
   93SAPS  H18Z 9209   4.353   0.112   8.846 -2.5711 -2.1530 -1.7161
   94SAPS     N 9210   5.448   4.727   5.880  0.4802 -0.5683  0.0819
   94SAPS   HN1 9211   5.445   4.813   5.938  1.6567 -1.4596  1.5113
   94SAPS   HN2 9212   5.517   4.740   5.803 -0.3787  0.8196 -0.4996
   94SAPS   HN3 9213   5.358   4.713   5.829  1.2540 -1.9708 -0.9707
   94SAPS   C12 9214   5.466   4.600   5.970 -0.7998  0.0787  0.2677
   94SAPS  H12A 9215   5.468   4.516   5.903  1.4616  0.8303 -0.7216
   94SAPS   C13 9216   5.603   4.599   6.040  0.5459  0.2969  0.4177
   94SAPS  O13A 9217   5.689   4.692   6.032 -0.2840  0.1554  0.2382
   94SAPS  O13B 9218   5.628   4.501   6.112 -0.2743 -0.3117  0.3521
   94SAPS   C11 9219   5.363   4.593   6.085 -0.0400  0.0221  0.8562
   94SAPS  H11A 9220   5.357   4.688   6.143  2.8579 -0.6364  2.3816
   94SAPS  H11B 9221   5.379   4.513   6.160 -0.2274  0.6850  1.6239
   94SAPS     P 9222   5.186   4.417   5.994  0.0300 -0.3811 -0.2063
   94SAPS   O13 9223   5.054   4.415   5.930 -0.4384  0.0981  0.7340
   94SAPS   O14 9224   5.283   4.350   5.910 -0.1784 -0.0545  0.1765
   94SAPS   O12 9225   5.229   4.568   6.028  0.2706  0.2520 -0.2419
   94SAPS   O11 9226   5.173   4.349   6.137  0.3644 -0.0584  0.1119
   94SAPS    C1 9227   5.061   4.372   6.223 -0.0589  0.4678 -0.3204
   94SAPS    HA 9228   4.964   4.372   6.168 -1.2238 -0.5686  1.6399
   94SAPS    HB 9229   5.048   4.292   6.298  1.7488  0.6743  0.2552
   94SAPS    C2 9230   5.073   4.503   6.313  0.1387  0.0714 -0.2140
   94SAPS    HS 9231   5.096   4.581   6.238 -0.2234  0.3629 -0.0305
   94SAPS   O21 9232   5.170   4.480   6.412 -0.1145  0.0690 -0.0545
   94SAPS   C21 9233   5.249   4.586   6.435 -0.4445  0.6183  0.5643
   94SAPS   O22 9234   5.252   4.697   6.385  0.3515  0.1912  0.6577
   94SAPS   C22 9235   5.346   4.528   6.545 -0.1653 -0.0561  0.3788
   94SAPS   H2R 9236   5.280   4.507   6.632  0.5510  0.9363  1.1772
   94SAPS   H2S 9237   5.369   4.425   6.509 -2.0009 -0.6330  0.7132
   94SAPS    C3 9238   4.936   4.549   6.372 -0.2862 -0.0273 -0.2821
   94SAPS    HX 9239   4.891   4.465   6.429  0.9216 -0.4023  0.1598
   94SAPS    HY 9240   4.869   4.570   6.286  0.1143 -0.4835 -0.7170
   94SAPS   O31 9241   4.943   4.655   6.462 -0.4193  0.4969 -0.1884
   94SAPS   C31 9242   4.952   4.777   6.409 -0.0169 -0.1730 -0.1101
   94SAPS   O32 9243   4.949   4.802   6.287  0.3686 -0.3677 -0.3703
   94SAPS   C32 9244   4.956   4.877   6.523  0.1926 -0.5612 -0.4571
   94SAPS   H2X 9245   4.852   4.890   6.561  0.6185  1.8556  0.0455
   94SAPS   H2Y 9246   4.970   4.981   6.486 -1.5138  0.2069  0.9053
   94SAPS   C23 9247   5.467   4.612   6.588  1.2242  0.6763 -1.0233
   94SAPS   H3R 9248   5.434   4.710   6.628  0.2427 -0.8767  2.3929
   94SAPS   H3S 9249   5.531   4.629   6.499  1.0501 -0.3361 -1.3617
   94SAPS   C24 9250   5.559   4.543   6.689 -0.3693 -1.1057 -0.2648
   94SAPS   H4R 9251   5.606   4.454   6.640  0.9641 -0.3939 -0.3270
   94SAPS   H4S 9252   5.499   4.502   6.773  0.0910  1.2101  1.2765
   94SAPS   C25 9253   5.658   4.632   6.756  0.9263 -0.5979  0.1488
   94SAPS   H5R 9254   5.752   4.629   6.697  0.4904  0.9383 -0.6757
   94SAPS   C26 9255   5.651   4.701   6.872 -0.6474  0.6698 -0.8860
   94SAPS   H6R 9256   5.738   4.763   6.897 -1.0834  0.1937  2.1412
   94SAPS   C27 9257   5.543   4.704   6.980 -0.2539 -0.1597  0.4212
   94SAPS   H7R 9258   5.483   4.611   6.969 -3.5235  1.9429 -0.9042
   94SAPS   H7S 9259   5.465   4.774   6.944 -1.2332 -0.9274  0.9999
   94SAPS   C28 9260   5.580   4.739   7.125 -0.0901  0.5779  0.2205
   94SAPS   H8R 9261   5.588   4.650   7.189  2.0297  0.9589  0.5802
   94SAPS   C29 9262   5.605   4.855   7.185  0.9144  0.0453  0.4400
   94SAPS   H9R 9263   5.648   4.860   7.287  2.0140  2.7834 -0.0556
   94SAPS  C210 9264   5.598   4.990   7.116 -0.0571 -0.7005  0.1564
   94SAPS  H10R 9265   5.558   5.075   7.176 -1.5169  1.9644 -4.1583
   94SAPS  H10S 9266   5.529   4.994   7.029  0.7718 -2.2400 -0.6101
   94SAPS  C211 9267   5.734   5.041   7.083 -0.0847  0.3230  0.3404
   94SAPS  H11R 9268   5.780   4.987   6.999 -1.0171  0.7312 -0.4462
   94SAPS  C212 9269   5.800   5.138   7.148 -0.1573 -0.3241 -0.1469
   94SAPS  H12R 9270   5.890   5.186   7.108 -1.1369  1.0919 -0.7366
   94SAPS  C213 9271   5.747   5.212   7.266 -0.5490  0.3695 -0.1393
   94SAPS  H13R 9272   5.652   5.270   7.258 -0.9913 -0.2786  0.2921
   94SAPS  H13S 9273   5.824   5.289   7.286 -0.8213  0.5889  0.0711
   94SAPS  C214 9274   5.756   5.141   7.399  0.2385  0.4299 -0.3459
   94SAPS  H14R 9275   5.841   5.071   7.398  0.6390  0.9081 -0.1176
   94SAPS  C215 9276   5.670   5.142   7.503 -0.6112 -0.0766  0.2570
   94SAPS  H15R 9277   5.704   5.090   7.594 -0.1957  0.0068  0.1544
   94SAPS  C216 9278   5.538   5.211   7.516  0.0920 -0.4625  0.0015
   94SAPS  H16R 9279   5.527   5.307   7.462  2.5325  1.8466  3.2052
   94SAPS  H16S 9280   5.527   5.251   7.619  1.1452  1.2291 -0.4937
   94SAPS  C217 9281   5.409   5.140   7.477  0.4777  0.0619  0.5407
   94SAPS  H17R 9282   5.421   5.116   7.369 -0.1036 -1.5210  0.7994
   94SAPS  H17S 9283   5.322   5.208   7.489  0.4522  0.6642 -2.2888
   94SAPS  C218 9284   5.407   5.008   7.561 -0.0550 -0.0066 -0.0432
   94SAPS  H18R 9285   5.403   5.051   7.663 -0.0293  1.1999 -0.5399
   94SAPS  H18S 9286   5.499   4.947   7.556  0.2422  0.0133  3.0224
   94SAPS  C219 9287   5.289   4.919   7.546 -0.2090  0.2771 -0.3980
   94SAPS  H19R 9288   5.200   4.982   7.561 -0.3968 -0.5080  2.2940
   94SAPS  H19S 9289   5.298   4.838   7.622 -0.7371 -1.1305 -1.7809
   94SAPS  C220 9290   5.281   4.854   7.405  0.0587 -0.4201 -0.0998
   94SAPS  H20R 9291   5.374   4.799   7.378 -0.3390 -1.1500 -0.0341
   94SAPS  H20S 9292   5.260   4.930   7.327 -1.5723 -0.0385  0.6794
   94SAPS  H20T 9293   5.205   4.773   7.396 -0.5214  0.0878  0.1252
   94SAPS   C33 9294   5.066   4.843   6.618  0.2643  0.4190  1.1707
   94SAPS   H3X 9295   5.158   4.839   6.556 -0.6614  2.3868 -0.4550
   94SAPS   H3Y 9296   5.051   4.739   6.655 -0.3391 -0.8059 -2.1294
   94SAPS   C34 9297   5.087   4.939   6.727  0.1352 -0.9621 -0.0019
   94SAPS   H4X 9298   4.992   4.988   6.754  0.1577  0.2306 -1.9040
   94SAPS   H4Y 9299   5.142   5.029   6.692 -1.1679 -0.7594 -1.6268
   94SAPS   C35 9300   5.144   4.863   6.848  0.4650 -0.0099 -0.7672
   94SAPS   H5X 9301   5.251   4.842   6.829  1.3643  0.2124  3.1757
   94SAPS   H5Y 9302   5.080   4.773   6.859 -1.2769  1.4813  3.2640
   94SAPS   C36 9303   5.137   4.944   6.977 -0.1126 -0.2024 -0.4665
   94SAPS   H6X 9304   5.179   5.045   6.957  3.0322 -1.5532 -1.4672
   94SAPS   H6Y 9305   5.199   4.904   7.060 -1.6097  1.1024  1.3724
   94SAPS   C37 9306   4.997   4.960   7.031  0.2963  0.9719  0.5206
   94SAPS   H7X 9307   4.955   4.857   7.042 -1.3970  1.8261  3.0138
   94SAPS   H7Y 9308   4.923   5.015   6.969 -3.3725 -3.9613 -0.1295
   94SAPS   C38 9309   4.990   5.033   7.165  0.0119  0.1109 -0.4864
   94SAPS   H8X 9310   5.050   4.985   7.245 -0.3724 -1.0657 -0.8765
   94SAPS   H8Y 9311   4.885   5.021   7.200 -0.7337  1.7779 -1.9682
   94SAPS   C39 9312   5.016   5.185   7.165 -0.0292 -0.4349 -0.4146
   94SAPS   H9X 9313   4.984   5.238   7.073 -1.3351 -0.4637  0.0078
   94SAPS   H9Y 9314   5.122   5.215   7.182 -0.0818 -0.6077  0.2552
   94SAPS  C310 9315   4.940   5.249   7.290  0.2417  0.1102  0.5866
   94SAPS  H10X 9316   4.833   5.220   7.282  0.6229 -1.8548  1.8933
   94SAPS  H10Y 9317   4.946   5.359   7.282  1.0456  0.3929  3.7490
   94SAPS  C311 9318   5.008   5.194   7.419  0.3572 -0.5476  0.4704
   94SAPS  H11X 9319   5.118   5.188   7.411  0.4836 -0.5389  1.9777
   94SAPS  H11Y 9320   4.981   5.091   7.450  0.4252 -1.0292 -0.9790
   94SAPS  C312 9321   4.956   5.276   7.540 -0.1264  0.0785 -0.1608
   94SAPS  H12X 9322   4.852   5.251   7.569 -0.2980  1.4118  0.3988
   94SAPS  H12Y 9323   4.954   5.382   7.509  1.7491  0.1167 -0.2953
   94SAPS  C313 9324   5.036   5.246   7.667  0.9873 -0.1618  0.7257
   94SAPS  H13X 9325   5.140   5.251   7.630  0.8275  0.4540  0.3457
   94SAPS  H13Y 9326   5.026   5.138   7.691  0.0497  0.1107  1.6526
   94SAPS  C314 9327   5.016   5.329   7.794  0.0830  0.4954 -0.2256
   94SAPS  H14X 9328   4.914   5.329   7.838  0.1527  1.0660 -0.0562
   94SAPS  H14Y 9329   5.041   5.430   7.755 -0.8745  0.2531 -1.5656
   94SAPS  C315 9330   5.120   5.278   7.893  0.2281 -0.6448  0.2762
   94SAPS  H15X 9331   5.159   5.358   7.959 -1.2959  2.3365 -2.2392
   94SAPS  H15Y 9332   5.204   5.253   7.825 -0.1589 -2.4924  0.4034
   94SAPS  C316 9333   5.069   5.170   7.991  0.1169 -0.5332 -0.0979
   94SAPS  H16X 9334   5.022   5.097   7.921 -0.9683 -0.1370  0.2023
   94SAPS  H16Y 9335   4.985   5.210   8.052 -0.4136 -0.4616 -0.8512
   94SAPS  C317 9336   5.175   5.115   8.085  0.4054 -0.5512 -1.0208
   94SAPS  H17X 9337   5.265   5.073   8.034  0.3565  0.0890 -1.6548
   94SAPS  H17Y 9338   5.131   5.026   8.135 -1.9348  0.0879 -1.8048
   94SAPS  C318 9339   5.204   5.201   8.210  0.5041 -0.7075 -0.0874
   94SAPS  H18X 9340   5.120   5.221   8.280 -0.5569  0.3933 -1.6043
   94SAPS  H18Y 9341   5.233   5.305   8.184  0.3335 -0.7404 -0.4069
   94SAPS  H18Z 9342   5.290   5.160   8.268  2.1944  2.1460 -0.3498
   95SAPS     N 9343   2.422   1.083   5.858 -0.2164  0.1001  0.2378
   95SAPS   HN1 9344   2.389   1.148   5.932 -0.7926 -0.6043  0.6176
   95SAPS   HN2 9345   2.520   1.100   5.827 -1.4003 -0.3950 -4.6276
   95SAPS   HN3 9346   2.365   1.101   5.773  0.7289  3.1127  0.1379
   95SAPS   C12 9347   2.404   0.949   5.906 -0.4450  0.6559 -0.5589
   95SAPS  H12A 9348   2.297   0.948   5.918 -0.1847 -0.1648  2.6217
   95SAPS   C13 9349   2.452   0.835   5.813  0.1866 -0.3052  0.6212
   95SAPS  O13A 9350   2.507   0.862   5.703  0.4519  0.4325  0.0693
   95SAPS  O13B 9351   2.406   0.724   5.849 -0.2878 -0.3570  0.1705
   95SAPS   C11 9352   2.471   0.933   6.043  0.3326  0.7362  0.4511
   95SAPS  H11A 9353   2.573   0.977   6.037  0.1700  1.0863  0.2399
   95SAPS  H11B 9354   2.481   0.829   6.080  0.0608  0.3313 -0.5834
   95SAPS     P 9355   2.282   0.983   6.230  0.2199 -0.2933 -0.5699
   95SAPS   O13 9356   2.250   1.093   6.320 -0.1318  0.2682 -0.4904
   95SAPS   O14 9357   2.176   0.927   6.138  0.4763 -0.2908  0.5931
   95SAPS   O12 9358   2.408   1.016   6.137  0.2956 -0.7333 -0.2445
   95SAPS   O11 9359   2.340   0.876   6.322 -0.0390  0.0357  0.6133
   95SAPS    C1 9360   2.453   0.904   6.409 -0.1369  0.1714  1.0396
   95SAPS    HA 9361   2.531   0.832   6.377 -0.7116  0.7096 -1.8596
   95SAPS    HB 9362   2.499   1.004   6.392 -0.5859  0.5405  1.9464
   95SAPS    C2 9363   2.420   0.876   6.554  0.1142 -0.4849  0.2303
   95SAPS    HS 9364   2.514   0.865   6.613 -0.7997  1.0696  2.0886
   95SAPS   O21 9365   2.338   0.759   6.570 -0.0032  0.6970  0.2066
   95SAPS   C21 9366   2.412   0.644   6.565 -0.2145  0.4065  0.7455
   95SAPS   O22 9367   2.532   0.634   6.559 -0.3934  0.2518  0.4928
   95SAPS   C22 9368   2.305   0.531   6.552 -0.2296  0.1843 -0.3995
   95SAPS   H2R 9369   2.204   0.571   6.573  0.3359  1.9927 -0.9146
   95SAPS   H2S 9370   2.309   0.503   6.445  1.6897  0.2870 -0.3906
   95SAPS    C3 9371   2.348   0.992   6.613 -0.0217 -0.2007 -0.4481
   95SAPS    HX 9372   2.244   0.979   6.576 -0.2942 -2.7947  0.9806
   95SAPS    HY 9373   2.402   1.076   6.566 -1.0722 -0.6231 -2.4952
   95SAPS   O31 9374   2.341   0.985   6.758 -0.7920 -0.0082 -0.2130
   95SAPS   C31 9375   2.279   1.093   6.802 -0.1429 -0.0632  0.2803
   95SAPS   O32 9376   2.222   1.179   6.734 -0.2106  0.7700 -0.0284
   95SAPS   C32 9377   2.284   1.095   6.956 -0.4476  1.0043 -0.9116
   95SAPS   H2X 9378   2.217   1.175   6.994  0.1778  0.8972  0.4828
   95SAPS   H2Y 9379   2.390   1.116   6.980 -0.1707 -0.9598 -0.2340
   95SAPS   C23 9380   2.360   0.421   6.644 -0.0299 -0.0744 -0.0853
   95SAPS   H3R 9381   2.471   0.416   6.639  0.0596  1.6535 -0.5939
   95SAPS   H3S 9382   2.324   0.321   6.610 -0.3241 -0.1789  0.5183
   95SAPS   C24 9383   2.322   0.418   6.794  0.1197 -0.3737 -0.5589
   95SAPS   H4R 9384   2.330   0.312   6.825  0.1244 -0.1391  0.2724
   95SAPS   H4S 9385   2.214   0.443   6.805 -0.1600 -1.6636 -0.2620
   95SAPS   C25 9386   2.406   0.509   6.885  0.4162  0.4391  0.1902
   95SAPS   H5R 9387   2.502   0.549   6.848  1.0966 -1.0739  0.2118
   95SAPS   C26 9388   2.356   0.539   7.004  0.1618  0.0946 -0.1401
   95SAPS   H6R 9389   2.418   0.606   7.065 -1.0222 -0.2872  1.5565
   95SAPS   C27 9390   2.225   0.499   7.067  0.6360  0.2366  0.3175
   95SAPS   H7R 9391   2.196   0.394   7.044 -1.0451  0.6335  0.5012
   95SAPS   H7S 9392   2.145   0.566   7.030  0.4808  0.4926  1.0792
   95SAPS   C28 9393   2.216   0.524   7.213 -0.0226  0.3978 -0.2459
   95SAPS   H8R 9394   2.170   0.618   7.248 -1.7918 -0.4550 -0.2154
   95SAPS   C29 9395   2.263   0.454   7.315 -0.2885  0.4672 -0.3791
   95SAPS   H9R 9396   2.237   0.482   7.418  3.2108  0.4463  0.6521
   95SAPS  C210 9397   2.338   0.327   7.306  0.0488  0.6060 -0.7723
   95SAPS  H10R 9398   2.431   0.339   7.364  0.8207  0.5663 -1.9650
   95SAPS  H10S 9399   2.372   0.302   7.203  0.0243  1.6650 -1.0462
   95SAPS  C211 9400   2.263   0.204   7.356 -0.8690 -0.3288  0.2053
   95SAPS  H11R 9401   2.207   0.161   7.271 -0.8791  0.6083 -0.2729
   95SAPS  C212 9402   2.250   0.145   7.481 -0.0752 -0.2899  0.9403
   95SAPS  H12R 9403   2.204   0.046   7.472  0.4107 -0.3319 -2.1359
   95SAPS  C213 9404   2.309   0.192   7.610 -0.8091  0.5527  0.8165
   95SAPS  H13R 9405   2.367   0.286   7.595 -2.6526  1.4169 -1.6923
   95SAPS  H13S 9406   2.384   0.115   7.636 -0.7761 -0.4609 -1.9869
   95SAPS  C214 9407   2.209   0.221   7.720 -0.2527 -0.3294  0.5207
   95SAPS  H14R 9408   2.103   0.214   7.691 -0.2864 -0.6537  0.7118
   95SAPS  C215 9409   2.246   0.276   7.836  0.0095 -0.4120 -0.1358
   95SAPS  H15R 9410   2.174   0.293   7.917  0.6120 -0.1468  0.3534
   95SAPS  C216 9411   2.389   0.321   7.877  0.0332  0.4127 -0.4227
   95SAPS  H16R 9412   2.406   0.423   7.835 -2.3283  0.6846 -0.8677
   95SAPS  H16S 9413   2.470   0.256   7.838  0.5309  0.2687  0.8271
   95SAPS  C217 9414   2.407   0.320   8.027  0.4913 -0.2243  0.0027
   95SAPS  H17R 9415   2.337   0.391   8.076  0.9797  2.0823 -2.4551
   95SAPS  H17S 9416   2.515   0.336   8.048  0.5254 -0.7323  0.2333
   95SAPS  C218 9417   2.372   0.180   8.086  0.3328 -0.0729  0.0043
   95SAPS  H18R 9418   2.413   0.101   8.019 -0.9724  0.3712 -1.3535
   95SAPS  H18S 9419   2.264   0.164   8.069  0.2956  0.8171 -0.6848
   95SAPS  C219 9420   2.401   0.153   8.232 -0.1740 -0.3593 -0.8523
   95SAPS  H19R 9421   2.390   0.044   8.251 -0.9032 -0.4071 -1.5135
   95SAPS  H19S 9422   2.306   0.194   8.272  0.0174 -1.1163  0.4320
   95SAPS  C220 9423   2.535   0.206   8.292  0.1662 -0.3926  0.4413
   95SAPS  H20R 9424   2.530   0.316   8.283 -1.0811 -0.5106 -0.6718
   95SAPS  H20S 9425   2.625   0.161   8.244  1.1103  1.4303  0.4344
   95SAPS  H20T 9426   2.540   0.193   8.402 -1.0270  0.5789  0.6337
   95SAPS   C33 9427   2.236   0.966   7.023 -0.2011  0.0106  0.0247
   95SAPS   H3X 9428   2.320   0.897   7.002 -1.0672 -1.3956  0.8963
   95SAPS   H3Y 9429   2.151   0.917   6.970  2.0328 -1.2988 -2.5953
   95SAPS   C34 9430   2.212   0.967   7.171 -0.0639  0.2762  0.3935
   95SAPS   H4X 9431   2.204   0.871   7.226 -0.7774 -0.3094 -0.6851
   95SAPS   H4Y 9432   2.112   1.014   7.181  0.6052  1.2835  3.3063
   95SAPS   C35 9433   2.304   1.062   7.250 -0.0831  0.5351 -0.7140
   95SAPS   H5X 9434   2.287   1.164   7.211  0.1871  1.2272  0.9152
   95SAPS   H5Y 9435   2.408   1.032   7.229 -0.3240  0.1276 -1.3636
   95SAPS   C36 9436   2.290   1.052   7.404 -0.3623 -0.5287 -0.0948
   95SAPS   H6X 9437   2.324   0.956   7.447  2.7565  0.0175 -1.0844
   95SAPS   H6Y 9438   2.182   1.074   7.422 -0.4329 -0.7541 -0.2406
   95SAPS   C37 9439   2.373   1.154   7.481 -0.0882 -0.2032 -0.2875
   95SAPS   H7X 9440   2.367   1.247   7.421 -0.6149 -1.0737 -1.6395
   95SAPS   H7Y 9441   2.482   1.131   7.487 -0.3742 -2.2583 -1.9270
   95SAPS   C38 9442   2.320   1.162   7.624 -0.0029  0.4381 -0.1342
   95SAPS   H8X 9443   2.343   1.067   7.677 -3.1334 -1.2757 -1.5506
   95SAPS   H8Y 9444   2.210   1.171   7.637 -0.0546 -1.8545  1.5463
   95SAPS   C39 9445   2.386   1.276   7.703  0.5351  0.9300 -0.4472
   95SAPS   H9X 9446   2.373   1.376   7.655  1.5040  0.9648 -0.6640
   95SAPS   H9Y 9447   2.493   1.246   7.706  0.0610 -1.2105 -2.6727
   95SAPS  C310 9448   2.328   1.292   7.847  0.3038  0.1407  0.0493
   95SAPS  H10X 9449   2.327   1.193   7.897 -0.6065 -0.4242 -1.0373
   95SAPS  H10Y 9450   2.222   1.322   7.830 -0.9887 -3.8910 -0.0320
   95SAPS  C311 9451   2.393   1.403   7.924 -0.2715 -0.1320  0.4611
   95SAPS  H11X 9452   2.384   1.491   7.857 -1.6110 -1.4313 -1.1479
   95SAPS  H11Y 9453   2.501   1.384   7.943  0.6246  1.6465 -2.2703
   95SAPS  C312 9454   2.334   1.424   8.065  0.2347 -0.0898  0.0315
   95SAPS  H12X 9455   2.227   1.452   8.053  0.3216  0.9973  1.5183
   95SAPS  H12Y 9456   2.366   1.520   8.111 -2.0017  2.0709 -2.5412
   95SAPS  C313 9457   2.364   1.307   8.164  0.1823 -0.5091  0.5781
   95SAPS  H13X 9458   2.469   1.323   8.196  1.0983  1.6085 -2.8845
   95SAPS  H13Y 9459   2.360   1.212   8.106  0.0769  0.6933 -1.5078
   95SAPS  C314 9460   2.256   1.298   8.277 -0.0838 -0.6767  0.3169
   95SAPS  H14X 9461   2.161   1.263   8.230 -0.2880 -1.4984  1.3153
   95SAPS  H14Y 9462   2.232   1.392   8.332 -1.6327 -0.9529  0.1603
   95SAPS  C315 9463   2.296   1.193   8.384 -0.0783 -0.2656  0.1875
   95SAPS  H15X 9464   2.369   1.244   8.451 -1.0928 -1.9089  2.6840
   95SAPS  H15Y 9465   2.339   1.102   8.336  0.8932 -0.6973  1.8214
   95SAPS  C316 9466   2.178   1.166   8.473  0.1180  0.5663  0.1583
   95SAPS  H16X 9467   2.107   1.107   8.411  0.2644 -0.4859  0.9588
   95SAPS  H16Y 9468   2.124   1.259   8.500  1.7618  1.4999  0.3773
   95SAPS  C317 9469   2.201   1.073   8.597 -0.4685  0.4153 -0.6402
   95SAPS  H17X 9470   2.100   1.052   8.639 -0.4366  1.2027 -0.1635
   95SAPS  H17Y 9471   2.255   1.134   8.672 -1.8219  0.1620  0.5908
   95SAPS  C318 9472   2.246   0.933   8.563  0.4998 -0.6224  0.0590
   95SAPS  H18X 9473   2.247   0.881   8.661 -2.6112 -1.5415 -0.3043
   95SAPS  H18Y 9474   2.349   0.921   8.522  0.6206  2.7321 -0.9068
   95SAPS  H18Z 9475   2.159   0.892   8.507 -1.3206  2.2544  0.5384
   96SAPS     N 9476   2.168   1.337   6.235  0.4623  0.0731  0.1601
   96SAPS   HN1 9477   2.246   1.405   6.244 -0.2870  1.0466 -0.4376
   96SAPS   HN2 9478   2.093   1.365   6.301 -0.8748 -1.3207 -0.7050
   96SAPS   HN3 9479   2.191   1.237   6.253 -2.0252 -0.4796  0.6999
   96SAPS   C12 9480   2.102   1.351   6.103 -0.0712 -0.3105  0.0883
   96SAPS  H12A 9481   2.072   1.451   6.079  1.3591 -0.3735 -2.2480
   96SAPS   C13 9482   2.188   1.292   5.983 -0.1524 -0.1736  0.1650
   96SAPS  O13A 9483   2.314   1.278   6.000 -0.2462  0.0334  0.1496
   96SAPS  O13B 9484   2.141   1.311   5.865 -0.0637 -0.3395 -0.6417
   96SAPS   C11 9485   1.971   1.256   6.114 -0.3630  0.8040 -0.5409
   96SAPS  H11A 9486   2.016   1.155   6.127  0.0086  0.8063 -1.7061
   96SAPS  H11B 9487   1.927   1.252   6.012 -1.2373 -0.3952 -0.1430
   96SAPS     P 9488   1.755   1.222   6.254  0.8412  0.1234  0.0076
   96SAPS   O13 9489   1.655   1.323   6.300 -0.5432 -0.5438  0.0764
   96SAPS   O14 9490   1.717   1.140   6.141  0.1459  0.2140  0.9025
   96SAPS   O12 9491   1.880   1.304   6.216 -0.2219  0.1739  0.3207
   96SAPS   O11 9492   1.802   1.131   6.367  0.7026  0.0177 -0.4383
   96SAPS    C1 9493   1.893   1.164   6.464 -0.6947  0.7434 -0.3047
   96SAPS    HA 9494   1.938   1.066   6.491  0.0738  1.0952 -0.2607
   96SAPS    HB 9495   1.973   1.231   6.424 -0.2446 -0.8392 -2.2641
   96SAPS    C2 9496   1.823   1.218   6.596  0.3715 -0.1317 -0.1650
   96SAPS    HS 9497   1.740   1.155   6.634 -0.8792  2.7239  2.2122
   96SAPS   O21 9498   1.787   1.356   6.557 -0.2080  0.3639 -0.6462
   96SAPS   C21 9499   1.674   1.392   6.616  0.3609 -0.4979  1.0955
   96SAPS   O22 9500   1.612   1.329   6.695  0.3414  0.2252  0.0893
   96SAPS   C22 9501   1.640   1.534   6.568 -0.1211  0.8936  0.1579
   96SAPS   H2R 9502   1.736   1.589   6.559 -0.7532  2.4330  2.1579
   96SAPS   H2S 9503   1.595   1.523   6.466 -0.0623  0.6021  0.1617
   96SAPS    C3 9504   1.929   1.222   6.719  0.7294  0.1545 -0.3286
   96SAPS    HX 9505   1.997   1.300   6.677  1.0714 -0.0864 -0.2317
   96SAPS    HY 9506   1.971   1.119   6.717 -4.1410 -2.0662 -1.7100
   96SAPS   O31 9507   1.871   1.242   6.853  0.5760 -0.3092 -0.3537
   96SAPS   C31 9508   1.868   1.360   6.905  0.1599  0.7944 -0.3966
   96SAPS   O32 9509   1.904   1.464   6.850  0.5311 -0.1761  0.2473
   96SAPS   C32 9510   1.810   1.353   7.048 -0.0581 -0.8686  0.0104
   96SAPS   H2X 9511   1.794   1.250   7.085 -0.6831 -0.3025  1.3731
   96SAPS   H2Y 9512   1.713   1.406   7.037 -0.0528 -0.6067  1.1276
   96SAPS   C23 9513   1.527   1.610   6.646  0.2688 -0.4170  0.2242
   96SAPS   H3R 9514   1.435   1.548   6.639 -0.4072  0.3452  1.8695
   96SAPS   H3S 9515   1.506   1.697   6.580  0.0008 -1.7295 -1.4869
   96SAPS   C24 9516   1.573   1.640   6.795 -0.6045 -0.2101  0.9394
   96SAPS   H4R 9517   1.682   1.665   6.794 -0.5507 -0.4635  0.1218
   96SAPS   H4S 9518   1.556   1.542   6.845 -0.3948 -2.4291 -2.9378
   96SAPS   C25 9519   1.499   1.750   6.862 -0.0696 -0.0958 -0.0983
   96SAPS   H5R 9520   1.446   1.821   6.795 -0.0147  0.5853  0.5718
   96SAPS   C26 9521   1.518   1.784   6.988  0.9501 -0.5803 -0.2873
   96SAPS   H6R 9522   1.480   1.880   7.026 -0.0244 -0.8873 -0.4703
   96SAPS   C27 9523   1.601   1.700   7.083  0.5977  0.9978 -0.3639
   96SAPS   H7R 9524   1.655   1.763   7.157 -2.6054  0.4063  2.7422
   96SAPS   H7S 9525   1.687   1.658   7.027  2.1197  1.4815  1.5141
   96SAPS   C28 9526   1.512   1.606   7.165 -0.6216  0.2812  0.3954
   96SAPS   H8R 9527   1.434   1.572   7.096  0.4961  0.2377 -0.8997
   96SAPS   C29 9528   1.526   1.558   7.287  0.3763 -0.3884 -0.2625
   96SAPS   H9R 9529   1.450   1.489   7.326 -0.2120  0.5560  0.2923
   96SAPS  C210 9530   1.637   1.598   7.385  0.1465 -0.3400  0.0451
   96SAPS  H10R 9531   1.734   1.621   7.335 -0.1536  0.4319 -0.1954
   96SAPS  H10S 9532   1.659   1.520   7.461  2.3668  0.6158  0.4692
   96SAPS  C211 9533   1.601   1.732   7.445  0.0331 -0.6153 -0.7874
   96SAPS  H11R 9534   1.568   1.800   7.365  1.1073  1.7872  0.7034
   96SAPS  C212 9535   1.618   1.777   7.576 -0.3287 -0.4402 -0.4527
   96SAPS  H12R 9536   1.609   1.885   7.594 -3.1313 -0.6915  0.0298
   96SAPS  C213 9537   1.678   1.703   7.694 -0.0345 -0.4964  0.2271
   96SAPS  H13R 9538   1.773   1.746   7.732  2.8350 -3.8949 -2.4480
   96SAPS  H13S 9539   1.714   1.602   7.667  0.1111 -0.5750  0.7012
   96SAPS  C214 9540   1.573   1.694   7.802  0.0829  0.0015 -0.9030
   96SAPS  H14R 9541   1.503   1.612   7.779 -0.8690  0.4936  0.1924
   96SAPS  C215 9542   1.573   1.755   7.921  0.1124 -0.6546 -0.0315
   96SAPS  H15R 9543   1.501   1.736   8.001 -0.1502  1.5658  0.3444
   96SAPS  C216 9544   1.677   1.859   7.975 -0.5529 -0.6553  0.9855
   96SAPS  H16R 9545   1.670   1.957   7.925 -3.4902  0.2933  2.9853
   96SAPS  H16S 9546   1.777   1.813   7.958 -0.5316 -0.3011  0.0630
   96SAPS  C217 9547   1.640   1.875   8.121  0.7747 -0.3024 -0.1066
   96SAPS  H17R 9548   1.645   1.774   8.167  2.6897 -0.5920 -0.8338
   96SAPS  H17S 9549   1.539   1.912   8.147  1.3095 -0.3868  2.4280
   96SAPS  C218 9550   1.739   1.962   8.196  0.7178  0.0095  0.3408
   96SAPS  H18R 9551   1.755   2.058   8.143  0.7434  0.8115  1.7418
   96SAPS  H18S 9552   1.835   1.907   8.191  2.3449  2.6834  0.2633
   96SAPS  C219 9553   1.703   1.996   8.346 -0.0429 -0.4930  0.6293
   96SAPS  H19R 9554   1.654   2.095   8.340  1.1904  0.0780 -0.7680
   96SAPS  H19S 9555   1.798   2.023   8.396 -0.3566  1.3443  0.3040
   96SAPS  C220 9556   1.627   1.908   8.434 -0.1684  0.8656 -0.9265
   96SAPS  H20R 9557   1.617   1.946   8.538 -1.4992 -2.3702  0.2235
   96SAPS  H20S 9558   1.665   1.805   8.450 -0.0458  1.3089  2.2376
   96SAPS  H20T 9559   1.521   1.894   8.404 -0.5656  0.0842  0.7220
   96SAPS   C33 9560   1.906   1.427   7.151  0.1315  0.5836  0.1062
   96SAPS   H3X 9561   1.855   1.403   7.247  4.1188 -1.6547  1.9151
   96SAPS   H3Y 9562   1.918   1.536   7.133 -1.4725  1.1627  2.1600
   96SAPS   C34 9563   2.037   1.355   7.168 -0.0875 -0.4420 -0.1021
   96SAPS   H4X 9564   2.092   1.345   7.072  0.2452 -2.4672  0.2562
   96SAPS   H4Y 9565   2.024   1.246   7.187 -0.7082 -0.4504 -0.5380
   96SAPS   C35 9566   2.118   1.440   7.273 -0.4876  0.7580 -0.4122
   96SAPS   H5X 9567   2.112   1.548   7.249 -1.1026  1.2645  1.7968
   96SAPS   H5Y 9568   2.227   1.421   7.262 -0.5491  0.9742 -1.5969
   96SAPS   C36 9569   2.064   1.428   7.410 -0.3778 -0.1054  0.3217
   96SAPS   H6X 9570   2.057   1.319   7.433  0.2800 -0.9947 -3.1748
   96SAPS   H6Y 9571   1.961   1.470   7.419 -0.6023 -0.7092  0.6607
   96SAPS   C37 9572   2.131   1.513   7.518 -0.8274  0.1199  0.4345
   96SAPS   H7X 9573   2.122   1.616   7.479 -1.2957  0.7674  2.1677
   96SAPS   H7Y 9574   2.240   1.492   7.528 -0.9790 -0.4479  0.9928
   96SAPS   C38 9575   2.067   1.516   7.655  0.3856  0.1701 -0.2013
   96SAPS   H8X 9576   2.064   1.418   7.706 -4.2464 -0.7733 -1.7227
   96SAPS   H8Y 9577   1.963   1.554   7.642 -0.3193 -1.7669 -0.6167
   96SAPS   C39 9578   2.143   1.618   7.740  0.2119 -0.1784  0.3439
   96SAPS   H9X 9579   2.143   1.710   7.677 -0.3271 -0.3820  0.0413
   96SAPS   H9Y 9580   2.249   1.585   7.748 -0.6492 -3.5843 -0.5538
   96SAPS  C310 9581   2.081   1.647   7.878  0.2162 -0.3407  0.0403
   96SAPS  H10X 9582   2.072   1.551   7.934 -0.5668  0.8724  2.1391
   96SAPS  H10Y 9583   1.976   1.682   7.863  0.9549  0.9588 -2.6966
   96SAPS  C311 9584   2.148   1.751   7.962  0.0152  0.0939  0.2489
   96SAPS  H11X 9585   2.135   1.845   7.904 -0.6156 -1.0308 -1.5282
   96SAPS  H11Y 9586   2.255   1.721   7.963 -0.3184 -1.1755  0.0232
   96SAPS  C312 9587   2.089   1.771   8.106 -0.7694  0.4022  0.0076
   96SAPS  H12X 9588   2.111   1.687   8.175 -1.1465 -0.0114 -0.3736
   96SAPS  H12Y 9589   1.979   1.786   8.095 -0.7874  1.1724  1.0328
   96SAPS  C313 9590   2.133   1.908   8.160 -0.0190 -0.0129 -0.3505
   96SAPS  H13X 9591   2.073   1.906   8.254 -1.7310 -3.3115 -1.3610
   96SAPS  H13Y 9592   2.092   1.986   8.093  0.8652  0.9996  0.2442
   96SAPS  C314 9593   2.277   1.915   8.192 -0.0883  0.1055 -0.3856
   96SAPS  H14X 9594   2.353   1.919   8.111  1.2787  3.5531  0.8636
   96SAPS  H14Y 9595   2.303   1.826   8.254  1.2797  1.1024  0.5357
   96SAPS  C315 9596   2.314   2.034   8.283  0.1802  0.8091  1.0809
   96SAPS  H15X 9597   2.233   2.058   8.355 -2.3428  2.3219 -2.0498
   96SAPS  H15Y 9598   2.316   2.126   8.221 -1.0775  0.4327  0.4616
   96SAPS  C316 9599   2.454   2.016   8.337  0.7162 -0.3656 -0.0403
   96SAPS  H16X 9600   2.533   2.003   8.259  1.6383 -0.2499  0.8456
   96SAPS  H16Y 9601   2.459   1.921   8.394 -4.0000 -0.6438  0.2837
   96SAPS  C317 9602   2.486   2.134   8.430  0.6022 -0.7927 -0.1080
   96SAPS  H17X 9603   2.397   2.159   8.491 -0.0868 -1.3227 -0.8827
   96SAPS  H17Y 9604   2.510   2.225   8.371  3.6009  1.6948  4.3151
   96SAPS  C318 9605   2.616   2.107   8.521  1.1426 -0.5897 -0.1354
   96SAPS  H18X 9606   2.592   2.018   8.583 -0.9626 -0.2865 -0.4091
   96SAPS  H18Y 9607   2.636   2.196   8.584 -0.5366 -1.2718  1.4611
   96SAPS  H18Z 9608   2.696   2.080   8.449  1.3968  1.8580 -0.8601
   97SAPS     N 9609   5.313   0.119   6.111  0.8048  0.6586  0.0781
   97SAPS   HN1 9610   5.342   0.037   6.168  0.3247  0.3334 -0.1383
   97SAPS   HN2 9611   5.385   0.161   6.049 -0.5641  3.8142  0.4094
   97SAPS   HN3 9612   5.273   0.198   6.165  0.7374  0.5218  0.2283
   97SAPS   C12 9613   5.202   0.068   6.020 -0.7366  0.0671  0.3450
   97SAPS  H12A 9614   5.151   0.147   5.966 -2.1972 -0.5430  0.7807
   97SAPS   C13 9615   5.254  -0.034   5.914 -0.1955  0.9898  0.6240
   97SAPS  O13A 9616   5.367  -0.094   5.930  0.8301 -0.8299 -0.2981
   97SAPS  O13B 9617   5.168  -0.085   5.838  0.2648  0.3287 -0.5210
   97SAPS   C11 9618   5.096   0.009   6.113 -0.6599 -0.1428 -0.5736
   97SAPS  H11A 9619   5.145  -0.080   6.157  0.1099 -0.1721 -1.4680
   97SAPS  H11B 9620   5.011  -0.019   6.048 -1.2571  0.8903 -0.2656
   97SAPS     P 9621   4.907   0.080   6.278 -0.4629  0.2661  0.2819
   97SAPS   O13 9622   4.829   0.207   6.269 -0.2165  0.0219  0.0055
   97SAPS   O14 9623   4.847  -0.050   6.227 -0.3444  0.3321  0.1333
   97SAPS   O12 9624   5.051   0.106   6.216 -0.1749  0.1637  0.2215
   97SAPS   O11 9625   4.947   0.064   6.429  0.8657  0.3411 -0.1649
   97SAPS    C1 9626   5.001  -0.057   6.481 -0.2090  0.4174 -0.5720
   97SAPS    HA 9627   4.931  -0.115   6.545  0.0577 -0.1747 -0.8114
   97SAPS    HB 9628   5.029  -0.131   6.404 -0.7032 -0.7082  0.2990
   97SAPS    C2 9629   5.133  -0.029   6.560 -0.4313 -0.9239 -0.2651
   97SAPS    HS 9630   5.185  -0.120   6.596 -2.2955 -1.2149  1.9443
   97SAPS   O21 9631   5.095   0.050   6.677  0.5490  0.0484 -0.0032
   97SAPS   C21 9632   5.037  -0.019   6.769 -0.3090 -0.5190  0.1216
   97SAPS   O22 9633   5.022  -0.137   6.774  0.3148  0.7626  0.2818
   97SAPS   C22 9634   4.990   0.089   6.879  0.3605 -0.2231  0.1887
   97SAPS   H2R 9635   5.033   0.189   6.857 -0.8594  0.6813  1.7915
   97SAPS   H2S 9636   4.880   0.094   6.867  0.4144 -0.5196 -0.5031
   97SAPS    C3 9637   5.240   0.051   6.478  0.4417  0.3411  0.3991
   97SAPS    HX 9638   5.193   0.144   6.441  4.4688  1.6120 -2.0771
   97SAPS    HY 9639   5.261  -0.008   6.386  1.1798  1.7233 -0.3392
   97SAPS   O31 9640   5.363   0.068   6.550  0.1257  0.4877 -0.0551
   97SAPS   C31 9641   5.439   0.152   6.491 -0.6675  0.1697 -0.0396
   97SAPS   O32 9642   5.405   0.217   6.391  0.0925  0.1700 -0.4883
   97SAPS   C32 9643   5.575   0.156   6.554 -0.0470  0.2432 -1.0133
   97SAPS   H2X 9644   5.633   0.240   6.512  1.1056  0.2997  0.5824
   97SAPS   H2Y 9645   5.620   0.056   6.536 -0.6084  0.1505 -1.9494
   97SAPS   C23 9646   5.025   0.059   7.031 -0.0028 -0.4715 -0.3270
   97SAPS   H3R 9647   5.014   0.152   7.090 -0.3274 -1.1384  0.6936
   97SAPS   H3S 9648   5.132   0.029   7.025 -0.1228 -0.7588 -1.2857
   97SAPS   C24 9649   4.949  -0.049   7.093 -0.1680  0.8897 -0.6321
   97SAPS   H4R 9650   4.994  -0.068   7.193  1.5593 -0.1690 -1.5624
   97SAPS   H4S 9651   4.959  -0.138   7.027 -0.2788  2.8680 -3.4964
   97SAPS   C25 9652   4.808  -0.005   7.120  0.1811 -1.0131 -0.1587
   97SAPS   H5R 9653   4.740  -0.036   7.039 -0.2857 -0.1426 -0.1086
   97SAPS   C26 9654   4.754   0.062   7.221  0.0765 -0.2397  1.0656
   97SAPS   H6R 9655   4.646   0.080   7.210  0.2509  1.4509  1.8625
   97SAPS   C27 9656   4.824   0.115   7.343 -0.3913  0.4920  0.1594
   97SAPS   H7R 9657   4.782   0.215   7.370 -1.0356  0.2538  0.0410
   97SAPS   H7S 9658   4.933   0.125   7.321 -0.2426  0.2230  0.7528
   97SAPS   C28 9659   4.838   0.022   7.460 -0.0016  0.3533  0.0072
   97SAPS   H8R 9660   4.827  -0.084   7.433  0.3952  0.8461 -2.2503
   97SAPS   C29 9661   4.867   0.054   7.587 -0.1676 -0.0890  0.4506
   97SAPS   H9R 9662   4.882  -0.025   7.662  0.4375  0.1160  0.5507
   97SAPS  C210 9663   4.886   0.201   7.636  0.4604 -0.2518  0.0788
   97SAPS  H10R 9664   4.913   0.269   7.553 -1.4127  1.7633  1.0289
   97SAPS  H10S 9665   4.979   0.201   7.696  0.8135 -1.7158 -0.4359
   97SAPS  C211 9666   4.784   0.274   7.712 -0.0171  0.7410  0.3410
   97SAPS  H11R 9667   4.729   0.352   7.657 -1.0585  1.3724  2.1819
   97SAPS  C212 9668   4.766   0.249   7.844 -0.6728 -0.4277 -0.1280
   97SAPS  H12R 9669   4.686   0.303   7.898 -0.7960 -2.8061  2.2992
   97SAPS  C213 9670   4.840   0.162   7.931 -0.1293  0.6843  0.0475
   97SAPS  H13R 9671   4.890   0.075   7.883 -0.5317  0.0623  0.7371
   97SAPS  H13S 9672   4.770   0.117   8.005 -2.8318  1.7319 -1.7414
   97SAPS  C214 9673   4.947   0.234   8.008  0.6357 -0.3233 -1.2514
   97SAPS  H14R 9674   4.968   0.333   7.967 -2.4784  1.9162  1.9927
   97SAPS  C215 9675   5.013   0.186   8.111 -0.6393  0.7287  0.0979
   97SAPS  H15R 9676   5.079   0.254   8.168 -1.5985  1.1604  0.7127
   97SAPS  C216 9677   4.999   0.051   8.172 -0.1394  0.2327 -0.0339
   97SAPS  H16R 9678   5.082  -0.014   8.139  0.6478  0.2031  1.8854
   97SAPS  H16S 9679   4.906   0.004   8.134  0.3228 -0.1242 -0.7293
   97SAPS  C217 9680   4.980   0.036   8.329 -0.3635  0.5224 -0.4489
   97SAPS  H17R 9681   4.984  -0.074   8.347  2.8704  0.7179  0.8441
   97SAPS  H17S 9682   4.898   0.087   8.383 -1.6059 -3.2438  1.6409
   97SAPS  C218 9683   5.106   0.086   8.403 -0.1210  0.1873 -0.0217
   97SAPS  H18R 9684   5.107   0.197   8.403  2.6445  0.2593  0.9606
   97SAPS  H18S 9685   5.203   0.065   8.353 -0.2653 -0.0874 -0.1884
   97SAPS  C219 9686   5.104   0.049   8.552 -0.6160  0.0589  0.0384
   97SAPS  H19R 9687   5.104  -0.060   8.576 -0.9615 -0.6234 -2.6891
   97SAPS  H19S 9688   5.013   0.097   8.595 -1.2227 -0.7597 -0.2982
   97SAPS  C220 9689   5.219   0.117   8.626  0.9727  0.4069  0.2462
   97SAPS  H20R 9690   5.313   0.069   8.595  2.3153  2.1470  1.3739
   97SAPS  H20S 9691   5.198   0.115   8.736 -0.2933  0.4697  0.0240
   97SAPS  H20T 9692   5.226   0.223   8.592 -1.4889  0.3379 -0.6472
   97SAPS   C33 9693   5.565   0.188   6.706 -0.4941 -0.3865  0.3265
   97SAPS   H3X 9694   5.484   0.132   6.758 -1.7901  0.4795 -0.7026
   97SAPS   H3Y 9695   5.546   0.297   6.719 -0.4104 -0.3121 -0.1787
   97SAPS   C34 9696   5.693   0.150   6.777  0.0594  0.0703 -0.1969
   97SAPS   H4X 9697   5.775   0.215   6.740 -0.7155  0.7543 -0.7554
   97SAPS   H4Y 9698   5.724   0.047   6.750  0.7483  0.6693 -1.8743
   97SAPS   C35 9699   5.695   0.183   6.927  0.4225 -0.4383  0.7790
   97SAPS   H5X 9700   5.615   0.131   6.985 -0.5357  1.3058  1.0874
   97SAPS   H5Y 9701   5.669   0.287   6.898  0.3878 -1.0751 -1.7002
   97SAPS   C36 9702   5.833   0.159   6.995 -0.1956  0.8838  1.2448
   97SAPS   H6X 9703   5.910   0.221   6.944  0.2921 -1.1074 -0.5923
   97SAPS   H6Y 9704   5.856   0.052   6.975  0.4863  1.3479 -0.6678
   97SAPS   C37 9705   5.826   0.180   7.147  0.3580  0.0208  1.1032
   97SAPS   H7X 9706   5.745   0.121   7.196 -0.0665 -0.6162 -0.3316
   97SAPS   H7Y 9707   5.796   0.287   7.154 -2.3923 -0.6494  0.9852
   97SAPS   C38 9708   5.946   0.160   7.240 -0.5338 -0.0854  0.9449
   97SAPS   H8X 9709   6.013   0.243   7.211 -1.3917 -0.3441 -2.1633
   97SAPS   H8Y 9710   6.005   0.069   7.215  3.2357  2.6728 -1.2228
   97SAPS   C39 9711   5.903   0.159   7.385 -0.8607 -0.7038 -0.7115
   97SAPS   H9X 9712   5.824   0.082   7.397 -0.9936 -0.7404 -1.6931
   97SAPS   H9Y 9713   5.854   0.258   7.388 -1.4877 -0.9067 -2.6014
   97SAPS  C310 9714   6.020   0.140   7.483 -0.3804 -0.2296  0.5221
   97SAPS  H10X 9715   6.091   0.222   7.459 -1.0004  0.6629  1.6386
   97SAPS  H10Y 9716   6.058   0.038   7.458  0.0462 -0.1872  0.9835
   97SAPS  C311 9717   5.979   0.130   7.629  0.9317  0.1406 -0.7218
   97SAPS  H11X 9718   5.923   0.036   7.646  3.2266 -1.4121 -1.2742
   97SAPS  H11Y 9719   5.897   0.203   7.650 -1.4357 -2.4519 -0.3211
   97SAPS  C312 9720   6.101   0.145   7.725  0.2613  0.8203  0.0124
   97SAPS  H12X 9721   6.169   0.223   7.685  0.5902 -0.0846 -1.2747
   97SAPS  H12Y 9722   6.165   0.055   7.719 -1.7624 -0.5739 -2.4543
   97SAPS  C313 9723   6.063   0.179   7.868 -0.1080 -0.0664  0.1310
   97SAPS  H13X 9724   6.035   0.286   7.878 -0.7338 -0.3038  1.0508
   97SAPS  H13Y 9725   6.160   0.161   7.917 -0.7644 -1.6558  0.8959
   97SAPS  C314 9726   5.953   0.083   7.925 -0.0406 -0.1146 -1.2155
   97SAPS  H14X 9727   5.994  -0.018   7.903  1.8772  0.8268 -2.2035
   97SAPS  H14Y 9728   5.854   0.095   7.877 -0.7649 -1.3925 -0.1160
   97SAPS  C315 9729   5.943   0.102   8.079  0.4767  0.0338  0.0804
   97SAPS  H15X 9730   6.049   0.123   8.109  0.4215 -0.8421  0.9653
   97SAPS  H15Y 9731   5.904   0.010   8.129  0.7599  0.5023  1.1903
   97SAPS  C316 9732   5.868   0.225   8.124  0.2343 -1.1844  0.4501
   97SAPS  H16X 9733   5.767   0.207   8.082  1.1320 -0.8594 -2.0034
   97SAPS  H16Y 9734   5.912   0.315   8.076 -2.7041 -0.4436 -1.1246
   97SAPS  C317 9735   5.857   0.238   8.275  0.3410 -0.0094 -0.3381
   97SAPS  H17X 9736   5.815   0.337   8.300 -0.1935 -0.1404 -0.7119
   97SAPS  H17Y 9737   5.962   0.241   8.311  0.7936 -0.2409 -1.5687
   97SAPS  C318 9738   5.787   0.130   8.358  0.6920  0.8359 -0.3608
   97SAPS  H18X 9739   5.809   0.160   8.463  1.0171 -1.9890  0.4541
   97SAPS  H18Y 9740   5.828   0.033   8.322  0.0607  1.3918 -2.7984
   97SAPS  H18Z 9741   5.683   0.130   8.319  1.3076 -0.3968 -2.1385
   98SAPS     N 9742   6.752   6.549   6.167  0.1803  0.5924  0.1665
   98SAPS   HN1 9743   6.668   6.535   6.108  0.8519 -2.2009 -0.2631
   98SAPS   HN2 9744   6.726   6.600   6.254 -0.3795 -0.6838  0.7603
   98SAPS   HN3 9745   6.824   6.605   6.117 -2.1383  2.0640 -1.7060
   98SAPS   C12 9746   6.819   6.418   6.196 -0.1260 -0.3794 -0.1592
   98SAPS  H12A 9747   6.751   6.354   6.251  0.6670  0.4620  1.8858
   98SAPS   C13 9748   6.844   6.337   6.068 -1.0142  0.5796 -0.0849
   98SAPS  O13A 9749   6.809   6.381   5.959  0.0771 -0.2996  0.2553
   98SAPS  O13B 9750   6.890   6.218   6.083  0.1810 -0.0004  0.4346
   98SAPS   C11 9751   6.953   6.456   6.270 -0.6084  0.2879 -0.0055
   98SAPS  H11A 9752   7.011   6.365   6.299 -1.4641 -0.2147  0.1636
   98SAPS  H11B 9753   6.921   6.503   6.365 -3.2545  1.6517 -1.4616
   98SAPS     P 9754   7.105   6.663   6.249  0.2824  0.2052 -0.3806
   98SAPS   O13 9755   7.191   6.727   6.149  0.0248 -0.5947  0.3288
   98SAPS   O14 9756   7.000   6.755   6.312  0.1812  0.4413  0.1145
   98SAPS   O12 9757   7.027   6.542   6.187 -0.2543 -0.4621 -0.2620
   98SAPS   O11 9758   7.190   6.593   6.365 -0.0176  0.1601 -0.0115
   98SAPS    C1 9759   7.269   6.673   6.451 -0.0437  0.6741  0.3996
   98SAPS    HA 9760   7.354   6.611   6.487 -1.7808 -1.1775  1.5518
   98SAPS    HB 9761   7.319   6.756   6.398  1.2244 -0.4273 -0.1863
   98SAPS    C2 9762   7.189   6.733   6.576  0.0028  0.2746  0.1683
   98SAPS    HS 9763   7.143   6.832   6.558 -0.3327  0.3768  1.5037
   98SAPS   O21 9764   7.276   6.737   6.686  0.0841  0.1120  0.5304
   98SAPS   C21 9765   7.359   6.833   6.705  0.0387  0.5375  1.0285
   98SAPS   O22 9766   7.367   6.932   6.626  0.1401  0.6990 -0.3256
   98SAPS   C22 9767   7.444   6.823   6.828 -0.0821 -0.1912  0.6699
   98SAPS   H2R 9768   7.489   6.722   6.842 -1.1676 -0.8349 -0.2213
   98SAPS   H2S 9769   7.524   6.894   6.799 -0.5036 -0.5372 -1.5282
   98SAPS    C3 9770   7.075   6.634   6.617  0.0544 -0.5974  0.5157
   98SAPS    HX 9771   7.112   6.530   6.626  1.3633 -0.1311  0.7465
   98SAPS    HY 9772   7.003   6.634   6.533  0.8891 -0.5506 -0.2065
   98SAPS   O31 9773   7.010   6.671   6.742  0.0712 -0.2585 -0.3889
   98SAPS   C31 9774   6.937   6.573   6.785  0.3021 -0.3159  0.3755
   98SAPS   O32 9775   6.926   6.465   6.728  0.2298 -0.1365 -0.7362
   98SAPS   C32 9776   6.860   6.618   6.914  0.0532  0.5016  0.1480
   98SAPS   H2X 9777   6.908   6.578   7.005  0.7492  1.3440  0.1594
   98SAPS   H2Y 9778   6.759   6.573   6.905  1.4254 -2.5987 -1.0734
   98SAPS   C23 9779   7.372   6.863   6.959  0.3963 -0.1758 -0.0724
   98SAPS   H3R 9780   7.341   6.968   6.943  1.1602  0.3408  1.6807
   98SAPS   H3S 9781   7.435   6.877   7.049  1.0403  0.4145 -0.6163
   98SAPS   C24 9782   7.259   6.762   7.001  0.0257  0.4198  0.2882
   98SAPS   H4R 9783   7.200   6.741   6.910  1.7818  2.0479 -1.2986
   98SAPS   H4S 9784   7.189   6.808   7.074  0.5502  0.0130  1.0665
   98SAPS   C25 9785   7.322   6.642   7.067 -0.2054  0.4162 -0.0046
   98SAPS   H5R 9786   7.395   6.599   6.998  0.2500  2.3232 -0.7664
   98SAPS   C26 9787   7.302   6.587   7.193  0.4219  0.6821 -0.3557
   98SAPS   H6R 9788   7.357   6.498   7.227 -0.2598 -0.5588 -2.3812
   98SAPS   C27 9789   7.197   6.636   7.292  0.6184  0.3195 -0.2116
   98SAPS   H7R 9790   7.167   6.554   7.360 -1.0408 -1.3377 -2.7893
   98SAPS   H7S 9791   7.096   6.641   7.247  0.4443 -1.4971 -0.0740
   98SAPS   C28 9792   7.222   6.766   7.362 -0.4467 -0.3911  0.0007
   98SAPS   H8R 9793   7.233   6.850   7.292 -0.1762 -0.5643 -0.1644
   98SAPS   C29 9794   7.232   6.791   7.495 -0.2624 -0.2383 -0.7537
   98SAPS   H9R 9795   7.258   6.893   7.528  1.3321 -1.0509  0.6457
   98SAPS  C210 9796   7.231   6.686   7.607 -0.2254 -0.0418 -0.1560
   98SAPS  H10R 9797   7.279   6.591   7.577 -0.5778 -0.8098  1.5640
   98SAPS  H10S 9798   7.124   6.658   7.620 -0.2490 -0.1215 -0.5016
   98SAPS  C211 9799   7.301   6.730   7.736  0.5382  0.3709  0.1478
   98SAPS  H11R 9800   7.408   6.753   7.729  1.5503 -3.4289  1.2118
   98SAPS  C212 9801   7.244   6.730   7.855 -0.0467  0.4457 -1.0292
   98SAPS  H12R 9802   7.302   6.767   7.941  0.1895  0.2114 -1.0887
   98SAPS  C213 9803   7.103   6.683   7.891 -0.5946 -0.3127 -0.4994
   98SAPS  H13R 9804   7.112   6.608   7.972  1.1177 -0.1008 -0.4435
   98SAPS  H13S 9805   7.059   6.625   7.808 -2.1303  1.7798 -1.2196
   98SAPS  C214 9806   7.033   6.805   7.936 -0.0475  0.7727  0.6178
   98SAPS  H14R 9807   7.038   6.881   7.856  1.0808 -0.6829 -0.7608
   98SAPS  C215 9808   6.956   6.825   8.045  0.1424 -0.5489 -0.2503
   98SAPS  H15R 9809   6.914   6.927   8.047  0.6127 -0.3647  0.8059
   98SAPS  C216 9810   6.923   6.729   8.159  0.1633 -0.8661  0.3369
   98SAPS  H16R 9811   6.973   6.769   8.251  2.5766  1.8104 -1.9291
   98SAPS  H16S 9812   6.962   6.628   8.135  1.2235 -0.5582  0.7045
   98SAPS  C217 9813   6.772   6.723   8.171 -0.5520  0.2157  0.3915
   98SAPS  H17R 9814   6.714   6.663   8.096 -0.6509  0.1032  0.5568
   98SAPS  H17S 9815   6.729   6.825   8.165 -1.7546 -0.3188 -3.3615
   98SAPS  C218 9816   6.725   6.658   8.301  0.5546  0.5342  0.5586
   98SAPS  H18R 9817   6.777   6.560   8.307  2.2197  1.4120  1.0431
   98SAPS  H18S 9818   6.616   6.638   8.288  0.9742 -1.3236 -0.5279
   98SAPS  C219 9819   6.732   6.739   8.428  0.0616  0.2605 -0.0428
   98SAPS  H19R 9820   6.837   6.748   8.465 -0.0498  1.9502 -0.0495
   98SAPS  H19S 9821   6.676   6.689   8.509  2.1234 -1.7887  0.2277
   98SAPS  C220 9822   6.668   6.873   8.414 -0.3900  0.3265 -0.3681
   98SAPS  H20R 9823   6.727   6.939   8.347 -0.6233  1.4823  0.5221
   98SAPS  H20S 9824   6.669   6.923   8.513  2.1075  1.9981 -1.1550
   98SAPS  H20T 9825   6.564   6.873   8.376 -0.8794  0.2616  0.9269
   98SAPS   C33 9826   6.836   6.767   6.927  0.0567 -0.1643  0.0609
   98SAPS   H3X 9827   6.769   6.798   6.843 -2.5827 -1.1592  1.6611
   98SAPS   H3Y 9828   6.934   6.818   6.918  0.9158 -1.4384  1.7348
   98SAPS   C34 9829   6.767   6.812   7.065 -0.2742  0.6379 -0.4498
   98SAPS   H4X 9830   6.668   6.762   7.075  0.0123  0.0334 -0.5568
   98SAPS   H4Y 9831   6.749   6.921   7.059  0.6063  0.7592 -1.1749
   98SAPS   C35 9832   6.850   6.799   7.192  0.0228  0.4063  0.4024
   98SAPS   H5X 9833   6.944   6.858   7.187  1.4095 -1.6881  0.2303
   98SAPS   H5Y 9834   6.879   6.692   7.205 -0.2577  0.4808  1.7497
   98SAPS   C36 9835   6.786   6.834   7.322 -0.3642 -0.2542 -0.2590
   98SAPS   H6X 9836   6.696   6.768   7.325 -0.8392  0.3994  2.3671
   98SAPS   H6Y 9837   6.743   6.936   7.325 -0.0819 -0.1548  0.5565
   98SAPS   C37 9838   6.873   6.809   7.445 -0.2732  0.2082 -0.2029
   98SAPS   H7X 9839   6.938   6.899   7.456 -0.8531  0.6250 -0.1225
   98SAPS   H7Y 9840   6.933   6.718   7.427  1.6815  0.6252  3.3603
   98SAPS   C38 9841   6.793   6.769   7.565  0.5601  0.0611 -0.3207
   98SAPS   H8X 9842   6.848   6.713   7.644 -0.8763  1.6245  1.8931
   98SAPS   H8Y 9843   6.705   6.708   7.536  2.5302 -1.1466 -4.6203
   98SAPS   C39 9844   6.734   6.888   7.641 -0.5539  0.2141 -0.2135
   98SAPS   H9X 9845   6.687   6.960   7.572  0.5333  0.3580 -0.8340
   98SAPS   H9Y 9846   6.823   6.941   7.683  1.9774 -1.5507 -2.9370
   98SAPS  C310 9847   6.631   6.858   7.752  0.1420 -0.4877 -0.1451
   98SAPS  H10X 9848   6.674   6.768   7.800 -0.1060 -0.2317  0.5668
   98SAPS  H10Y 9849   6.531   6.832   7.711  0.1898  1.3802 -1.5907
   98SAPS  C311 9850   6.627   6.970   7.854 -0.2442 -0.3721  0.4720
   98SAPS  H11X 9851   6.612   7.069   7.808 -0.4106 -0.9088 -0.6656
   98SAPS  H11Y 9852   6.729   6.972   7.897  0.2797  0.1184 -0.7734
   98SAPS  C312 9853   6.514   6.949   7.953 -0.7364 -0.5968 -0.2982
   98SAPS  H12X 9854   6.531   6.851   8.003  0.8075  0.0126  0.4331
   98SAPS  H12Y 9855   6.418   6.949   7.896  0.1965  3.2437 -2.1765
   98SAPS  C313 9856   6.491   7.069   8.053  0.2806 -0.1525 -0.2199
   98SAPS  H13X 9857   6.534   7.163   8.013 -0.9899 -0.2309 -1.8125
   98SAPS  H13Y 9858   6.548   7.051   8.148 -1.6129 -1.9635  0.6399
   98SAPS  C314 9859   6.345   7.093   8.093 -0.5420 -0.0821 -0.1289
   98SAPS  H14X 9860   6.298   6.993   8.106 -1.9406  0.3274 -1.7024
   98SAPS  H14Y 9861   6.292   7.143   8.009 -0.3588  0.3048 -0.0176
   98SAPS  C315 9862   6.325   7.187   8.207  0.3193  0.0305  0.1202
   98SAPS  H15X 9863   6.391   7.160   8.293 -0.6407 -0.0035  0.8691
   98SAPS  H15Y 9864   6.223   7.188   8.250 -0.2505  2.0173 -1.1588
   98SAPS  C316 9865   6.353   7.334   8.174  0.1072 -0.5489 -0.2263
   98SAPS  H16X 9866   6.283   7.366   8.093 -0.0279  1.1640  0.5352
   98SAPS  H16Y 9867   6.457   7.364   8.147  0.0290  0.1641  0.2418
   98SAPS  C317 9868   6.301   7.412   8.296 -0.0968  0.1180 -0.4164
   98SAPS  H17X 9869   6.197   7.378   8.315 -0.7218  1.4375 -1.2743
   98SAPS  H17Y 9870   6.304   7.515   8.254 -1.3241  1.0723  1.6906
   98SAPS  C318 9871   6.381   7.394   8.423 -0.7684 -0.9373  0.2863
   98SAPS  H18X 9872   6.325   7.459   8.493 -0.6424  0.7643 -1.1177
   98SAPS  H18Y 9873   6.488   7.420   8.409 -0.8502  0.3034  1.7410
   98SAPS  H18Z 9874   6.386   7.287   8.452  0.9390 -0.6474  1.1823
   99SAPS     N 9875   2.422   2.387   6.070  0.3050 -0.2492 -0.6767
   99SAPS   HN1 9876   2.362   2.304   6.088 -1.8748  1.3031 -0.3825
   99SAPS   HN2 9877   2.461   2.395   5.974 -0.8925  3.8203 -0.9965
   99SAPS   HN3 9878   2.502   2.398   6.135 -1.3950  0.7405  1.3685
   99SAPS   C12 9879   2.327   2.502   6.069  0.1258  0.0369 -0.4817
   99SAPS  H12A 9880   2.392   2.587   6.053  0.3367  0.0219  0.2838
   99SAPS   C13 9881   2.225   2.490   5.955  0.2136 -0.2394 -0.3341
   99SAPS  O13A 9882   2.226   2.399   5.868 -0.4757 -0.2322 -0.3259
   99SAPS  O13B 9883   2.152   2.594   5.934  0.0726  0.2392 -0.3971
   99SAPS   C11 9884   2.246   2.512   6.197  0.2707  0.4450 -0.0231
   99SAPS  H11A 9885   2.192   2.417   6.214  2.1324 -0.4049  1.5075
   99SAPS  H11B 9886   2.166   2.589   6.186  0.4974  0.7392  0.3498
   99SAPS     P 9887   2.371   2.674   6.370  0.2317  0.1802 -0.2570
   99SAPS   O13 9888   2.498   2.671   6.447  0.2266 -0.1768 -0.4630
   99SAPS   O14 9889   2.359   2.775   6.265 -0.7060  0.3170 -0.1358
   99SAPS   O12 9890   2.337   2.530   6.308  0.7230  0.2207  0.1826
   99SAPS   O11 9891   2.261   2.697   6.477 -0.2647  0.2341  0.0633
   99SAPS    C1 9892   2.136   2.753   6.458  0.2538  0.5604  0.0712
   99SAPS    HA 9893   2.096   2.742   6.355  0.8855 -0.7138 -0.0582
   99SAPS    HB 9894   2.068   2.685   6.511 -0.0879  0.2113 -0.8014
   99SAPS    C2 9895   2.134   2.900   6.508  0.3479  0.1419  0.0180
   99SAPS    HS 9896   2.209   2.951   6.444  0.4889 -0.6485 -0.4518
   99SAPS   O21 9897   2.165   2.900   6.648 -0.2964 -0.7981 -0.3724
   99SAPS   C21 9898   2.188   3.021   6.704  0.0771 -0.7137  0.2000
   99SAPS   O22 9899   2.200   3.131   6.646  0.2861 -0.0623  0.0585
   99SAPS   C22 9900   2.229   3.006   6.848  0.5650  0.6019 -0.1508
   99SAPS   H2R 9901   2.340   3.013   6.847  0.5815  0.7240  1.0845
   99SAPS   H2S 9902   2.198   3.087   6.917  0.9453 -0.6940  1.6012
   99SAPS    C3 9903   1.991   2.967   6.486  0.1654  0.7254  0.1483
   99SAPS    HX 9904   1.975   2.978   6.377  0.5096 -1.1345 -0.1200
   99SAPS    HY 9905   1.989   3.070   6.527  1.0459  0.4638  0.8947
   99SAPS   O31 9906   1.885   2.887   6.546  0.2884  0.0048  0.2353
   99SAPS   C31 9907   1.760   2.924   6.512 -1.1978 -0.4265  0.8069
   99SAPS   O32 9908   1.729   3.017   6.441  0.1639  0.4484  0.1374
   99SAPS   C32 9909   1.662   2.819   6.579 -0.8018  0.2729  0.3921
   99SAPS   H2X 9910   1.692   2.722   6.535  0.2931  0.8740 -0.2220
   99SAPS   H2Y 9911   1.556   2.846   6.557 -0.6168 -1.0744 -2.6207
   99SAPS   C23 9912   2.205   2.872   6.931 -0.0147 -0.9307  0.3968
   99SAPS   H3R 9913   2.270   2.788   6.899 -0.6698 -1.5217  0.6072
   99SAPS   H3S 9914   2.096   2.855   6.919  0.3571 -2.0413 -2.2400
   99SAPS   C24 9915   2.235   2.893   7.077  0.2020  0.1646 -0.4550
   99SAPS   H4R 9916   2.190   2.995   7.088 -2.2070 -0.6637 -1.7297
   99SAPS   H4S 9917   2.344   2.911   7.087  0.4390 -1.4390  0.0122
   99SAPS   C25 9918   2.189   2.786   7.169  0.3759  0.3341 -0.0964
   99SAPS   H5R 9919   2.244   2.692   7.154 -1.3347 -0.6506 -0.3738
   99SAPS   C26 9920   2.103   2.800   7.269  0.5382  0.4286 -0.4345
   99SAPS   H6R 9921   2.086   2.714   7.335  1.6127  1.3611  1.1216
   99SAPS   C27 9922   2.044   2.933   7.314  0.3803 -0.3282 -0.0829
   99SAPS   H7R 9923   1.999   2.986   7.227  2.1916 -2.1869 -2.3105
   99SAPS   H7S 9924   2.115   2.998   7.369 -0.4021  0.4200  0.0661
   99SAPS   C28 9925   1.925   2.904   7.403 -0.3148  0.8514  0.1431
   99SAPS   H8R 9926   1.840   2.862   7.347 -0.0744  1.7536 -0.9429
   99SAPS   C29 9927   1.916   2.934   7.528 -0.3674 -0.0416  0.0483
   99SAPS   H9R 9928   1.837   2.888   7.590  2.0209 -1.0258  2.5745
   99SAPS  C210 9929   2.019   2.995   7.619 -0.1603  0.1305  0.9604
   99SAPS  H10R 9930   2.105   3.047   7.571  1.2657 -1.2977  1.8743
   99SAPS  H10S 9931   2.069   2.912   7.672  0.2748 -0.7153 -0.7087
   99SAPS  C211 9932   1.953   3.087   7.718 -0.6979 -0.4047 -1.4616
   99SAPS  H11R 9933   1.881   3.157   7.674 -0.3918  1.2705  0.5172
   99SAPS  C212 9934   1.950   3.080   7.852 -0.7233 -0.1582  0.0738
   99SAPS  H12R 9935   1.897   3.159   7.907 -1.2192 -1.7806  2.0580
   99SAPS  C213 9936   2.024   2.968   7.930 -0.0485  0.2806 -0.7819
   99SAPS  H13R 9937   2.057   3.019   8.024  0.0954 -0.6680 -0.3035
   99SAPS  H13S 9938   2.121   2.939   7.883  0.0446  2.8446 -2.3805
   99SAPS  C214 9939   1.941   2.840   7.958 -0.5374 -0.6257 -0.3677
   99SAPS  H14R 9940   1.864   2.831   7.880 -0.2304  1.1283 -0.9088
   99SAPS  C215 9941   1.935   2.782   8.084 -0.2704  0.0693  0.1740
   99SAPS  H15R 9942   1.871   2.694   8.100 -0.4156  0.1873  0.2540
   99SAPS  C216 9943   2.017   2.823   8.203 -0.0609 -0.0441 -0.2778
   99SAPS  H16R 9944   2.097   2.896   8.180 -1.0740  0.7618 -1.3340
   99SAPS  H16S 9945   2.079   2.733   8.221 -0.0603 -0.1001 -0.5494
   99SAPS  C217 9946   1.928   2.868   8.320  0.6210 -0.2386  0.1261
   99SAPS  H17R 9947   1.833   2.812   8.316  0.7004 -0.3287 -1.9531
   99SAPS  H17S 9948   1.891   2.971   8.304  0.5806 -0.4457 -1.2206
   99SAPS  C218 9949   2.006   2.843   8.444 -1.3101  0.0156 -0.6694
   99SAPS  H18R 9950   2.095   2.910   8.444 -0.5405 -0.8437  2.1608
   99SAPS  H18S 9951   2.035   2.738   8.427  0.2458  0.1723  0.7514
   99SAPS  C219 9952   1.941   2.868   8.583  0.2428 -1.0686  0.1639
   99SAPS  H19R 9953   1.860   2.792   8.588  0.5371 -1.5150 -1.5088
   99SAPS  H19S 9954   1.891   2.966   8.597  0.8137 -0.6374 -0.7431
   99SAPS  C220 9955   2.044   2.851   8.696  0.1050  0.6055 -0.3641
   99SAPS  H20R 9956   2.100   2.757   8.678  1.3392  1.3309 -0.4399
   99SAPS  H20S 9957   1.994   2.858   8.795  1.9807  0.1142  0.6772
   99SAPS  H20T 9958   2.107   2.942   8.708 -1.2310  1.3860  1.3032
   99SAPS   C33 9959   1.676   2.801   6.735  0.0882 -0.5354 -0.4841
   99SAPS   H3X 9960   1.784   2.802   6.761 -0.3981  0.3047  1.6205
   99SAPS   H3Y 9961   1.635   2.706   6.774 -1.4411  0.6553  0.9381
   99SAPS   C34 9962   1.619   2.928   6.814  0.9008 -0.2384  0.1265
   99SAPS   H4X 9963   1.520   2.947   6.769  0.6037  0.5291  1.0729
   99SAPS   H4Y 9964   1.688   3.014   6.799 -2.2933  2.8090  1.5048
   99SAPS   C35 9965   1.618   2.881   6.961  0.8528 -0.3473  0.7700
   99SAPS   H5X 9966   1.722   2.886   6.999  0.5618 -0.9309  1.6956
   99SAPS   H5Y 9967   1.593   2.773   6.970 -0.1666 -0.1939  0.0214
   99SAPS   C36 9968   1.533   2.967   7.052  0.1402  0.2345 -0.3705
   99SAPS   H6X 9969   1.425   2.985   7.038  0.5886  2.0832 -1.9261
   99SAPS   H6Y 9970   1.568   3.073   7.053  0.7677  0.0731  1.7843
   99SAPS   C37 9971   1.545   2.922   7.195  0.2069  0.9405 -0.6742
   99SAPS   H7X 9972   1.653   2.905   7.214 -0.5342  0.1451  3.9993
   99SAPS   H7Y 9973   1.489   2.827   7.209 -0.0456  1.1925  0.0769
   99SAPS   C38 9974   1.487   3.025   7.292  0.2504  0.8012 -0.1011
   99SAPS   H8X 9975   1.382   3.045   7.264  0.0429 -0.8207 -0.5465
   99SAPS   H8Y 9976   1.544   3.119   7.274  2.4618 -0.6042 -0.8346
   99SAPS   C39 9977   1.496   2.999   7.440 -0.5088  0.5094  0.0536
   99SAPS   H9X 9978   1.600   2.988   7.477  1.2003 -1.4042 -4.5876
   99SAPS   H9Y 9979   1.446   2.902   7.460 -0.7567  0.9338  1.6203
   99SAPS  C310 9980   1.425   3.112   7.514  0.0696  0.1750 -0.2720
   99SAPS  H10X 9981   1.315   3.098   7.512  0.2073 -1.1384  0.2562
   99SAPS  H10Y 9982   1.453   3.214   7.478  0.1581  0.9866  1.9289
   99SAPS  C311 9983   1.452   3.111   7.664 -0.0529 -0.7585  0.1594
   99SAPS  H11X 9984   1.561   3.112   7.687 -0.3574  0.0173  1.7486
   99SAPS  H11Y 9985   1.414   3.011   7.693  0.6790 -1.4007 -1.0084
   99SAPS  C312 9986   1.365   3.220   7.729  0.1277 -0.8637  0.2277
   99SAPS  H12X 9987   1.256   3.227   7.711  0.0373  1.3390  1.4540
   99SAPS  H12Y 9988   1.407   3.313   7.687  0.1443 -1.8979 -2.2346
   99SAPS  C313 9989   1.388   3.233   7.881 -0.7537  0.5605 -0.1330
   99SAPS  H13X 9990   1.496   3.256   7.895 -0.6459  0.0517 -0.1336
   99SAPS  H13Y 9991   1.370   3.138   7.935 -1.0813 -0.2131 -1.5354
   99SAPS  C314 9992   1.311   3.346   7.951 -1.1406  0.2912  0.1426
   99SAPS  H14X 9993   1.323   3.427   7.876 -0.4034 -0.3832 -0.4832
   99SAPS  H14Y 9994   1.351   3.373   8.050 -0.7923  0.2172  0.0230
   99SAPS  C315 9995   1.165   3.314   7.968  0.0860 -0.1115 -0.9001
   99SAPS  H15X 9996   1.146   3.225   8.031 -0.9471 -0.2454 -1.3865
   99SAPS  H15Y 9997   1.109   3.295   7.874  0.5471 -0.2500 -1.1498
   99SAPS  C316 9998   1.097   3.436   8.038 -0.2749 -0.3495  0.2638
   99SAPS  H16X 9999   1.148   3.448   8.136 -2.2554 -2.2631  1.6199
   99SAPS  H16Y10000   0.995   3.398   8.063 -0.1179  0.5513  2.5429
   99SAPS  C31710001   1.084   3.564   7.957 -0.0601  0.4526  0.4997
   99SAPS  H17X10002   1.058   3.540   7.852  1.4946  0.6524  0.0533
   99SAPS  H17Y10003   1.184   3.610   7.953  0.4433 -0.6375  0.1193
   99SAPS  C31810004   0.979   3.652   8.021  0.9725 -0.2262 -0.0802
   99SAPS  H18X10005   0.893   3.587   8.048 -0.2593  0.7454 -1.4423
   99SAPS  H18Y10006   0.945   3.737   7.957 -0.0889 -0.8494 -0.3750
   99SAPS  H18Z10007   1.014   3.693   8.118 -0.8526  0.8235  0.1753
  100SAPS     N10008   1.564   6.075   6.345 -0.0816 -0.3562  0.1310
  100SAPS   HN110009   1.485   6.139   6.321  0.2745  0.7299  1.6594
  100SAPS   HN210010   1.520   5.981   6.338  1.7386 -1.3886  1.7297
  100SAPS   HN310011   1.607   6.101   6.436  0.2603 -0.0952 -0.1030
  100SAPS   C1210012   1.659   6.093   6.237  0.5059 -0.4562 -0.0579
  100SAPS  H12A10013   1.748   6.039   6.266 -0.5637 -1.0346  2.3822
  100SAPS   C1310014   1.618   6.035   6.102  0.5184 -0.4558 -0.6225
  100SAPS  O13A10015   1.521   5.957   6.093  0.6475  0.3886  0.5968
  100SAPS  O13B10016   1.696   6.050   6.007 -0.2920  0.6981 -0.5071
  100SAPS   C1110017   1.686   6.243   6.217 -0.0790 -0.0453  0.3699
  100SAPS  H11A10018   1.597   6.290   6.170 -1.6532 -2.6608  0.5354
  100SAPS  H11B10019   1.766   6.258   6.141  0.8453 -0.3994  1.2550
  100SAPS     P10020   1.707   6.463   6.359  0.6109  0.2360 -0.1863
  100SAPS   O1310021   1.821   6.493   6.448  0.5695  0.0184 -0.3258
  100SAPS   O1410022   1.701   6.532   6.227 -0.6466 -0.1726  0.7760
  100SAPS   O1210023   1.717   6.308   6.334  0.3903  0.2450  0.4462
  100SAPS   O1110024   1.571   6.486   6.438 -0.2904 -0.4740 -0.1178
  100SAPS    C110025   1.554   6.455   6.576  0.8887  0.2265 -0.3934
  100SAPS    HA10026   1.473   6.380   6.588 -0.4536  1.7761  0.6945
  100SAPS    HB10027   1.637   6.404   6.629 -0.0499  0.9646  1.9103
  100SAPS    C210028   1.509   6.581   6.660  1.2735  0.0307  0.9938
  100SAPS    HS10029   1.580   6.657   6.619  0.3526  0.7333  0.6627
  100SAPS   O2110030   1.531   6.561   6.803 -0.4287  0.4804 -0.0973
  100SAPS   C2110031   1.562   6.676   6.861 -0.4301 -0.2856 -0.2782
  100SAPS   O2210032   1.590   6.781   6.813 -0.3472 -0.3526 -0.2026
  100SAPS   C2210033   1.585   6.650   7.008 -0.3656 -0.3730 -0.9005
  100SAPS   H2R10034   1.499   6.603   7.060  0.8456 -1.3838  0.2527
  100SAPS   H2S10035   1.673   6.584   7.022 -0.7881 -1.5023 -3.0194
  100SAPS    C310036   1.364   6.630   6.628  0.2470  0.1783  0.0872
  100SAPS    HX10037   1.311   6.537   6.658 -0.6228  0.3591 -0.8420
  100SAPS    HY10038   1.359   6.631   6.517  0.3334  1.2220  0.0862
  100SAPS   O3110039   1.323   6.756   6.688  0.1865 -0.7398 -0.3439
  100SAPS   C3110040   1.350   6.860   6.609 -0.6335  0.0816  0.2740
  100SAPS   O3210041   1.403   6.863   6.500 -0.2431  0.0945  0.4416
  100SAPS   C3210042   1.277   6.986   6.666  0.4780 -0.3018  0.3393
  100SAPS   H2X10043   1.177   6.948   6.696 -0.6629  1.6350 -0.7714
  100SAPS   H2Y10044   1.260   7.055   6.581  0.2125 -0.8292 -0.0391
  100SAPS   C2310045   1.604   6.775   7.091 -0.6425 -0.1053 -0.3664
  100SAPS   H3R10046   1.519   6.845   7.076 -0.6588 -0.2460 -0.9568
  100SAPS   H3S10047   1.696   6.830   7.061  0.7209 -0.3819  2.9363
  100SAPS   C2410048   1.611   6.743   7.247 -0.1993  0.2415  0.3218
  100SAPS   H4R10049   1.514   6.692   7.267 -0.2252  0.0516 -0.2774
  100SAPS   H4S10050   1.603   6.845   7.292  0.0296  0.0928  0.7052
  100SAPS   C2510051   1.726   6.665   7.305 -0.6321  0.6523 -0.0972
  100SAPS   H5R10052   1.767   6.595   7.231 -1.8657 -0.8722  0.6016
  100SAPS   C2610053   1.767   6.674   7.436 -0.7893 -1.0529  0.0380
  100SAPS   H6R10054   1.863   6.628   7.463  1.7157  2.1099 -2.5935
  100SAPS   C2710055   1.709   6.763   7.542  0.0910 -0.8780  0.3649
  100SAPS   H7R10056   1.656   6.691   7.608  1.6094 -1.7852  0.6616
  100SAPS   H7S10057   1.638   6.831   7.490  0.7129  0.3028  1.0245
  100SAPS   C2810058   1.804   6.833   7.637  0.3209 -0.0838 -0.2054
  100SAPS   H8R10059   1.865   6.910   7.587 -1.1072  1.8558  0.9034
  100SAPS   C2910060   1.820   6.804   7.769 -0.4971 -0.0293  0.0936
  100SAPS   H9R10061   1.899   6.853   7.827 -0.5621  3.0940 -2.2376
  100SAPS  C21010062   1.743   6.697   7.841  0.5861 -0.2639 -0.2094
  100SAPS  H10R10063   1.724   6.615   7.768 -0.6221  1.2555 -1.6889
  100SAPS  H10S10064   1.641   6.730   7.872  0.1310 -0.9008 -0.9680
  100SAPS  C21110065   1.807   6.633   7.963 -0.2327 -0.0794  1.0065
  100SAPS  H11R10066   1.871   6.546   7.939 -1.1907 -1.0960  2.0354
  100SAPS  C21210067   1.814   6.688   8.082 -0.0260 -0.1548  0.2180
  100SAPS  H12R10068   1.877   6.639   8.158  0.0046 -0.2373  0.1396
  100SAPS  C21310069   1.759   6.823   8.116 -0.1974  0.4216  0.0328
  100SAPS  H13R10070   1.732   6.885   8.027  0.9517  0.1134 -0.5542
  100SAPS  H13S10071   1.844   6.873   8.168 -0.4842  1.4307 -0.4364
  100SAPS  C21410072   1.638   6.826   8.203 -0.1635 -0.4717 -0.5033
  100SAPS  H14R10073   1.545   6.827   8.142  0.5547  1.7623 -1.6709
  100SAPS  C21510074   1.623   6.828   8.337 -0.4109  0.0761  0.4284
  100SAPS  H15R10075   1.527   6.805   8.385 -0.4220 -0.4198  0.1792
  100SAPS  C21610076   1.745   6.816   8.429 -0.0157 -0.3426  0.2544
  100SAPS  H16R10077   1.774   6.911   8.478 -2.4068  0.4064  0.3479
  100SAPS  H16S10078   1.834   6.783   8.371  0.4328  1.3202 -0.0774
  100SAPS  C21710079   1.712   6.723   8.550 -0.1527 -0.4326 -0.4066
  100SAPS  H17R10080   1.679   6.621   8.520 -0.6457 -0.9641  1.7938
  100SAPS  H17S10081   1.625   6.765   8.604  0.6499 -0.7624  1.1946
  100SAPS  C21810082   1.833   6.710   8.644  0.2732 -0.0867 -0.4272
  100SAPS  H18R10083   1.874   6.809   8.674  0.4585 -0.1957 -0.3174
  100SAPS  H18S10084   1.907   6.650   8.588 -0.7685  0.1346 -2.1026
  100SAPS  C21910085   1.793   6.638   8.772 -0.9217 -0.7804  0.4512
  100SAPS  H19R10086   1.714   6.567   8.741 -1.9346  0.9808 -1.2134
  100SAPS  H19S10087   1.733   6.698   8.844  0.3254 -0.5050  1.2894
  100SAPS  C22010088   1.900   6.563   8.853  0.1861  0.0208 -0.3383
  100SAPS  H20R10089   1.933   6.476   8.792 -0.5472 -0.4992 -0.0174
  100SAPS  H20S10090   1.850   6.529   8.947 -0.9832 -1.3314 -1.4068
  100SAPS  H20T10091   1.987   6.631   8.861  0.2108  0.4613 -3.4264
  100SAPS   C3310092   1.356   7.059   6.782  0.2556  0.3328  0.9733
  100SAPS   H3X10093   1.418   6.986   6.836  0.9925  1.0427  1.1005
  100SAPS   H3Y10094   1.287   7.090   6.863  0.8341 -1.0925  2.0488
  100SAPS   C3410095   1.437   7.178   6.745  0.2584 -0.6783  0.7898
  100SAPS   H4X10096   1.374   7.263   6.711  1.5172 -0.0164  0.0241
  100SAPS   H4Y10097   1.508   7.146   6.666  0.0375 -0.7217  0.6064
  100SAPS   C3510098   1.512   7.229   6.872  0.0147 -0.1966 -0.3195
  100SAPS   H5X10099   1.435   7.229   6.953 -0.6013 -0.0476 -0.8930
  100SAPS   H5Y10100   1.537   7.336   6.862  0.1132  0.0452  2.0004
  100SAPS   C3610101   1.640   7.154   6.911 -0.0802 -0.4146 -0.4323
  100SAPS   H6X10102   1.711   7.180   6.829 -1.6441 -0.7078 -1.9355
  100SAPS   H6Y10103   1.621   7.045   6.910 -0.3791 -0.4157  1.4849
  100SAPS   C3710104   1.699   7.185   7.046  0.1488 -0.3212 -0.6476
  100SAPS   H7X10105   1.614   7.156   7.113  0.4070 -1.8286 -0.9234
  100SAPS   H7Y10106   1.711   7.293   7.069  1.0884 -0.6139  0.2949
  100SAPS   C3810107   1.822   7.099   7.080  0.4752  0.0680  1.3065
  100SAPS   H8X10108   1.909   7.156   7.039 -1.2628  1.9978  0.1296
  100SAPS   H8Y10109   1.812   7.006   7.021 -2.6166  2.4055 -2.3070
  100SAPS   C3910110   1.845   7.073   7.228 -0.1716  0.1805  0.0490
  100SAPS   H9X10111   1.940   7.016   7.236  0.2176  0.9083  0.7520
  100SAPS   H9Y10112   1.755   7.025   7.273 -1.0505  1.3870 -0.3835
  100SAPS  C31010113   1.858   7.209   7.299 -0.1357  0.3340 -0.0595
  100SAPS  H10X10114   1.790   7.289   7.262 -2.4449 -0.4088  2.2528
  100SAPS  H10Y10115   1.961   7.247   7.283 -1.1946  3.0433 -1.0051
  100SAPS  C31110116   1.848   7.178   7.449  0.3550  0.2461 -0.4197
  100SAPS  H11X10117   1.930   7.111   7.483 -0.2451 -0.3647 -0.1539
  100SAPS  H11Y10118   1.759   7.116   7.472 -1.6327  1.8732 -3.1028
  100SAPS  C31210119   1.846   7.300   7.543  0.3561  0.6763  0.7140
  100SAPS  H12X10120   1.756   7.362   7.527  1.1905  1.8386  0.4237
  100SAPS  H12Y10121   1.942   7.353   7.527  0.9877 -1.2498 -2.6922
  100SAPS  C31310122   1.839   7.249   7.685  0.8919  0.4824  0.1112
  100SAPS  H13X10123   1.915   7.169   7.701 -1.4154 -1.9450 -0.4477
  100SAPS  H13Y10124   1.740   7.199   7.681  1.6922 -1.3123  1.2859
  100SAPS  C31410125   1.822   7.345   7.806  0.1498 -0.4819  0.7902
  100SAPS  H14X10126   1.731   7.397   7.770 -0.3896 -1.9486 -0.0275
  100SAPS  H14Y10127   1.903   7.421   7.820 -0.6548  0.7153 -0.8207
  100SAPS  C31510128   1.792   7.284   7.941 -0.4143  0.5704 -0.1767
  100SAPS  H15X10129   1.725   7.196   7.937  1.0766 -0.6309  0.2872
  100SAPS  H15Y10130   1.748   7.365   8.003 -1.4917  0.1501 -0.3665
  100SAPS  C31610131   1.914   7.235   8.018 -0.1183 -0.3196 -0.3089
  100SAPS  H16X10132   1.986   7.317   8.037 -1.1330  0.1712  1.7391
  100SAPS  H16Y10133   1.960   7.147   7.968 -1.2380 -0.9399 -0.2873
  100SAPS  C31710134   1.866   7.190   8.157 -0.4118 -0.0467  0.1018
  100SAPS  H17X10135   1.778   7.121   8.153  0.5012 -1.3583  1.5229
  100SAPS  H17Y10136   1.834   7.283   8.208 -0.3837 -0.4781  0.9274
  100SAPS  C31810137   1.975   7.120   8.243  0.3261  0.9022  0.3532
  100SAPS  H18X10138   2.029   7.040   8.188 -0.6509  0.6225 -0.2219
  100SAPS  H18Y10139   1.927   7.085   8.336 -0.3821 -2.5376 -1.1744
  100SAPS  H18Z10140   2.052   7.198   8.262 -0.0220  1.1895  0.5876
  101OSM      N10141   5.992   0.923  10.957  0.2342 -0.1707 -0.0306
  101OSM    C1510142   5.917   0.822  11.038  0.2061  0.0827 -0.0024
  101OSM   H15A10143   5.813   0.845  11.050  0.0085 -0.3754 -0.7799
  101OSM   H15B10144   5.971   0.801  11.129  2.2415  1.1906 -0.8717
  101OSM   H15C10145   5.919   0.731  10.980  2.4412 -0.8520  1.3922
  101OSM    C1410146   6.021   1.041  11.045  0.0686 -1.0927 -0.2012
  101OSM   H14A10147   6.086   1.113  11.000 -1.1062  0.5520  0.6235
  101OSM   H14B10148   6.061   1.017  11.142  0.8132  2.5115  0.5124
  101OSM   H14C10149   5.931   1.096  11.068  1.0477  0.3756  0.2849
  101OSM    C1310150   6.124   0.870  10.914  0.0076  0.2267  0.4220
  101OSM   H13A10151   6.120   0.784  10.848  2.3426 -0.8649  1.5727
  101OSM   H13B10152   6.188   0.844  10.997  0.2266 -0.5397  0.0254
  101OSM   H13C10153   6.189   0.933  10.855  2.4562 -2.0603  0.5152
  101OSM    C1210154   5.904   0.968  10.842  0.7117  0.7884 -1.1520
  101OSM   H12A10155   5.961   1.038  10.782 -1.0652  1.0893 -2.5779
  101OSM   H12B10156   5.817   1.020  10.878  0.9550  1.1350 -1.0559
  101OSM    C1110157   5.867   0.854  10.746 -0.0313  0.7527  0.1932
  101OSM   H11A10158   5.957   0.790  10.735 -0.0111  0.6761  0.7361
  101OSM   H11B10159   5.839   0.886  10.644  0.0380  0.8220  0.1955
  101OSM      P10160   5.614   0.826  10.814 -0.4440 -0.0205  0.5978
  101OSM    O1310161   5.546   0.717  10.881  0.8496 -0.0927 -0.0560
  101OSM    O1410162   5.605   0.955  10.880  0.7387  0.0583 -0.3578
  101OSM    O1110163   5.573   0.838  10.666 -0.1143  0.2127 -0.5033
  101OSM    O1210164   5.762   0.779  10.803  0.3434  0.0893  0.4060
  101OSM    C1S10165   5.546   0.719  10.592  0.6962  0.6144 -0.5337
  101OSM    H1S10166   5.446   0.677  10.616  1.3980 -2.1210 -2.0085
  101OSM    H1T10167   5.622   0.642  10.616 -0.5171 -0.6841 -0.7591
  101OSM     NF10168   5.488   0.643  10.364  0.3808  0.5598  0.2403
  101OSM    HNF10169   5.555   0.600  10.304 -2.3545 -2.7283 -0.7649
  101OSM    C2S10170   5.529   0.755  10.441  0.0639  0.4340 -0.1879
  101OSM    H2S10171   5.442   0.822  10.428 -2.0930 -2.3744 -1.1552
  101OSM    C3S10172   5.649   0.833  10.392 -0.7667 -0.0548 -0.1372
  101OSM    H3S10173   5.737   0.772  10.422  0.6222  0.9994 -1.9164
  101OSM     O310174   5.677   0.954  10.461 -0.4501 -0.3004  0.6230
  101OSM    HO310175   5.627   0.946  10.543 -0.6047  0.9961  0.6748
  101OSM    C4S10176   5.651   0.874  10.249  0.5132  0.0918 -0.4138
  101OSM    H4S10177   5.601   0.968  10.223  0.3853  0.3590  0.7696
  101OSM    C5S10178   5.734   0.828  10.152 -0.3789 -0.8715  0.0893
  101OSM    H5S10179   5.813   0.754  10.172 -0.1897 -0.5767  0.4499
  101OSM    C6S10180   5.728   0.878  10.010  0.3603  0.1831  0.1010
  101OSM    H6S10181   5.723   0.785   9.949 -3.5301 -0.9681  1.8436
  101OSM    H6T10182   5.825   0.921   9.977  0.4271  1.0590  1.3916
  101OSM    C7S10183   5.616   0.976   9.947 -0.5244 -0.4009 -0.3084
  101OSM    H7S10184   5.650   1.079   9.974  0.8618 -0.5968 -1.1776
  101OSM    H7T10185   5.514   0.954   9.985 -0.1536 -0.5321  0.6372
  101OSM    C8S10186   5.623   0.952   9.793  0.1240  0.2493  0.6209
  101OSM    H8S10187   5.609   0.843   9.782  0.7860  0.1057  1.1540
  101OSM    H8T10188   5.723   0.976   9.750 -0.0119  2.0264  1.1889
  101OSM    C9S10189   5.523   1.038   9.716 -0.1278  1.3272 -0.2311
  101OSM    H9S10190   5.565   1.140   9.726  3.7709 -0.1934  0.5034
  101OSM    H9T10191   5.422   1.037   9.762  0.3922 -1.0121  1.0343
  101OSM   C10S10192   5.499   1.003   9.574 -0.2716 -0.2215  0.3825
  101OSM   H10S10193   5.466   0.898   9.566  0.2497 -0.7509  3.6116
  101OSM   H10T10194   5.589   1.013   9.510 -0.6668 -1.4087 -0.3943
  101OSM   C11S10195   5.395   1.102   9.516  0.1045 -0.5437 -0.1655
  101OSM   H11S10196   5.429   1.203   9.547 -0.1148 -0.4504 -0.2272
  101OSM   H11T10197   5.300   1.082   9.569 -0.3944  1.3047 -0.3137
  101OSM   C12S10198   5.393   1.090   9.365 -0.4493  0.3276 -0.0320
  101OSM   H12S10199   5.378   0.990   9.319  0.2136  0.5887 -0.8469
  101OSM   H12T10200   5.484   1.133   9.319 -1.7206  3.3111  0.0334
  101OSM   C13S10201   5.277   1.173   9.306  0.0527 -0.1740  0.7726
  101OSM   H13S10202   5.324   1.274   9.297 -1.1965  0.5353  1.8595
  101OSM   H13T10203   5.196   1.189   9.381 -0.2462  1.4800  0.1494
  101OSM   C14S10204   5.207   1.129   9.177 -0.0593 -0.3695 -0.1868
  101OSM   H14S10205   5.145   1.039   9.197  0.5704 -0.7056  0.2812
  101OSM   H14T10206   5.281   1.091   9.103  0.7117  0.4104  0.1603
  101OSM   C15S10207   5.118   1.246   9.125  0.1798 -0.2435 -0.3751
  101OSM   H15S10208   5.186   1.334   9.122  1.9563 -1.5769 -0.3685
  101OSM   H15T10209   5.041   1.255   9.205  1.1491 -0.5417  0.6040
  101OSM   C16S10210   5.057   1.226   8.988 -0.2814  0.3363  0.3973
  101OSM   H16S10211   5.013   1.125   8.979  2.9856 -1.0098 -3.7288
  101OSM   H16T10212   5.143   1.216   8.918 -0.9722  1.2225 -0.6026
  101OSM   C17S10213   4.969   1.339   8.942  0.0694  0.0680 -0.3111
  101OSM   H17S10214   4.898   1.352   9.026 -2.8328 -1.0468 -2.4508
  101OSM   H17T10215   4.917   1.305   8.850  0.8115 -0.0811 -0.6849
  101OSM   C18S10216   5.042   1.471   8.922 -0.0670  0.1186 -0.3939
  101OSM   H18S10217   5.101   1.496   9.013 -1.3811 -2.2869  1.2192
  101OSM   H18T10218   4.969   1.552   8.899 -2.4478 -1.6307  0.5757
  101OSM   H18U10219   5.118   1.461   8.841  1.5718 -0.4090  1.1528
  101OSM    C1F10220   5.373   0.581  10.363  0.1931  0.1592  0.1199
  101OSM     OF10221   5.276   0.604  10.434  0.6858 -0.0491  0.5726
  101OSM    C2F10222   5.363   0.486  10.253  0.1349 -0.4610 -0.1991
  101OSM    H2F10223   5.274   0.425  10.279  0.8452 -1.0507  0.9055
  101OSM    H2G10224   5.452   0.420  10.248 -0.4940 -1.3061 -0.3534
  101OSM    C3F10225   5.353   0.561  10.117  0.7255  0.4631 -0.0640
  101OSM    H3F10226   5.358   0.490  10.032 -1.0108 -0.7463  0.7936
  101OSM    H3G10227   5.440   0.631  10.111  1.1786 -0.0232  0.6407
  101OSM    C4F10228   5.227   0.646  10.101 -0.7331 -0.0732  0.0319
  101OSM    H4F10229   5.238   0.729  10.175  1.8163  0.1435 -0.5009
  101OSM    H4G10230   5.137   0.594  10.142  0.0857 -1.4823  0.1063
  101OSM    C5F10231   5.209   0.708   9.963 -0.0356 -1.1957  0.4713
  101OSM    H5F10232   5.307   0.750   9.930 -0.9856  0.4910 -0.3505
  101OSM    H5G10233   5.138   0.793   9.958  2.9538  1.5326  0.9018
  101OSM    C6F10234   5.146   0.612   9.874 -0.0230 -0.3832  0.7549
  101OSM    H6F10235   5.063   0.555   9.920 -1.1435 -0.5639 -1.3423
  101OSM    H6G10236   5.225   0.539   9.847  1.7041  1.2601  1.1385
  101OSM    C7F10237   5.104   0.670   9.738 -0.5804  0.5882  0.1015
  101OSM    H7F10238   5.020   0.738   9.763 -2.6649 -2.0495  0.7383
  101OSM    H7G10239   5.054   0.589   9.681  0.5062 -3.2156  3.9771
  101OSM    C8F10240   5.206   0.740   9.652 -0.3048  0.4010  0.3944
  101OSM    H8F10241   5.269   0.805   9.717  2.0824 -0.3966 -1.0240
  101OSM    H8G10242   5.150   0.804   9.581 -0.1606 -0.4943 -0.5486
  101OSM    C9F10243   5.302   0.643   9.591 -0.5007 -0.4080  0.4403
  101OSM    H9F10244   5.372   0.583   9.651 -0.6661 -2.8983 -1.6207
  101OSM   C10F10245   5.318   0.621   9.462  0.0314  0.4533 -0.0582
  101OSM   H10F10246   5.386   0.540   9.429 -0.7195  0.2076 -1.0597
  101OSM   C11F10247   5.246   0.686   9.344 -0.0518  0.8238  0.0296
  101OSM   H11F10248   5.198   0.786   9.347  0.2147  1.1647 -3.4182
  101OSM   H11G10249   5.169   0.616   9.305 -0.6969  0.6048  1.6104
  101OSM   C12F10250   5.355   0.701   9.238  0.2372  0.3887  0.9127
  101OSM   H12F10251   5.393   0.601   9.208 -2.0878 -0.3467  0.2414
  101OSM   H12G10252   5.438   0.762   9.281  0.7449 -0.2668  0.8792
  101OSM   C13F10253   5.323   0.766   9.102  0.7456 -0.3391  0.3133
  101OSM   H13F10254   5.273   0.865   9.114  0.7556 -0.3184  0.1864
  101OSM   H13G10255   5.262   0.700   9.037 -0.9360  1.2089  0.2235
  101OSM   C14F10256   5.446   0.777   9.005 -0.3124 -0.0530  0.1347
  101OSM   H14F10257   5.490   0.676   8.990 -1.3432 -0.7595  1.6001
  101OSM   H14G10258   5.521   0.845   9.051  0.3627  0.7343 -1.9939
  101OSM   C15F10259   5.407   0.838   8.871  0.1807 -0.2009  0.9953
  101OSM   H15F10260   5.359   0.930   8.911 -1.5021 -1.6632  2.5663
  101OSM   H15G10261   5.323   0.793   8.813  1.0725 -0.4852 -0.1260
  101OSM   C16F10262   5.520   0.879   8.772 -0.7351 -0.1098  0.0760
  101OSM   H16F10263   5.583   0.796   8.735 -0.8450  0.4677 -1.4650
  101OSM   H16G10264   5.584   0.948   8.832 -1.3439 -0.1695  0.8052
  101OSM   C17F10265   5.449   0.946   8.658  0.4840 -0.2153  0.1011
  101OSM   H17F10266   5.391   1.027   8.707  0.7796  1.3372 -1.9698
  101OSM   H17G10267   5.381   0.879   8.601 -0.2409 -0.8354  1.6455
  101OSM   C18F10268   5.541   1.024   8.561  0.3892 -0.1857 -0.1727
  101OSM   H18F10269   5.580   1.119   8.601  1.0783 -1.0471  1.2747
  101OSM   H18G10270   5.474   1.048   8.476  0.4405 -1.6098 -0.6530
  101OSM   H18H10271   5.616   0.958   8.513 -1.0677 -2.2201  0.1898
  102OSM      N10272   5.964   5.466  11.189  0.5241 -0.0948 -0.0739
  102OSM    C1510273   5.813   5.473  11.196  0.1911  0.5796  0.4443
  102OSM   H15A10274   5.779   5.386  11.250 -0.0992 -0.9051 -2.0153
  102OSM   H15B10275   5.770   5.476  11.097  0.0219  2.7496  0.5323
  102OSM   H15C10276   5.784   5.564  11.246 -0.9319  0.5680 -0.1662
  102OSM    C1410277   6.020   5.471  11.330 -0.9553 -0.7592  0.1611
  102OSM   H14A10278   5.963   5.399  11.387  0.2166 -0.7136  1.4601
  102OSM   H14B10279   5.999   5.565  11.378 -1.9577 -0.1552 -1.3736
  102OSM   H14C10280   6.127   5.459  11.325 -0.7975  0.5377  0.2011
  102OSM    C1310281   6.001   5.336  11.126 -0.6494  0.4387  0.1235
  102OSM   H13A10282   5.945   5.313  11.037 -0.2620 -1.4165  0.3139
  102OSM   H13B10283   5.979   5.251  11.189  1.0128 -1.1410 -1.3219
  102OSM   H13C10284   6.105   5.327  11.098 -0.9533 -2.3049 -0.4154
  102OSM    C1210285   6.024   5.576  11.101  0.5174  0.6597 -0.6182
  102OSM   H12A10286   6.127   5.578  11.130  0.2739 -0.4524  0.4067
  102OSM   H12B10287   5.992   5.675  11.130  0.9299  1.2184 -1.9662
  102OSM    C1110288   6.010   5.553  10.943 -0.6715 -0.1165  0.3154
  102OSM   H11A10289   6.067   5.460  10.922  1.7766  1.2598  0.5220
  102OSM   H11B10290   6.063   5.639  10.897  0.4538  0.3582  2.4062
  102OSM      P10291   5.800   5.676  10.881 -0.1298  0.2446 -0.0611
  102OSM    O1310292   5.655   5.635  10.882  0.2639 -0.6278  0.8650
  102OSM    O1410293   5.840   5.788  10.965  0.0307  0.2377  0.0175
  102OSM    O1110294   5.848   5.699  10.732  0.3473 -0.6085 -0.3804
  102OSM    O1210295   5.877   5.541  10.899  0.1358 -0.5465 -0.6291
  102OSM    C1S10296   5.808   5.617  10.623  0.2818  0.3804 -0.0137
  102OSM    H1S10297   5.698   5.626  10.611  0.2674  2.0511  1.0727
  102OSM    H1T10298   5.830   5.512  10.652  1.7843  0.1493 -1.8048
  102OSM     NF10299   5.795   5.620  10.370 -0.5279  0.2382  0.1933
  102OSM    HNF10300   5.817   5.535  10.324 -1.4289  0.6617 -1.0563
  102OSM    C2S10301   5.876   5.653  10.487 -0.8359  0.2293  0.2609
  102OSM    H2S10302   5.893   5.762  10.478 -0.2129  0.0042 -2.1190
  102OSM    C3S10303   6.012   5.585  10.491  0.3333 -0.5704 -0.1037
  102OSM    H3S10304   5.985   5.479  10.477 -0.4482 -0.4191  0.2400
  102OSM     O310305   6.085   5.585  10.615  0.0047  0.6991  0.0169
  102OSM    HO310306   6.031   5.644  10.669  1.9179 -0.0344  2.9984
  102OSM    C4S10307   6.095   5.638  10.373  0.2301 -0.5674 -0.7323
  102OSM    H4S10308   6.063   5.606  10.273 -1.9678  2.0294 -0.9619
  102OSM    C5S10309   6.199   5.728  10.385  0.1512  0.6923 -0.5261
  102OSM    H5S10310   6.236   5.763  10.482 -2.6332 -0.3746  1.0305
  102OSM    C6S10311   6.278   5.764  10.265  0.1009 -0.1112  0.2879
  102OSM    H6S10312   6.378   5.794  10.303 -0.7083  2.4007  0.6006
  102OSM    H6T10313   6.235   5.855  10.219 -1.0574  0.4015  2.2405
  102OSM    C7S10314   6.292   5.664  10.148 -1.2693  0.3085  0.1584
  102OSM    H7S10315   6.200   5.648  10.088 -1.0228 -0.9262  0.0769
  102OSM    H7T10316   6.324   5.565  10.189 -0.3719 -0.4962 -2.3358
  102OSM    C8S10317   6.390   5.706  10.039  0.6618  0.0579 -0.0099
  102OSM    H8S10318   6.497   5.706  10.070  0.5197  0.8330  0.5185
  102OSM    H8T10319   6.351   5.808  10.020 -2.0916 -1.1125 -1.0137
  102OSM    C9S10320   6.373   5.634   9.910  0.0394  0.9329  0.1227
  102OSM    H9S10321   6.270   5.594   9.904  0.9042 -1.2803 -1.5797
  102OSM    H9T10322   6.445   5.550   9.915  1.0629  1.8467  1.4349
  102OSM   C10S10323   6.404   5.720   9.787  0.0519 -0.5170  1.1120
  102OSM   H10S10324   6.507   5.761   9.798  0.5608 -1.9547  2.0263
  102OSM   H10T10325   6.339   5.809   9.784  2.7936  1.6214  0.7750
  102OSM   C11S10326   6.418   5.636   9.664  0.0931 -0.3338 -0.2792
  102OSM   H11S10327   6.314   5.606   9.641  0.1982  0.3941 -1.7847
  102OSM   H11T10328   6.482   5.546   9.679 -0.6951 -0.8091  0.2807
  102OSM   C12S10329   6.465   5.712   9.538  0.4657 -0.4747 -0.0322
  102OSM   H12S10330   6.558   5.769   9.557 -0.3315  0.1830  2.2052
  102OSM   H12T10331   6.383   5.779   9.505  0.4598 -1.3511 -1.9554
  102OSM   C13S10332   6.497   5.615   9.415  0.1651  0.0885 -0.2100
  102OSM   H13S10333   6.588   5.552   9.426  0.3968  0.5749  0.7437
  102OSM   H13T10334   6.528   5.694   9.343  0.5358  0.1532  0.0158
  102OSM   C14S10335   6.384   5.527   9.358 -0.1978 -0.3200  0.3986
  102OSM   H14S10336   6.294   5.592   9.365 -1.6928 -2.1110 -1.0184
  102OSM   H14T10337   6.360   5.442   9.425  0.7565 -1.9026 -1.1766
  102OSM   C15S10338   6.404   5.475   9.217 -0.2762 -0.2420  0.1429
  102OSM   H15S10339   6.328   5.398   9.195  1.7529 -1.7754 -1.9815
  102OSM   H15T10340   6.506   5.431   9.210  0.3831  0.8726  2.0136
  102OSM   C16S10341   6.397   5.588   9.111  0.1887 -0.1300 -0.3664
  102OSM   H16S10342   6.447   5.685   9.133 -2.8586  1.6535 -0.7253
  102OSM   H16T10343   6.291   5.622   9.112  0.1108 -0.3718  0.0718
  102OSM   C17S10344   6.419   5.539   8.967  0.0658  0.5914  0.7570
  102OSM   H17S10345   6.518   5.491   8.951  0.2863  0.7991  1.4631
  102OSM   H17T10346   6.427   5.628   8.901  0.4805  0.5200  0.7119
  102OSM   C18S10347   6.313   5.441   8.908  0.0916  0.7049 -0.2774
  102OSM   H18S10348   6.281   5.364   8.981  0.8993 -0.4283 -1.0729
  102OSM   H18T10349   6.343   5.385   8.817 -0.6484  1.3118 -0.9121
  102OSM   H18U10350   6.217   5.490   8.879  0.7021  0.8550 -2.2140
  102OSM    C1F10351   5.685   5.684  10.337  0.4543  0.7715  0.9812
  102OSM     OF10352   5.643   5.766  10.407  0.5825 -0.2440 -0.6979
  102OSM    C2F10353   5.623   5.648  10.205 -0.4965 -0.1638 -0.0415
  102OSM    H2F10354   5.656   5.543  10.189  1.2105 -0.0722  2.3025
  102OSM    H2G10355   5.680   5.717  10.138  0.9072  1.3968  2.5950
  102OSM    C3F10356   5.472   5.663  10.198  0.2911 -0.2733  0.0594
  102OSM    H3F10357   5.452   5.757  10.255  1.8742  1.1131 -1.5460
  102OSM    H3G10358   5.417   5.587  10.258 -1.7731  0.6127 -0.5868
  102OSM    C4F10359   5.423   5.673  10.056  0.4909  0.8477 -0.2444
  102OSM    H4F10360   5.495   5.733   9.997  1.0592 -1.3763 -1.9310
  102OSM    H4G10361   5.322   5.719  10.051 -0.5783 -1.4511 -1.4587
  102OSM    C5F10362   5.405   5.531   9.997  0.3045  0.0671  0.1762
  102OSM    H5F10363   5.369   5.475  10.085  2.3982 -0.7365  0.5847
  102OSM    H5G10364   5.506   5.496   9.968 -0.3413 -0.1545 -1.9890
  102OSM    C6F10365   5.327   5.532   9.864 -0.5888 -0.2624  0.1309
  102OSM    H6F10366   5.272   5.628   9.866  0.9953  0.7290 -1.4092
  102OSM    H6G10367   5.263   5.442   9.853 -0.3442 -0.2583 -1.5990
  102OSM    C7F10368   5.417   5.527   9.739 -0.2195 -0.3689  0.0561
  102OSM    H7F10369   5.457   5.427   9.712  0.7717  0.0991 -0.2596
  102OSM    H7G10370   5.513   5.583   9.751  0.1062 -0.7437 -0.7340
  102OSM    C8F10371   5.350   5.601   9.621 -1.2343 -0.3404  0.4933
  102OSM    H8F10372   5.438   5.622   9.556 -0.7410 -0.5356  1.0855
  102OSM    H8G10373   5.300   5.691   9.663 -0.4854 -0.6882  2.2367
  102OSM    C9F10374   5.252   5.503   9.571 -0.5853  0.1637  0.8071
  102OSM    H9F10375   5.216   5.417   9.630 -3.7817 -1.3551 -2.8848
  102OSM   C10F10376   5.209   5.511   9.446 -1.1295 -0.0712 -0.3252
  102OSM   H10F10377   5.157   5.424   9.404 -3.3154  1.3751 -0.7558
  102OSM   C11F10378   5.261   5.611   9.340  0.4418  0.0153  0.1821
  102OSM   H11F10379   5.348   5.677   9.363  2.2119 -1.5356 -1.7123
  102OSM   H11G10380   5.175   5.668   9.300  0.0879 -1.4342 -1.2148
  102OSM   C12F10381   5.320   5.541   9.219 -0.2662 -0.2099 -0.0018
  102OSM   H12F10382   5.393   5.466   9.256  0.7566  0.4473 -0.6350
  102OSM   H12G10383   5.374   5.617   9.159  0.1328 -0.7002 -0.2719
  102OSM   C13F10384   5.208   5.484   9.125 -0.2568  0.3466  0.2221
  102OSM   H13F10385   5.144   5.571   9.101 -1.2197 -0.9147 -1.9934
  102OSM   H13G10386   5.138   5.408   9.167  1.7185 -1.0766  1.1310
  102OSM   C14F10387   5.258   5.431   8.988  0.0485  0.2378 -0.1171
  102OSM   H14F10388   5.331   5.349   8.999  0.8294  0.8843 -0.4006
  102OSM   H14G10389   5.310   5.517   8.941 -0.0707  0.9472  1.0206
  102OSM   C15F10390   5.137   5.374   8.899  0.0703  0.7363  0.0036
  102OSM   H15F10391   5.073   5.461   8.872 -1.1040  0.6102  2.1451
  102OSM   H15G10392   5.086   5.301   8.966  0.4002 -0.4387 -0.9935
  102OSM   C16F10393   5.177   5.292   8.775  0.0447 -0.3739  0.1053
  102OSM   H16F10394   5.266   5.228   8.791  0.5246  0.1058 -0.5797
  102OSM   H16G10395   5.203   5.370   8.700  0.3914  0.3849  1.0043
  102OSM   C17F10396   5.067   5.202   8.711 -1.3643  0.1235 -0.0199
  102OSM   H17F10397   4.976   5.263   8.691 -1.6868 -0.4131 -0.2013
  102OSM   H17G10398   5.045   5.119   8.781  0.4130 -0.5049 -0.1589
  102OSM   C18F10399   5.111   5.155   8.568 -0.0355 -0.2326 -0.3795
  102OSM   H18F10400   5.111   5.240   8.496 -1.0042 -0.3297 -0.5115
  102OSM   H18G10401   5.034   5.086   8.526 -0.7196 -0.1349  0.6970
  102OSM   H18H10402   5.205   5.095   8.569  0.3703  0.3897 -0.5402
  103OSM      N10403   3.488   0.554  11.305  0.2545  0.4234  0.5813
  103OSM    C1510404   3.583   0.437  11.303 -0.0067 -0.1940  0.3922
  103OSM   H15A10405   3.601   0.392  11.399  2.8792 -1.0371 -0.4284
  103OSM   H15B10406   3.681   0.469  11.270 -0.0961  0.1838  0.4949
  103OSM   H15C10407   3.550   0.359  11.235  1.5568 -1.0224  0.5418
  103OSM    C1410408   3.518   0.625  11.430  0.5703  0.1229 -0.1488
  103OSM   H14A10409   3.618   0.660  11.412 -0.4126  1.6861 -3.2694
  103OSM   H14B10410   3.499   0.573  11.523 -0.0711 -0.6557 -0.7027
  103OSM   H14C10411   3.462   0.718  11.430 -0.6450 -0.5169 -2.6899
  103OSM    C1310412   3.507   0.644  11.191  0.1251  0.9329  0.2573
  103OSM   H13A10413   3.478   0.593  11.101 -0.1202  1.8709 -0.2044
  103OSM   H13B10414   3.609   0.670  11.168 -0.4755  0.0296 -4.3594
  103OSM   H13C10415   3.441   0.729  11.206  1.9636  2.7238 -1.2544
  103OSM    C1210416   3.349   0.493  11.299 -0.7956 -0.1498 -0.4191
  103OSM   H12A10417   3.281   0.565  11.344 -0.0125  0.8737 -0.8222
  103OSM   H12B10418   3.341   0.427  11.384 -2.5211  0.0775 -0.3674
  103OSM    C1110419   3.297   0.443  11.162 -0.9905 -0.0709 -0.2608
  103OSM   H11A10420   3.276   0.522  11.087 -0.3550 -0.9245 -1.3677
  103OSM   H11B10421   3.197   0.395  11.167 -0.5928 -1.3967 -3.0948
  103OSM      P10422   3.369   0.209  11.063 -0.1422  0.2883 -0.3892
  103OSM    O1310423   3.503   0.149  11.047 -0.4655 -0.2556  0.1458
  103OSM    O1410424   3.270   0.143  11.146 -0.4475  0.7863 -0.3808
  103OSM    O1110425   3.301   0.252  10.931 -0.0387  0.3684 -0.1129
  103OSM    O1210426   3.394   0.353  11.104  0.3177  0.1368  0.5591
  103OSM    C1S10427   3.356   0.338  10.836  0.1262  0.5013 -0.0389
  103OSM    H1S10428   3.456   0.296  10.810 -1.1021 -1.3139 -2.1381
  103OSM    H1T10429   3.359   0.436  10.887 -1.2779 -0.1256  1.3189
  103OSM     NF10430   3.354   0.380  10.595 -1.4615  0.6461  0.4623
  103OSM    HNF10431   3.362   0.477  10.572 -0.0176  0.3124 -0.5790
  103OSM    C2S10432   3.274   0.339  10.707 -0.4197 -0.4662  1.1220
  103OSM    H2S10433   3.235   0.237  10.687 -1.5605 -0.0410  1.0873
  103OSM    C3S10434   3.145   0.434  10.738 -0.8633 -0.3058 -0.3022
  103OSM    H3S10435   3.178   0.537  10.763  0.1943 -0.0080 -2.6288
  103OSM     O310436   3.073   0.397  10.857 -0.1895 -0.7100  0.4796
  103OSM    HO310437   3.127   0.336  10.907 -0.6856 -1.2124  0.4068
  103OSM    C4S10438   3.058   0.435  10.624  0.1493  0.5363 -0.2360
  103OSM    H4S10439   3.098   0.499  10.544 -2.5605  0.8139 -1.5167
  103OSM    C5S10440   2.944   0.360  10.602 -0.4076 -0.8143  0.3044
  103OSM    H5S10441   2.908   0.285  10.674 -0.7095 -1.6827 -0.7279
  103OSM    C6S10442   2.856   0.365  10.478  0.6244  0.2286 -0.7461
  103OSM    H6S10443   2.752   0.392  10.508  2.1033  1.6629  4.0567
  103OSM    H6T10444   2.870   0.270  10.423  4.1702 -0.5485  1.1676
  103OSM    C7S10445   2.904   0.470  10.379 -0.2547 -0.3709  0.2092
  103OSM    H7S10446   2.998   0.447  10.325 -0.1311 -0.2074  0.3520
  103OSM    H7T10447   2.928   0.568  10.427 -1.0574  1.6178 -3.0888
  103OSM    C8S10448   2.797   0.488  10.273 -0.1488 -0.7529  0.3037
  103OSM    H8S10449   2.814   0.581  10.214  0.0219  0.0767  1.6393
  103OSM    H8T10450   2.697   0.500  10.318 -0.4014 -0.7441 -0.2473
  103OSM    C9S10451   2.772   0.372  10.177 -0.3023  0.2675 -0.5134
  103OSM    H9S10452   2.729   0.292  10.240  0.6963  0.7054  0.7713
  103OSM    H9T10453   2.872   0.339  10.140  1.2983  1.4827  2.3798
  103OSM   C10S10454   2.673   0.394  10.066 -0.3330 -0.1930 -0.1586
  103OSM   H10S10455   2.708   0.478  10.003 -1.7862 -0.5043 -1.4406
  103OSM   H10T10456   2.573   0.429  10.102 -1.0522 -0.7551 -1.5443
  103OSM   C11S10457   2.645   0.267   9.987 -0.8757 -0.6644 -0.2919
  103OSM   H11S10458   2.574   0.210  10.051  0.3108  0.5800  2.2812
  103OSM   H11T10459   2.743   0.216   9.981 -0.0964  0.8329 -0.7956
  103OSM   C12S10460   2.598   0.287   9.847 -0.0854  0.6552  0.1071
  103OSM   H12S10461   2.568   0.186   9.811  0.1840  0.8663 -0.7255
  103OSM   H12T10462   2.689   0.326   9.796  0.3564  0.1740  0.5080
  103OSM   C13S10463   2.485   0.385   9.825  0.5487  0.4415  0.2051
  103OSM   H13S10464   2.532   0.485   9.840 -0.9451  1.4390 -1.4661
  103OSM   H13T10465   2.399   0.368   9.893  0.2710  1.0135  0.0018
  103OSM   C14S10466   2.413   0.377   9.690 -0.1564  0.4755 -0.3769
  103OSM   H14S10467   2.326   0.446   9.693 -0.0251  0.6494 -0.5504
  103OSM   H14T10468   2.360   0.280   9.692  1.6225 -0.5397 -0.5198
  103OSM   C15S10469   2.484   0.411   9.558 -0.1451 -0.3671 -0.4770
  103OSM   H15S10470   2.563   0.337   9.531  2.1752  2.1904 -1.1435
  103OSM   H15T10471   2.530   0.511   9.567 -1.6296  0.2570  0.5390
  103OSM   C16S10472   2.404   0.418   9.430 -0.1734  0.2857  0.1323
  103OSM   H16S10473   2.339   0.507   9.421 -1.7505 -0.9156 -0.8603
  103OSM   H16T10474   2.346   0.323   9.429  1.9676 -1.1131  0.9270
  103OSM   C17S10475   2.485   0.395   9.308 -0.3801 -0.1317  0.0875
  103OSM   H17S10476   2.535   0.297   9.322  0.4726  0.4982  1.8568
  103OSM   H17T10477   2.568   0.469   9.301  0.6551 -1.3635 -1.0862
  103OSM   C18S10478   2.398   0.405   9.183  0.0150  0.2043  0.7469
  103OSM   H18S10479   2.451   0.441   9.092 -1.5548  0.2849 -0.1610
  103OSM   H18T10480   2.321   0.483   9.201  0.8067  1.5458 -1.2496
  103OSM   H18U10481   2.346   0.309   9.167 -1.1117  0.7767  0.9001
  103OSM    C1F10482   3.459   0.311  10.541 -0.1033 -0.3047 -0.2200
  103OSM     OF10483   3.483   0.191  10.574  0.0974 -1.1415 -0.1769
  103OSM    C2F10484   3.544   0.387  10.450 -0.4999  0.4185  0.0854
  103OSM    H2F10485   3.609   0.455  10.508 -0.5894  1.3107 -0.8342
  103OSM    H2G10486   3.485   0.446  10.377 -0.7655 -0.0242 -0.0669
  103OSM    C3F10487   3.643   0.300  10.362  0.0094 -0.5762 -0.6671
  103OSM    H3F10488   3.589   0.223  10.302 -0.5438  0.3503 -1.3841
  103OSM    H3G10489   3.715   0.246  10.426  0.3022  0.0671 -0.4455
  103OSM    C4F10490   3.720   0.386  10.265 -0.8362 -0.3112 -0.1142
  103OSM    H4F10491   3.791   0.443  10.329 -1.1164  2.5846 -2.1786
  103OSM    H4G10492   3.659   0.472  10.228  1.8262  1.6064 -0.3186
  103OSM    C5F10493   3.796   0.321  10.148  0.0013  0.6016 -0.1882
  103OSM    H5F10494   3.827   0.221  10.186 -1.5400 -0.2330 -1.0368
  103OSM    H5G10495   3.895   0.372  10.147  0.6605 -0.6281 -0.1465
  103OSM    C6F10496   3.728   0.309  10.012 -0.9773 -0.6017  0.2859
  103OSM    H6F10497   3.677   0.403   9.983  1.9122  0.6152 -1.3299
  103OSM    H6G10498   3.650   0.230  10.009  0.5190 -2.0857 -1.8698
  103OSM    C7F10499   3.840   0.264   9.904  0.7877  0.1585  0.4683
  103OSM    H7F10500   3.888   0.175   9.949  1.9538  0.5899  0.1152
  103OSM    H7G10501   3.919   0.342   9.901  1.1817 -0.2497 -0.1068
  103OSM    C8F10502   3.784   0.240   9.762 -0.6061 -0.9117  0.1487
  103OSM    H8F10503   3.710   0.158   9.777 -0.1811 -1.1393  1.0691
  103OSM    H8G10504   3.866   0.195   9.702 -2.0432 -0.5125 -2.2490
  103OSM    C9F10505   3.734   0.372   9.697 -0.5833 -0.0476 -0.2749
  103OSM    H9F10506   3.819   0.434   9.665 -1.2635  0.9195 -0.2461
  103OSM   C10F10507   3.610   0.401   9.659 -0.5217 -0.4996 -0.6848
  103OSM   H10F10508   3.595   0.503   9.620  1.0430  0.3441  0.7761
  103OSM   C11F10509   3.486   0.314   9.674  0.3525  0.1648 -0.1859
  103OSM   H11F10510   3.401   0.383   9.694  1.0165  1.8333 -2.5501
  103OSM   H11G10511   3.496   0.239   9.755  2.4877 -0.2363 -0.7596
  103OSM   C12F10512   3.449   0.234   9.548  0.3041  0.5825  0.8657
  103OSM   H12F10513   3.540   0.171   9.542  2.2093  3.1023  1.4217
  103OSM   H12G10514   3.446   0.295   9.455  3.1571 -1.6093 -0.8268
  103OSM   C13F10515   3.323   0.148   9.557 -0.0752  0.7387 -0.0263
  103OSM   H13F10516   3.322   0.087   9.650 -2.4239 -0.8412 -0.9913
  103OSM   H13G10517   3.230   0.209   9.559  0.3996  1.4654  0.9973
  103OSM   C14F10518   3.305   0.048   9.438 -1.1787  0.7155 -0.3273
  103OSM   H14F10519   3.242  -0.033   9.480  0.9342 -0.1616  1.3199
  103OSM   H14G10520   3.403   0.003   9.410 -0.4056  0.6677  2.2765
  103OSM   C15F10521   3.243   0.114   9.312  0.9246 -0.6017  0.3443
  103OSM   H15F10522   3.305   0.206   9.303 -0.0257  0.1311  1.1472
  103OSM   H15G10523   3.145   0.161   9.333  1.0109 -0.2459 -0.0445
  103OSM   C16F10524   3.232   0.021   9.196  0.0894  0.2402  0.2111
  103OSM   H16F10525   3.197  -0.081   9.222  0.4105  0.6901  2.6408
  103OSM   H16G10526   3.327   0.007   9.140 -0.2798  2.6554 -1.1578
  103OSM   C17F10527   3.146   0.060   9.080  0.1491 -0.2547  0.2934
  103OSM   H17F10528   3.170   0.159   9.038 -1.6653 -0.3087 -0.9673
  103OSM   H17G10529   3.047   0.074   9.129  0.0341 -2.2444  0.7478
  103OSM   C18F10530   3.149  -0.054   8.972 -0.0550 -0.1365 -0.0322
  103OSM   H18F10531   3.239  -0.052   8.907 -0.0652  1.4702 -0.0332
  103OSM   H18G10532   3.070  -0.034   8.897  0.0902 -1.0582 -0.4461
  103OSM   H18H10533   3.118  -0.154   9.009 -0.4449 -0.0265 -0.0659
  104OSM      N10534   2.222   0.086  10.931  0.5669  0.7652 -0.3048
  104OSM    C1510535   2.224   0.230  10.965  0.3520  0.2989 -0.1204
  104OSM   H15A10536   2.322   0.275  10.971  0.3823  0.4054 -1.2559
  104OSM   H15B10537   2.160   0.265  11.045 -1.1874  0.4388 -1.3686
  104OSM   H15C10538   2.171   0.270  10.880  1.3930 -0.3424 -1.1114
  104OSM    C1410539   2.297   0.007  11.040  0.0896 -0.2102 -0.2734
  104OSM   H14A10540   2.352   0.082  11.094 -1.2345  1.3191 -0.9531
  104OSM   H14B10541   2.364  -0.063  10.993  0.2011  1.5867 -3.0307
  104OSM   H14C10542   2.221  -0.037  11.104 -0.2034  0.1886 -0.3382
  104OSM    C1310543   2.078   0.046  10.932 -0.3389  0.1963 -0.0453
  104OSM   H13A10544   2.059  -0.058  10.912 -0.5619  0.2310 -0.0156
  104OSM   H13B10545   2.030   0.106  10.857  0.8378  2.2447  0.7604
  104OSM   H13C10546   2.035   0.070  11.028  1.5216  2.0697  0.3873
  104OSM    C1210547   2.282   0.072  10.789 -0.0232 -0.3940 -0.2612
  104OSM   H12A10548   2.379   0.121  10.788 -0.1807 -0.0607  0.2388
  104OSM   H12B10549   2.215   0.120  10.719 -0.0956  1.7278  1.1490
  104OSM    C1110550   2.301  -0.063  10.719  0.4886 -0.6175  0.0959
  104OSM   H11A10551   2.386  -0.111  10.772  1.9369  0.3221 -1.2726
  104OSM   H11B10552   2.350  -0.040  10.622  0.1087  1.5418  0.3546
  104OSM      P10553   2.172  -0.288  10.734 -0.0175  0.0168  0.1031
  104OSM    O1310554   2.219  -0.308  10.873  0.2511 -0.4708 -0.1656
  104OSM    O1410555   2.036  -0.332  10.696  0.2834  0.1775  0.6834
  104OSM    O1110556   2.282  -0.347  10.634  0.3297 -0.3396  0.0713
  104OSM    O1210557   2.183  -0.137  10.700  0.6306  0.2604 -0.0459
  104OSM    C1S10558   2.264  -0.309  10.500 -0.5155 -0.0446  0.7019
  104OSM    H1S10559   2.334  -0.227  10.477 -0.0837  0.3072  2.9781
  104OSM    H1T10560   2.163  -0.269  10.475 -1.4937 -1.2978  2.3726
  104OSM     NF10561   2.256  -0.383  10.271  0.1402  0.0939 -0.3073
  104OSM    HNF10562   2.169  -0.421  10.241  0.6844 -1.6582  0.2262
  104OSM    C2S10563   2.294  -0.427  10.401 -0.4720 -0.3743 -0.1871
  104OSM    H2S10564   2.403  -0.446  10.400 -0.2714  0.7128 -0.3579
  104OSM    C3S10565   2.230  -0.569  10.442 -0.8314  0.8408 -0.2532
  104OSM    H3S10566   2.119  -0.565  10.447 -0.9888 -0.9690 -1.1263
  104OSM     O310567   2.273  -0.617  10.573  0.3736 -0.6110  1.0103
  104OSM    HO310568   2.276  -0.529  10.613 -0.1654  0.5739 -1.3462
  104OSM    C4S10569   2.276  -0.676  10.340 -0.1697 -0.1075  0.1191
  104OSM    H4S10570   2.386  -0.679  10.339 -0.1677 -0.7333  1.0782
  104OSM    C5S10571   2.197  -0.752  10.264 -0.5004 -0.1000 -0.4111
  104OSM    H5S10572   2.093  -0.752  10.297 -0.5004 -0.7926 -0.3983
  104OSM    C6S10573   2.238  -0.867  10.180 -0.2190  0.4225  0.4541
  104OSM    H6S10574   2.167  -0.952  10.186  2.1423 -1.7737 -0.5752
  104OSM    H6T10575   2.340  -0.909  10.196  0.1131  0.4825 -1.2383
  104OSM    C7S10576   2.239  -0.798  10.038  0.4243 -0.3117 -0.8225
  104OSM    H7S10577   2.331  -0.735  10.037  1.2619 -1.3531  1.9285
  104OSM    H7T10578   2.157  -0.725  10.022  0.4633 -0.6435 -2.8735
  104OSM    C8S10579   2.255  -0.898   9.924  0.6386 -0.8328 -0.3998
  104OSM    H8S10580   2.167  -0.965   9.926 -1.4601  1.7900  0.6290
  104OSM    H8T10581   2.348  -0.957   9.943  0.6018 -1.1360 -1.1350
  104OSM    C9S10582   2.258  -0.834   9.783 -0.1076 -0.2765  0.6649
  104OSM    H9S10583   2.313  -0.738   9.789 -1.3036  0.3631  1.7319
  104OSM    H9T10584   2.153  -0.801   9.768 -0.2840  0.5891  3.2642
  104OSM   C10S10585   2.317  -0.918   9.672 -0.2295  0.4795 -0.2016
  104OSM   H10S10586   2.243  -0.998   9.651  0.3268 -0.4409  1.2173
  104OSM   H10T10587   2.413  -0.966   9.701  0.5641  0.3677 -2.8210
  104OSM   C11S10588   2.322  -0.851   9.541  0.0466  0.0662 -0.0676
  104OSM   H11S10589   2.359  -0.747   9.550  1.5846 -0.4221 -0.5174
  104OSM   H11T10590   2.219  -0.847   9.499  0.5547  0.5701 -1.3224
  104OSM   C12S10591   2.405  -0.932   9.443 -1.2398  0.4119  0.7035
  104OSM   H12S10592   2.375  -1.039   9.430 -0.3628  0.0794  1.3190
  104OSM   H12T10593   2.508  -0.936   9.484 -1.8260 -0.4457  2.1823
  104OSM   C13S10594   2.403  -0.874   9.299  0.0649 -0.1840 -0.6341
  104OSM   H13S10595   2.443  -0.771   9.303  1.5216 -0.7380 -0.0764
  104OSM   H13T10596   2.298  -0.877   9.263 -0.2061 -0.0606  0.1294
  104OSM   C14S10597   2.508  -0.934   9.198 -0.0346  0.3851 -0.6149
  104OSM   H14S10598   2.506  -1.045   9.191  1.0720  0.2508  0.8144
  104OSM   H14T10599   2.606  -0.907   9.243  0.4612  0.4518 -1.7208
  104OSM   C15S10600   2.496  -0.875   9.055  0.3830  0.2152 -0.4286
  104OSM   H15S10601   2.512  -0.766   9.073 -0.4161  0.2726  0.0100
  104OSM   H15T10602   2.400  -0.901   9.006  0.0467 -0.1821  0.4073
  104OSM   C16S10603   2.616  -0.923   8.969 -0.6034 -0.3381  1.1930
  104OSM   H16S10604   2.605  -1.026   8.928 -2.0065 -0.2058  1.1820
  104OSM   H16T10605   2.706  -0.937   9.032  0.6986 -3.1558 -1.0656
  104OSM   C17S10606   2.658  -0.830   8.854 -0.1561 -0.2020  0.5507
  104OSM   H17S10607   2.768  -0.837   8.843 -0.3779 -1.0504 -1.4499
  104OSM   H17T10608   2.626  -0.728   8.886 -0.5007  0.2418 -1.1184
  104OSM   C18S10609   2.591  -0.865   8.723  0.2116  0.0010 -0.0112
  104OSM   H18S10610   2.603  -0.788   8.643  0.5921  1.3233  1.2900
  104OSM   H18T10611   2.481  -0.861   8.740  0.4518  1.5868  1.3390
  104OSM   H18U10612   2.619  -0.966   8.684 -1.7423  0.3835 -2.6746
  104OSM    C1F10613   2.308  -0.283  10.198  0.7494  0.7161  1.1978
  104OSM     OF10614   2.403  -0.225  10.238  0.2413 -0.0055 -0.3383
  104OSM    C2F10615   2.241  -0.248  10.073 -0.1380  0.0965 -0.4446
  104OSM    H2F10616   2.155  -0.182  10.097 -1.4497 -2.6933  3.3885
  104OSM    H2G10617   2.204  -0.338  10.019  1.1678 -1.3075  0.9008
  104OSM    C3F10618   2.344  -0.193   9.972  0.9618 -0.0966 -0.1620
  104OSM    H3F10619   2.427  -0.265   9.955  0.0410 -0.7765 -2.0302
  104OSM    H3G10620   2.388  -0.097  10.006 -1.2089  0.8864  0.0421
  104OSM    C4F10621   2.296  -0.157   9.829  0.8858  0.2134 -0.4346
  104OSM    H4F10622   2.198  -0.106   9.833  0.0155 -1.4872  1.3643
  104OSM    H4G10623   2.276  -0.255   9.781  0.2800  1.7181 -3.4846
  104OSM    C5F10624   2.401  -0.077   9.758  0.5209 -0.2188 -0.0745
  104OSM    H5F10625   2.492  -0.139   9.771  0.2180 -0.7508 -0.4948
  104OSM    H5G10626   2.422   0.023   9.802  0.0500  0.0207 -0.3794
  104OSM    C6F10627   2.367  -0.047   9.610 -0.0999  0.2062 -0.9316
  104OSM    H6F10628   2.361  -0.141   9.550 -2.8137  0.0059 -0.4850
  104OSM    H6G10629   2.435   0.028   9.565 -1.9371  0.7433 -3.0632
  104OSM    C7F10630   2.235   0.014   9.591 -1.1489 -0.0974  0.5336
  104OSM    H7F10631   2.222   0.100   9.661  0.2812 -0.7277  1.6241
  104OSM    H7G10632   2.155  -0.053   9.630 -0.9592  0.7021  2.3931
  104OSM    C8F10633   2.191   0.036   9.445  0.1913  0.7443  1.1994
  104OSM    H8F10634   2.196  -0.063   9.396 -0.7116  0.7000  1.1758
  104OSM    H8G10635   2.259   0.107   9.393  2.0934 -1.2313  0.8228
  104OSM    C9F10636   2.051   0.092   9.439 -0.3015 -1.0523 -0.0720
  104OSM    H9F10637   2.033   0.152   9.530  1.3768 -2.0083  0.9366
  104OSM   C10F10638   1.945   0.072   9.356  0.5876  0.4645 -0.4743
  104OSM   H10F10639   1.845   0.112   9.379 -0.4462 -1.6814 -0.9900
  104OSM   C11F10640   1.931  -0.004   9.231 -0.3238  0.8440 -0.0018
  104OSM   H11F10641   1.837  -0.062   9.229  1.7707 -2.8547 -2.4480
  104OSM   H11G10642   2.008  -0.084   9.227 -1.6901 -0.5173  0.3066
  104OSM   C12F10643   1.939   0.082   9.103 -0.2637  0.7645 -0.8177
  104OSM   H12F10644   1.875   0.173   9.105 -2.1150 -0.4931 -0.2406
  104OSM   H12G10645   1.910   0.013   9.021  0.0038  0.4846 -0.6765
  104OSM   C13F10646   2.087   0.112   9.061 -0.6402 -0.2591 -1.0656
  104OSM   H13F10647   2.152   0.022   9.065 -0.7122 -0.2729  1.3000
  104OSM   H13G10648   2.137   0.169   9.143  0.2749 -2.3267 -0.1206
  104OSM   C14F10649   2.091   0.177   8.928 -0.4136 -0.2869  0.7348
  104OSM   H14F10650   2.059   0.283   8.942  0.4675 -0.1376  1.7339
  104OSM   H14G10651   2.018   0.126   8.861  0.2257 -0.0158 -0.1940
  104OSM   C15F10652   2.232   0.199   8.856 -0.2595 -0.5104  0.1222
  104OSM   H15F10653   2.310   0.233   8.927  2.0015 -2.4279 -1.2739
  104OSM   H15G10654   2.219   0.270   8.772 -1.6715 -0.8501  0.0251
  104OSM   C16F10655   2.277   0.079   8.773 -0.3218  0.0898 -0.3921
  104OSM   H16F10656   2.268  -0.010   8.839  1.0858  0.1016 -0.1447
  104OSM   H16G10657   2.382   0.086   8.738  0.6167 -1.4305  1.8716
  104OSM   C17F10658   2.192   0.056   8.649 -0.1550 -0.0843 -0.3622
  104OSM   H17F10659   2.161   0.154   8.607 -2.3038 -0.8970 -0.8341
  104OSM   H17G10660   2.104   0.011   8.700  1.1142 -0.6070  1.4510
  104OSM   C18F10661   2.241  -0.037   8.541 -0.6209  0.6696  0.6395
  104OSM   H18F10662   2.153  -0.066   8.479 -0.8888  0.6657  1.0167
  104OSM   H18G10663   2.280  -0.132   8.583  0.1968 -0.5167 -2.5162
  104OSM   H18H10664   2.325   0.010   8.486 -1.5813 -0.1468 -1.6449
  105OSM      N10665   1.002   5.953  10.767  0.2846 -0.2775  0.6478
  105OSM    C1510666   1.047   5.822  10.699  0.2557  0.1052 -0.2459
  105OSM   H15A10667   0.980   5.803  10.617 -0.9097  0.2660  0.6328
  105OSM   H15B10668   1.038   5.743  10.772  0.9802  0.4155  0.1919
  105OSM   H15C10669   1.145   5.831  10.656 -0.0601  1.5118 -0.7185
  105OSM    C1410670   0.959   6.056  10.669 -0.1368  0.4087 -0.3857
  105OSM   H14A10671   0.928   6.136  10.733 -0.8781 -0.2728  0.1285
  105OSM   H14B10672   0.874   6.027  10.609  1.1503  1.3730 -2.8232
  105OSM   H14C10673   1.040   6.094  10.607  1.4355  0.6928  1.7382
  105OSM    C1310674   0.888   5.913  10.855 -0.7431  0.1315  0.3451
  105OSM   H13A10675   0.913   5.859  10.945 -1.9003  0.1909  0.7249
  105OSM   H13B10676   0.811   5.868  10.794  0.6469 -1.5931 -0.2277
  105OSM   H13C10677   0.841   5.999  10.901 -0.9658 -0.6670  1.6548
  105OSM    C1210678   1.117   6.014  10.846 -0.2440  0.0167  0.2072
  105OSM   H12A10679   1.163   5.943  10.913  1.4453  0.4560 -0.4415
  105OSM   H12B10680   1.067   6.079  10.915  2.0101  0.2359  1.7379
  105OSM    C1110681   1.232   6.090  10.780 -0.9073  0.0510  0.1017
  105OSM   H11A10682   1.311   6.122  10.852  0.7456 -0.0183 -1.5783
  105OSM   H11B10683   1.190   6.186  10.741  0.9786  1.2992  0.9568
  105OSM      P10684   1.412   5.917  10.722  0.2255 -0.0961 -0.0159
  105OSM    O1310685   1.538   5.971  10.670  0.1098 -0.8666  0.0793
  105OSM    O1410686   1.402   5.898  10.870  0.0383  0.2258  0.1331
  105OSM    O1110687   1.370   5.777  10.651  0.0996  0.1390  0.1351
  105OSM    O1210688   1.295   6.009  10.684 -0.3347  0.1624 -0.3378
  105OSM    C1S10689   1.341   5.781  10.512 -0.9405 -0.1649  0.5221
  105OSM    H1S10690   1.412   5.848  10.460 -2.1414  1.5962  1.0755
  105OSM    H1T10691   1.244   5.831  10.492 -0.3386  1.1141  0.7328
  105OSM     NF10692   1.297   5.645  10.298  0.2856  0.2854  0.5225
  105OSM    HNF10693   1.202   5.633  10.268  1.0297 -1.0032 -1.5746
  105OSM    C2S10694   1.335   5.634  10.443 -0.2337 -0.5220  0.0279
  105OSM    H2S10695   1.440   5.599  10.450 -0.4228 -0.9017  1.4002
  105OSM    C3S10696   1.234   5.534  10.524 -0.1259 -0.2590  0.0851
  105OSM    H3S10697   1.133   5.579  10.528 -0.3912 -0.9230  2.8219
  105OSM     O310698   1.262   5.519  10.659  0.3334  0.5151 -0.0287
  105OSM    HO310699   1.315   5.595  10.684  0.3194  0.8363 -0.9308
  105OSM    C4S10700   1.224   5.405  10.452  0.0617 -0.6713  0.4843
  105OSM    H4S10701   1.124   5.401  10.404 -1.1056 -0.1741  2.7385
  105OSM    C5S10702   1.310   5.299  10.441 -0.0204 -0.2356 -0.6246
  105OSM    H5S10703   1.398   5.305  10.507  0.4139  0.5903 -1.2598
  105OSM    C6S10704   1.288   5.167  10.367 -0.1479  0.2976 -0.6602
  105OSM    H6S10705   1.271   5.097  10.451 -3.1363  1.7375  0.0650
  105OSM    H6T10706   1.386   5.141  10.321  0.5631  0.9951  0.4302
  105OSM    C7S10707   1.167   5.158  10.261 -0.1218  0.1447  0.0257
  105OSM    H7S10708   1.076   5.198  10.309 -0.7009 -0.2433 -0.7218
  105OSM    H7T10709   1.153   5.051  10.234 -0.4342 -0.3715  2.0495
  105OSM    C8S10710   1.185   5.245  10.136  0.4043 -0.5051  0.2376
  105OSM    H8S10711   1.292   5.241  10.105  0.1229  0.5924 -0.9372
  105OSM    H8T10712   1.174   5.350  10.171  0.8214 -0.4366  0.1767
  105OSM    C9S10713   1.096   5.216  10.018  0.9168  0.2652 -0.6576
  105OSM    H9S10714   0.990   5.237  10.042  0.2081 -1.5867 -1.9851
  105OSM    H9T10715   1.094   5.108   9.992  0.1936  0.5946 -2.0548
  105OSM   C10S10716   1.130   5.293   9.891 -0.2974 -0.4657  0.0695
  105OSM   H10S10717   1.231   5.257   9.860 -0.2230 -0.1785 -0.0252
  105OSM   H10T10718   1.126   5.403   9.909  4.2637  0.4796 -2.7279
  105OSM   C11S10719   1.037   5.275   9.769  0.1906 -0.0391 -0.1756
  105OSM   H11S10720   0.979   5.366   9.742 -2.6021 -0.8530  2.4940
  105OSM   H11T10721   0.963   5.196   9.792  1.3839 -1.2137 -0.2695
  105OSM   C12S10722   1.112   5.238   9.640 -0.7520  0.6538  0.4850
  105OSM   H12S10723   1.147   5.136   9.669 -1.2511  0.6264  1.0267
  105OSM   H12T10724   1.202   5.299   9.619  0.0055 -0.2039  1.1617
  105OSM   C13S10725   1.027   5.233   9.505  0.1885 -0.8704 -0.1585
  105OSM   H13S10726   0.974   5.329   9.486 -0.0161 -1.4161 -2.6370
  105OSM   H13T10727   0.953   5.151   9.516 -0.8045 -0.0511 -0.6174
  105OSM   C14S10728   1.108   5.226   9.376  0.5207  0.5436 -0.2843
  105OSM   H14S10729   1.138   5.122   9.352 -0.2133  0.4171 -0.6933
  105OSM   H14T10730   1.202   5.285   9.380  0.4022  0.7294 -0.1867
  105OSM   C15S10731   1.022   5.271   9.264  0.0184  0.7087 -0.7109
  105OSM   H15S10732   0.986   5.377   9.267  0.3069  0.9985 -3.9519
  105OSM   H15T10733   0.927   5.214   9.278 -1.1890  2.5792 -0.8936
  105OSM   C16S10734   1.086   5.245   9.129  0.4155 -0.3261 -0.4496
  105OSM   H16S10735   1.035   5.180   9.055  1.7089 -1.8623 -0.0490
  105OSM   H16T10736   1.172   5.176   9.144  1.0843 -0.2166 -3.1994
  105OSM   C17S10737   1.146   5.368   9.063  0.3827 -0.3554  0.0102
  105OSM   H17S10738   1.232   5.330   9.004 -0.3697 -0.6620 -0.9127
  105OSM   H17T10739   1.191   5.453   9.119  1.1430 -0.3528 -0.5780
  105OSM   C18S10740   1.043   5.421   8.965 -0.1144  0.1334 -0.3669
  105OSM   H18S10741   1.016   5.338   8.896 -1.0957 -2.3704  2.7619
  105OSM   H18T10742   1.099   5.499   8.909  0.6223 -0.4524 -0.4600
  105OSM   H18U10743   0.952   5.455   9.019 -1.9275 -1.9123 -1.9802
  105OSM    C1F10744   1.386   5.689  10.209  0.3460 -0.3774  0.1685
  105OSM     OF10745   1.505   5.705  10.235 -0.0153  0.3863 -0.9223
  105OSM    C2F10746   1.340   5.702  10.063  0.2937  0.5452  0.3252
  105OSM    H2F10747   1.229   5.690  10.068  0.2491 -0.1870 -1.7137
  105OSM    H2G10748   1.401   5.617  10.025 -1.4740 -0.6587  0.0283
  105OSM    C3F10749   1.378   5.834  10.002  0.3120  0.4262 -0.0297
  105OSM    H3F10750   1.488   5.844   9.995  0.3532  0.0253 -0.0163
  105OSM    H3G10751   1.338   5.923  10.054 -1.3531  0.3500 -1.1034
  105OSM    C4F10752   1.345   5.839   9.854  0.3846  0.0656 -0.1322
  105OSM    H4F10753   1.385   5.939   9.826  0.3518  0.2693  0.5341
  105OSM    H4G10754   1.236   5.836   9.831  0.0101  0.2482  1.5007
  105OSM    C5F10755   1.415   5.727   9.773 -0.3790  0.0977  0.9334
  105OSM    H5F10756   1.369   5.631   9.805 -0.4484  0.4363  1.8964
  105OSM    H5G10757   1.521   5.733   9.805 -1.1371 -2.2877  4.5508
  105OSM    C6F10758   1.409   5.751   9.619 -0.1821 -0.0551 -0.6307
  105OSM    H6F10759   1.452   5.850   9.594 -2.3994  0.8811 -0.9708
  105OSM    H6G10760   1.303   5.739   9.588 -0.1145  0.6151 -1.1418
  105OSM    C7F10761   1.480   5.642   9.542 -0.8148  0.4885  0.3312
  105OSM    H7F10762   1.423   5.556   9.581  0.2612 -0.2365  0.3466
  105OSM    H7G10763   1.586   5.639   9.577 -0.4520 -0.7224 -0.7835
  105OSM    C8F10764   1.479   5.662   9.393  0.2381  0.3940  0.3624
  105OSM    H8F10765   1.531   5.576   9.346  1.5322  0.3539  1.8137
  105OSM    H8G10766   1.533   5.755   9.366 -1.0808  1.9925  2.9089
  105OSM    C9F10767   1.341   5.658   9.338 -0.6454  0.1244  0.1277
  105OSM    H9F10768   1.267   5.623   9.412 -1.2466 -0.8933 -0.9113
  105OSM   C10F10769   1.295   5.729   9.231 -0.4398 -0.2171 -0.0636
  105OSM   H10F10770   1.190   5.716   9.200 -0.8121  1.3919  0.4299
  105OSM   C11F10771   1.373   5.820   9.134 -0.9013 -0.1019  0.1114
  105OSM   H11F10772   1.455   5.882   9.177 -0.0248  0.0573 -1.6904
  105OSM   H11G10773   1.304   5.900   9.101 -0.1738  0.4547 -0.0741
  105OSM   C12F10774   1.425   5.742   9.009  0.2186  0.7442 -1.0245
  105OSM   H12F10775   1.463   5.647   9.053 -1.4204  1.0837  1.3161
  105OSM   H12G10776   1.508   5.788   8.952  1.1506  0.2595 -0.1000
  105OSM   C13F10777   1.321   5.708   8.903 -0.0854 -0.8579 -1.0411
  105OSM   H13F10778   1.232   5.652   8.940 -0.6595 -1.4330 -3.1488
  105OSM   H13G10779   1.373   5.632   8.840  0.4533  1.4271 -3.5507
  105OSM   C14F10780   1.271   5.830   8.826 -0.3063 -0.6353  0.5167
  105OSM   H14F10781   1.354   5.901   8.808 -1.2743  0.6450  0.9457
  105OSM   H14G10782   1.206   5.886   8.896 -0.5811  1.2771 -1.1664
  105OSM   C15F10783   1.195   5.806   8.697  0.3565 -0.3261  0.4421
  105OSM   H15F10784   1.265   5.769   8.618 -0.1492  1.5810 -0.9637
  105OSM   H15G10785   1.165   5.905   8.658  1.0316  1.0040  3.0991
  105OSM   C16F10786   1.071   5.715   8.703 -0.0523  0.2354  0.6310
  105OSM   H16F10787   1.010   5.750   8.789 -1.0017  0.7526 -0.2253
  105OSM   H16G10788   1.101   5.614   8.739  0.0467 -0.8843 -2.2710
  105OSM   C17F10789   0.988   5.707   8.586 -0.1655 -0.2955  0.2214
  105OSM   H17F10790   1.054   5.670   8.505  0.6407  0.1833  0.6565
  105OSM   H17G10791   0.943   5.800   8.547 -2.3591 -1.6407 -0.6677
  105OSM   C18F10792   0.879   5.599   8.591 -0.1484 -0.0832 -0.3156
  105OSM   H18F10793   0.804   5.592   8.509 -0.8008 -1.9986  0.3842
  105OSM   H18G10794   0.812   5.613   8.679  1.9134 -3.1150  1.9590
  105OSM   H18H10795   0.920   5.498   8.612  1.5811  1.0558  2.2759
  106OSM      N10796   4.557   6.213  10.771 -0.0092  0.0021 -0.4528
  106OSM    C1510797   4.580   6.070  10.833 -0.6704 -0.7846  0.0330
  106OSM   H15A10798   4.621   6.000  10.762 -2.4743 -1.1487 -0.7056
  106OSM   H15B10799   4.481   6.040  10.864 -0.8602  0.1896  0.4146
  106OSM   H15C10800   4.627   6.076  10.930  1.6891 -0.1434 -1.0815
  106OSM    C1410801   4.688   6.277  10.754  0.2256  0.2591 -0.1533
  106OSM   H14A10802   4.746   6.274  10.845 -1.0665 -3.1457  0.7434
  106OSM   H14B10803   4.674   6.379  10.724 -1.5983 -0.3479 -1.5638
  106OSM   H14C10804   4.745   6.221  10.682 -1.5148 -0.7674 -0.7852
  106OSM    C1310805   4.490   6.200  10.636 -0.3932 -0.4072 -0.3389
  106OSM   H13A10806   4.494   6.298  10.590  0.1381 -0.4906 -0.4701
  106OSM   H13B10807   4.388   6.168  10.651 -0.6907  1.1628  1.4788
  106OSM   H13C10808   4.539   6.126  10.575  0.2478 -0.7457  0.5700
  106OSM    C1210809   4.478   6.300  10.860  0.2838  0.1531 -0.5050
  106OSM   H12A10810   4.463   6.397  10.816  2.4180  1.1685  0.8714
  106OSM   H12B10811   4.528   6.315  10.954 -0.3373 -0.1061 -0.1255
  106OSM    C1110812   4.334   6.247  10.901  0.0867 -0.1130  0.0687
  106OSM   H11A10813   4.296   6.324  10.972  2.7247  0.8686  0.5341
  106OSM   H11B10814   4.350   6.152  10.956  0.1817  0.8071  1.6877
  106OSM      P10815   4.162   6.326  10.721 -0.2815  0.1524  0.2755
  106OSM    O1310816   4.018   6.284  10.723 -0.0022 -0.5466  0.0127
  106OSM    O1410817   4.198   6.464  10.773  0.5184  0.7163 -0.2457
  106OSM    O1110818   4.207   6.305  10.569 -0.2421 -0.6085 -0.3309
  106OSM    O1210819   4.252   6.220  10.792 -0.0154  0.2769  0.0628
  106OSM    C1S10820   4.252   6.427  10.506  0.3504  0.4396  0.4336
  106OSM    H1S10821   4.324   6.480  10.572  1.3657  1.7179 -1.5873
  106OSM    H1T10822   4.170   6.502  10.500 -1.3057 -1.2344  1.1519
  106OSM     NF10823   4.366   6.525  10.310 -0.0499 -0.2371  0.2069
  106OSM    HNF10824   4.300   6.580  10.260  1.1770  0.6506 -0.4926
  106OSM    C2S10825   4.326   6.402  10.370 -0.5322  0.2888  0.8056
  106OSM    H2S10826   4.420   6.348  10.395  0.7936  2.8535  1.7615
  106OSM    C3S10827   4.223   6.319  10.279 -0.0617 -0.0404 -0.3672
  106OSM    H3S10828   4.120   6.362  10.281 -0.7472 -1.4865 -1.9937
  106OSM     O310829   4.190   6.189  10.331 -0.3253 -0.0108  0.1812
  106OSM    HO310830   4.185   6.210  10.425  5.2021  1.5995  0.4370
  106OSM    C4S10831   4.266   6.300  10.141  0.4611  0.4839 -1.0090
  106OSM    H4S10832   4.360   6.242  10.137  0.3345  0.1334  0.4277
  106OSM    C5S10833   4.208   6.336  10.031  0.2138 -0.1247  0.3727
  106OSM    H5S10834   4.111   6.387  10.042  0.1742 -0.4983  2.1471
  106OSM    C6S10835   4.261   6.306   9.892 -0.4439 -0.7688 -0.1070
  106OSM    H6S10836   4.304   6.204   9.896 -0.2796 -0.7209 -0.5766
  106OSM    H6T10837   4.341   6.376   9.860  0.4201 -1.1288  1.2032
  106OSM    C7S10838   4.147   6.310   9.779  0.7223  0.2875  0.1310
  106OSM    H7S10839   4.087   6.402   9.769 -1.0381 -0.9439 -1.2698
  106OSM    H7T10840   4.067   6.236   9.803  1.1952 -0.3266 -0.1518
  106OSM    C8S10841   4.209   6.277   9.638  0.2651  0.3977 -0.5682
  106OSM    H8S10842   4.240   6.171   9.650 -1.5220 -0.1648 -0.5963
  106OSM    H8T10843   4.290   6.350   9.619  1.3338 -0.5386  0.2921
  106OSM    C9S10844   4.093   6.278   9.536  0.3522  0.5582  0.5690
  106OSM    H9S10845   4.047   6.379   9.539 -1.1526  0.0140 -1.8320
  106OSM    H9T10846   4.018   6.210   9.580  0.5441  0.5574  0.9029
  106OSM   C10S10847   4.141   6.220   9.405  0.0369 -0.1091  0.3236
  106OSM   H10S10848   4.174   6.115   9.422 -1.0416 -0.9821 -2.3394
  106OSM   H10T10849   4.222   6.286   9.367 -1.3098  0.2948 -2.0455
  106OSM   C11S10850   4.026   6.220   9.300  0.2626  0.2101 -1.1569
  106OSM   H11S10851   3.959   6.305   9.325 -0.9846 -0.8284 -0.8410
  106OSM   H11T10852   3.967   6.125   9.306  0.5491  0.1234  1.9192
  106OSM   C12S10853   4.079   6.226   9.159 -0.1745 -0.3139 -0.3568
  106OSM   H12S10854   4.146   6.314   9.150 -1.3161  0.8923  1.9424
  106OSM   H12T10855   3.994   6.242   9.089 -0.7104 -2.0431 -0.1535
  106OSM   C13S10856   4.143   6.098   9.111  0.4301  1.0775  0.8015
  106OSM   H13S10857   4.069   6.016   9.120 -0.5562  1.3815 -2.8159
  106OSM   H13T10858   4.229   6.066   9.173  0.1853 -1.0371  0.1177
  106OSM   C14S10859   4.177   6.117   8.963 -0.2169  0.5300 -0.6858
  106OSM   H14S10860   4.250   6.201   8.961  1.5225 -0.6524  3.2657
  106OSM   H14T10861   4.086   6.145   8.905 -1.6579 -1.6988  0.3755
  106OSM   C15S10862   4.233   5.988   8.897 -0.0443  0.2953 -0.0978
  106OSM   H15S10863   4.312   5.954   8.968  1.3424  2.4753 -0.4753
  106OSM   H15T10864   4.280   6.016   8.800 -0.4150 -1.8380 -0.9364
  106OSM   C16S10865   4.132   5.874   8.874 -0.7507 -0.3803 -0.1242
  106OSM   H16S10866   4.089   5.851   8.974 -0.3801 -0.4244  0.0271
  106OSM   H16T10867   4.180   5.777   8.849 -1.9240 -1.9361  3.0763
  106OSM   C17S10868   4.026   5.909   8.772 -0.6772  0.0938 -0.2041
  106OSM   H17S10869   3.974   6.002   8.803 -1.1442 -0.3602  0.4023
  106OSM   H17T10870   3.954   5.825   8.776  0.7668 -1.1656  3.7963
  106OSM   C18S10871   4.070   5.924   8.621 -0.1588  0.3700 -0.0023
  106OSM   H18S10872   4.136   6.012   8.621 -1.4109  1.3475 -0.5597
  106OSM   H18T10873   3.987   5.950   8.551  1.5473  0.5003 -2.0639
  106OSM   H18U10874   4.132   5.839   8.585  1.0342  1.1551  0.1595
  106OSM    C1F10875   4.477   6.579  10.356 -0.5103  0.4550 -0.8125
  106OSM     OF10876   4.540   6.536  10.454 -0.0444 -0.0274 -0.2697
  106OSM    C2F10877   4.516   6.704  10.285 -0.3287 -0.6019 -0.6744
  106OSM    H2F10878   4.450   6.784  10.324  1.0169  0.5212 -0.6336
  106OSM    H2G10879   4.492   6.706  10.177  1.2151  2.2279 -1.0513
  106OSM    C3F10880   4.665   6.749  10.315  0.7665  0.0335  0.1707
  106OSM    H3F10881   4.751   6.680  10.302  2.4436  2.1343 -0.6367
  106OSM    H3G10882   4.659   6.776  10.423 -2.7612 -1.2571  0.4234
  106OSM    C4F10883   4.701   6.885  10.243  0.1094 -0.4217 -0.0118
  106OSM    H4F10884   4.776   6.941  10.302  0.3895 -1.7752  0.9622
  106OSM    H4G10885   4.610   6.948  10.242  0.9663  0.9612  2.0007
  106OSM    C5F10886   4.757   6.864  10.104 -0.2908 -0.3633 -0.0153
  106OSM    H5F10887   4.688   6.804  10.042  1.3543 -2.6821  0.2594
  106OSM    H5G10888   4.855   6.811  10.107 -0.1671 -0.1954 -0.7423
  106OSM    C6F10889   4.789   6.997  10.031 -0.3185 -0.3447 -0.0667
  106OSM    H6F10890   4.891   6.990   9.989  0.9032  1.4027  2.3783
  106OSM    H6G10891   4.806   7.082  10.100  2.1605 -2.4760  2.1553
  106OSM    C7F10892   4.689   7.043   9.920 -0.2924  0.3298  0.0072
  106OSM    H7F10893   4.596   7.076   9.971  0.1000 -0.5720  1.3499
  106OSM    H7G10894   4.656   6.955   9.861 -0.6913 -0.5342  1.4668
  106OSM    C8F10895   4.729   7.166   9.838 -0.0567 -0.4204 -0.0795
  106OSM    H8F10896   4.778   7.230   9.915  1.4111 -0.5656 -0.8467
  106OSM    H8G10897   4.634   7.209   9.800  1.0355  0.8832 -1.5053
  106OSM    C9F10898   4.835   7.144   9.727  0.5541  0.3281  0.0301
  106OSM    H9F10899   4.917   7.082   9.765  0.0903 -0.0548  0.4143
  106OSM   C10F10900   4.831   7.186   9.596 -0.1157 -0.1863 -0.0999
  106OSM   H10F10901   4.917   7.164   9.530 -0.3683 -2.4550  0.2543
  106OSM   C11F10902   4.724   7.271   9.527  0.4149 -0.0408 -0.2538
  106OSM   H11F10903   4.660   7.328   9.597  2.3114  0.2102  1.3681
  106OSM   H11G10904   4.657   7.203   9.470 -1.8106  0.5918  1.4692
  106OSM   C12F10905   4.782   7.390   9.444 -0.2250  0.4510 -0.2655
  106OSM   H12F10906   4.862   7.446   9.497 -0.2297  0.7970 -0.6173
  106OSM   H12G10907   4.690   7.449   9.429 -1.0516 -1.5933 -5.3295
  106OSM   C13F10908   4.826   7.359   9.301  0.3366  0.0276  0.1648
  106OSM   H13F10909   4.740   7.313   9.246  0.5060  0.4648 -0.4805
  106OSM   H13G10910   4.910   7.287   9.315 -0.1962 -0.5712  0.3465
  106OSM   C14F10911   4.865   7.484   9.218  0.6404  0.4092 -0.2258
  106OSM   H14F10912   4.929   7.546   9.284 -0.9553  0.7030  1.1014
  106OSM   H14G10913   4.765   7.530   9.202 -0.1288 -0.4636  1.8045
  106OSM   C15F10914   4.925   7.471   9.074  0.6919 -0.4983 -0.8037
  106OSM   H15F10915   4.865   7.399   9.014  1.2933 -0.6216 -1.2695
  106OSM   H15G10916   5.026   7.427   9.065  1.2869  0.5499  0.5092
  106OSM   C16F10917   4.918   7.606   9.001 -0.1530 -0.2814  0.5283
  106OSM   H16F10918   4.988   7.683   9.041 -1.9440  1.7953 -0.1546
  106OSM   H16G10919   4.819   7.656   9.002 -1.4784 -2.4646 -3.4880
  106OSM   C17F10920   4.948   7.596   8.844 -0.0502 -0.1551 -0.7342
  106OSM   H17F10921   4.904   7.498   8.816  0.3416 -0.1201 -1.4967
  106OSM   H17G10922   5.058   7.592   8.829 -0.0514 -0.1463 -0.7460
  106OSM   C18F10923   4.878   7.698   8.760  0.2607  0.9942 -0.6036
  106OSM   H18F10924   4.929   7.797   8.765  1.8996  0.1890 -0.8148
  106OSM   H18G10925   4.771   7.707   8.789 -0.1317  1.7481 -2.1806
  106OSM   H18H10926   4.876   7.664   8.655  1.7140  1.9362 -0.9600
  107OSM      N10927   2.960   2.878  10.714  0.0559  0.1407  0.0266
  107OSM    C1510928   2.853   2.776  10.708 -0.7690  0.5019 -0.0240
  107OSM   H15A10929   2.828   2.745  10.809 -1.8563 -0.2321 -0.5071
  107OSM   H15B10930   2.877   2.687  10.652 -0.9142  0.0206  0.6612
  107OSM   H15C10931   2.764   2.824  10.671 -0.7070 -0.2485 -1.1772
  107OSM    C1410932   2.986   2.925  10.568  0.2292 -0.4749 -0.0351
  107OSM   H14A10933   3.021   2.849  10.499  0.7447 -2.1206  1.9372
  107OSM   H14B10934   3.061   3.003  10.576 -1.1547  0.9362 -0.4255
  107OSM   H14C10935   2.902   2.974  10.522 -0.3948 -0.9463  0.5983
  107OSM    C1310936   2.918   3.002  10.797  0.3275 -0.2266 -0.1495
  107OSM   H13A10937   2.813   3.014  10.777  0.0564 -1.7823  0.2152
  107OSM   H13B10938   2.976   3.090  10.771  0.8855 -0.5776 -0.1142
  107OSM   H13C10939   2.928   2.993  10.904  0.0196  4.7523  0.5285
  107OSM    C1210940   3.096   2.818  10.754 -0.2377  1.0521 -0.0081
  107OSM   H12A10941   3.085   2.776  10.853  0.5962  1.7413  0.3975
  107OSM   H12B10942   3.171   2.895  10.749  1.1997 -0.2126  1.3124
  107OSM    C1110943   3.163   2.701  10.672 -0.1477  0.0298 -1.0140
  107OSM   H11A10944   3.270   2.696  10.699 -0.4880  1.6937  0.9232
  107OSM   H11B10945   3.159   2.737  10.567  1.5195  0.1915 -1.0408
  107OSM      P10946   3.102   2.486  10.827 -0.5664  0.1239  0.2485
  107OSM    O1310947   3.204   2.539  10.921 -0.2565 -0.3494 -0.8664
  107OSM    O1410948   2.968   2.469  10.880  0.1355  0.3739  0.3296
  107OSM    O1110949   3.162   2.351  10.775  0.3401 -0.1371 -0.3725
  107OSM    O1210950   3.098   2.577  10.700 -0.0192  0.0432 -0.0144
  107OSM    C1S10951   3.192   2.324  10.638  0.4698  0.2793  0.4838
  107OSM    H1S10952   3.126   2.378  10.567 -1.5220 -0.9777  1.2905
  107OSM    H1T10953   3.185   2.217  10.608  0.4984  0.5116 -0.3813
  107OSM     NF10954   3.368   2.290  10.470 -0.3387  0.2066  0.5405
  107OSM    HNF10955   3.424   2.207  10.474 -1.6471 -1.0195 -2.8266
  107OSM    C2S10956   3.342   2.343  10.599 -0.3255 -0.1564 -0.7089
  107OSM    H2S10957   3.371   2.450  10.597 -1.7552  0.3116  1.0966
  107OSM    C3S10958   3.435   2.281  10.703 -0.0393  0.0152 -0.6955
  107OSM    H3S10959   3.410   2.173  10.710 -2.2117  0.4270 -1.4036
  107OSM     O310960   3.422   2.333  10.837 -0.5950 -0.2222  0.0651
  107OSM    HO310961   3.345   2.390  10.836 -1.0416 -0.7754  0.9235
  107OSM    C4S10962   3.581   2.295  10.654  0.5879  0.4758  1.1209
  107OSM    H4S10963   3.640   2.202  10.660 -0.2709 -0.0864  1.1485
  107OSM    C5S10964   3.641   2.418  10.646 -0.0928  0.4576 -1.2243
  107OSM    H5S10965   3.587   2.506  10.682 -0.3989 -0.6295  1.1480
  107OSM    C6S10966   3.784   2.442  10.610  0.3460 -0.5622  0.4081
  107OSM    H6S10967   3.851   2.360  10.644 -1.0010 -2.0710 -0.4434
  107OSM    H6T10968   3.814   2.535  10.662 -2.6274  0.1966  0.9876
  107OSM    C7S10969   3.814   2.469  10.463 -0.2056 -0.2329 -0.6308
  107OSM    H7S10970   3.913   2.519  10.456 -0.5206  0.6431  0.8113
  107OSM    H7T10971   3.732   2.532  10.422 -0.9390 -0.5034  0.4067
  107OSM    C8S10972   3.807   2.353  10.369 -0.4370  0.2146  0.0119
  107OSM    H8S10973   3.708   2.304  10.356 -0.3545 -0.3976  1.4813
  107OSM    H8T10974   3.885   2.282  10.405  0.5353  1.0752 -0.3728
  107OSM    C9S10975   3.870   2.381  10.226  0.8354  0.2789 -0.9585
  107OSM    H9S10976   3.979   2.397  10.240  0.6438 -0.6105  2.4238
  107OSM    H9T10977   3.826   2.473  10.182 -0.1773 -0.4974 -1.6155
  107OSM   C10S10978   3.844   2.263  10.132  0.1519 -1.3275  0.3515
  107OSM   H10S10979   3.733   2.256  10.141 -0.2159  1.4142 -1.0592
  107OSM   H10T10980   3.881   2.169  10.178  3.1313  0.0377  0.9314
  107OSM   C11S10981   3.890   2.290   9.987 -0.6680 -0.2193 -1.0895
  107OSM   H11S10982   3.995   2.256   9.974 -1.0412 -0.6173 -3.5348
  107OSM   H11T10983   3.889   2.401   9.980 -0.7583 -0.1680 -0.2949
  107OSM   C12S10984   3.814   2.220   9.870  0.1413  0.2681 -0.4062
  107OSM   H12S10985   3.719   2.275   9.854  1.5537  2.7109 -0.8265
  107OSM   H12T10986   3.787   2.114   9.895  0.3808  0.6609  1.7134
  107OSM   C13S10987   3.893   2.228   9.741  0.6814  0.8221 -0.1896
  107OSM   H13S10988   3.994   2.185   9.760  0.1392 -1.5933 -2.2892
  107OSM   H13T10989   3.887   2.336   9.717 -2.6858  1.2300  1.9749
  107OSM   C14S10990   3.835   2.139   9.624 -0.0030  0.4022 -0.0549
  107OSM   H14S10991   3.726   2.154   9.613  0.1510  0.6553 -1.3131
  107OSM   H14T10992   3.854   2.033   9.651  1.0114  0.8269  1.0017
  107OSM   C15S10993   3.899   2.180   9.491  0.0778  0.8076 -0.0272
  107OSM   H15S10994   4.009   2.189   9.495  0.4464 -2.6850  0.8371
  107OSM   H15T10995   3.852   2.278   9.469 -1.0623  0.8001  2.0910
  107OSM   C16S10996   3.866   2.082   9.380 -0.3616  0.6700  0.1942
  107OSM   H16S10997   3.756   2.083   9.363 -0.4534 -2.0917  0.2093
  107OSM   H16T10998   3.899   1.981   9.414  0.7572  1.2102  0.7662
  107OSM   C17S10999   3.935   2.121   9.245  0.0278 -0.2536  1.0073
  107OSM   H17S11000   4.043   2.138   9.264  0.3364 -0.1619 -0.6733
  107OSM   H17T11001   3.889   2.216   9.209  2.9203  1.1887  0.7892
  107OSM   C18S11002   3.934   2.023   9.133 -0.5212  0.0437  0.1975
  107OSM   H18S11003   3.949   1.926   9.185  0.0066  1.1238  2.1575
  107OSM   H18T11004   4.021   2.028   9.065  1.3702  1.1787  2.5244
  107OSM   H18U11005   3.832   2.014   9.089 -0.5061  0.2843  0.1144
  107OSM    C1F11006   3.328   2.337  10.355  0.6722 -0.6875  0.6275
  107OSM     OF11007   3.244   2.429  10.343 -0.4743  0.6075  0.2422
  107OSM    C2F11008   3.386   2.280  10.230 -0.5092 -0.2979  0.7542
  107OSM    H2F11009   3.368   2.171  10.235  1.1547 -0.5714  1.3932
  107OSM    H2G11010   3.495   2.298  10.237 -0.3385 -0.5499 -0.8861
  107OSM    C3F11011   3.339   2.332  10.090  0.1532 -0.3686  0.8563
  107OSM    H3F11012   3.334   2.443  10.081 -1.5365 -0.3465  1.8309
  107OSM    H3G11013   3.232   2.307  10.080  0.1240  0.0915 -0.1155
  107OSM    C4F11014   3.429   2.283   9.979  1.0707  0.5345 -0.0336
  107OSM    H4F11015   3.436   2.173   9.994  0.5838  0.5707  0.4735
  107OSM    H4G11016   3.536   2.309   9.990  1.6556 -1.3662 -0.8339
  107OSM    C5F11017   3.378   2.327   9.840 -0.3246 -0.0141  0.2376
  107OSM    H5F11018   3.374   2.437   9.851 -0.9028 -0.2104  2.4078
  107OSM    H5G11019   3.274   2.286   9.839  0.1838 -1.4242  1.5458
  107OSM    C6F11020   3.452   2.281   9.713 -0.1371 -0.3343 -0.1055
  107OSM    H6F11021   3.479   2.175   9.731 -0.6605 -0.5410 -0.5215
  107OSM    H6G11022   3.544   2.343   9.713 -0.4367  0.2247  2.9667
  107OSM    C7F11023   3.386   2.295   9.579 -0.0762  0.6786  0.0716
  107OSM    H7F11024   3.345   2.397   9.564  1.9727  1.4761 -0.3310
  107OSM    H7G11025   3.301   2.223   9.580 -0.7747  1.4854  0.1513
  107OSM    C8F11026   3.489   2.269   9.467 -0.1403  0.2777  0.0099
  107OSM    H8F11027   3.537   2.171   9.490 -0.4392  0.4530  1.5238
  107OSM    H8G11028   3.568   2.348   9.465  0.3748 -0.2421 -0.7580
  107OSM    C9F11029   3.421   2.252   9.330 -1.2192  0.1260 -0.2704
  107OSM    H9F11030   3.344   2.174   9.330 -1.0348 -0.2950  4.3380
  107OSM   C10F11031   3.443   2.328   9.219  0.3762 -0.0109 -0.2061
  107OSM   H10F11032   3.375   2.311   9.134 -2.5799  0.0251  2.0330
  107OSM   C11F11033   3.546   2.442   9.194  0.2453  0.6508 -0.5976
  107OSM   H11F11034   3.626   2.427   9.269 -0.8815  0.0538  0.5389
  107OSM   H11G11035   3.501   2.542   9.211  0.1181  0.6978 -1.2051
  107OSM   C12F11036   3.611   2.439   9.056 -0.2592 -0.4379 -0.2812
  107OSM   H12F11037   3.638   2.332   9.042  0.3489 -0.2072 -0.9139
  107OSM   H12G11038   3.708   2.491   9.070  0.5656 -1.7815 -0.8512
  107OSM   C13F11039   3.534   2.496   8.944 -0.4731  0.0138  1.0022
  107OSM   H13F11040   3.427   2.466   8.947 -0.3433 -0.3629  2.1668
  107OSM   H13G11041   3.579   2.477   8.844 -1.8119  0.2832  0.3107
  107OSM   C14F11042   3.543   2.647   8.946 -0.3953 -0.0417 -0.3945
  107OSM   H14F11043   3.648   2.674   8.970  0.5726 -1.6791 -2.4169
  107OSM   H14G11044   3.485   2.670   9.038  1.1580 -1.8551  1.1404
  107OSM   C15F11045   3.503   2.715   8.818 -0.7489 -0.0364 -0.1999
  107OSM   H15F11046   3.401   2.677   8.800 -0.2449 -1.9024  0.6417
  107OSM   H15G11047   3.575   2.695   8.736 -1.4240  2.1162 -1.3811
  107OSM   C16F11048   3.505   2.869   8.829  0.0370  0.3409 -0.2524
  107OSM   H16F11049   3.600   2.891   8.883 -0.8742  0.5844  1.3086
  107OSM   H16G11050   3.433   2.907   8.904  1.0407  2.9048 -0.5013
  107OSM   C17F11051   3.487   2.936   8.693 -0.4009  0.0358 -0.5347
  107OSM   H17F11052   3.380   2.923   8.668 -0.5862 -1.9446  1.0332
  107OSM   H17G11053   3.544   2.881   8.614  0.2070  2.1525 -1.6575
  107OSM   C18F11054   3.552   3.073   8.710  0.0237 -0.7531 -0.4285
  107OSM   H18F11055   3.657   3.058   8.741 -0.0633  0.0469  0.2890
  107OSM   H18G11056   3.503   3.138   8.785 -1.3672 -2.6718  0.4195
  107OSM   H18H11057   3.552   3.131   8.615  0.4272 -3.4414 -2.1957
  108OSM      N11058   1.618   6.757  10.707 -0.4811 -0.4525  0.0450
  108OSM    C1511059   1.646   6.701  10.574  0.1754  0.1811  0.1704
  108OSM   H15A11060   1.747   6.663  10.566  0.8442  2.0489 -0.8071
  108OSM   H15B11061   1.640   6.778  10.499 -0.8368 -1.9427 -2.0998
  108OSM   H15C11062   1.577   6.627  10.535  1.6834 -1.7307  0.9296
  108OSM    C1411063   1.640   6.649  10.809 -0.4932 -0.1567  0.2778
  108OSM   H14A11064   1.638   6.692  10.908  0.5623  2.4445 -0.7258
  108OSM   H14B11065   1.724   6.584  10.794  0.6274  1.0236  1.2207
  108OSM   H14C11066   1.558   6.580  10.794  1.7662 -2.5833 -1.8182
  108OSM    C1311067   1.711   6.871  10.729 -0.4089 -0.3377 -0.3380
  108OSM   H13A11068   1.714   6.903  10.832 -0.1223  1.8534 -0.9896
  108OSM   H13B11069   1.685   6.945  10.655  1.8796  0.2403 -0.6291
  108OSM   H13C11070   1.808   6.834  10.700  0.4110  1.2516  0.2660
  108OSM    C1211071   1.478   6.816  10.713 -0.0018 -0.3252  0.2234
  108OSM   H12A11072   1.467   6.887  10.633  2.2286  0.9546  0.9738
  108OSM   H12B11073   1.451   6.870  10.803 -1.5138  2.4892 -1.7509
  108OSM    C1111074   1.358   6.716  10.694  0.5394  0.6184  0.2254
  108OSM   H11A11075   1.361   6.665  10.595  0.2292 -0.9058  0.9753
  108OSM   H11B11076   1.264   6.770  10.672  0.6206  0.9701  0.7337
  108OSM      P11077   1.304   6.469  10.763  0.5698  0.1265 -0.2490
  108OSM    O1311078   1.413   6.395  10.701  0.0311  0.1878 -0.0292
  108OSM    O1411079   1.273   6.420  10.900  0.2573 -0.0713  0.1994
  108OSM    O1111080   1.170   6.461  10.673  0.0582  0.3049  0.1197
  108OSM    O1211081   1.341   6.619  10.792  0.2273  0.2423  0.8108
  108OSM    C1S11082   1.047   6.512  10.709  0.2600 -0.5922 -0.6323
  108OSM    H1S11083   1.057   6.604  10.770 -0.7769 -0.6032 -0.4306
  108OSM    H1T11084   1.002   6.441  10.781  0.8048 -0.3529 -0.0478
  108OSM     NF11085   0.839   6.613  10.615  0.1046 -0.5859 -0.0038
  108OSM    HNF11086   0.757   6.566  10.583  0.0494  0.0155 -0.7887
  108OSM    C2S11087   0.960   6.540  10.582  0.5331 -0.1708 -0.8623
  108OSM    H2S11088   1.018   6.608  10.516  0.1940  1.0583  0.0713
  108OSM    C3S11089   0.933   6.407  10.500  0.2635  0.1548 -0.2730
  108OSM    H3S11090   0.854   6.366  10.566 -0.1593 -0.0555 -0.9039
  108OSM     O311091   1.047   6.315  10.502  0.3093  0.2304 -0.6187
  108OSM    HO311092   1.110   6.354  10.564  2.8468 -1.6725 -1.8092
  108OSM    C4S11093   0.880   6.433  10.363  0.2330 -0.2900 -0.4261
  108OSM    H4S11094   0.939   6.508  10.310  1.6482 -2.1473 -1.6165
  108OSM    C5S11095   0.772   6.377  10.309  0.6934  0.8218 -0.2873
  108OSM    H5S11096   0.711   6.313  10.375  0.4560  0.1124 -1.1829
  108OSM    C6S11097   0.699   6.415  10.180 -0.0431  0.1469 -0.0115
  108OSM    H6S11098   0.602   6.460  10.212 -0.6440 -1.4755  0.5456
  108OSM    H6T11099   0.676   6.323  10.122  0.3026 -0.2525  0.4769
  108OSM    C7S11100   0.773   6.516  10.093 -0.5607 -0.1269  0.1253
  108OSM    H7S11101   0.873   6.478  10.064 -0.7448 -0.2638 -0.3410
  108OSM    H7T11102   0.802   6.607  10.149 -1.0225 -0.2702  0.6077
  108OSM    C8S11103   0.693   6.561   9.966 -0.1344 -0.2022  0.1191
  108OSM    H8S11104   0.612   6.629   9.998 -0.2821 -0.4441  0.2637
  108OSM    H8T11105   0.636   6.480   9.916 -1.1444  1.1759 -1.0546
  108OSM    C9S11106   0.783   6.629   9.865 -0.4785  0.1810 -0.1729
  108OSM    H9S11107   0.864   6.556   9.840  0.2405  0.8061  0.2895
  108OSM    H9T11108   0.828   6.723   9.904 -0.0955 -0.5554  1.2331
  108OSM   C10S11109   0.705   6.664   9.742  0.1473 -0.3828 -0.4716
  108OSM   H10S11110   0.650   6.755   9.772 -0.3076 -0.6220 -0.5718
  108OSM   H10T11111   0.634   6.584   9.711  0.4384 -0.5727 -0.6512
  108OSM   C11S11112   0.783   6.702   9.617 -0.3478 -0.3123 -0.0137
  108OSM   H11S11113   0.842   6.615   9.580 -0.1084  0.2324 -0.9471
  108OSM   H11T11114   0.856   6.783   9.634 -0.2590 -0.8341  2.4226
  108OSM   C12S11115   0.700   6.734   9.494  0.2152  0.4163  0.1674
  108OSM   H12S11116   0.655   6.834   9.512  0.0979  0.7233 -1.6305
  108OSM   H12T11117   0.614   6.663   9.490  0.8322 -0.3945  0.9847
  108OSM   C13S11118   0.776   6.733   9.363  0.4607  0.5781 -0.2739
  108OSM   H13S11119   0.806   6.629   9.342 -0.9436  0.2410 -0.7403
  108OSM   H13T11120   0.872   6.788   9.377  1.5148 -1.8334  3.0887
  108OSM   C14S11121   0.690   6.796   9.251  0.1610  0.0954 -0.2278
  108OSM   H14S11122   0.670   6.901   9.283 -2.2511 -0.9664  2.1963
  108OSM   H14T11123   0.592   6.743   9.249 -0.8387  1.8704 -2.7408
  108OSM   C15S11124   0.754   6.778   9.108  0.3246  0.0734 -0.3709
  108OSM   H15S11125   0.758   6.670   9.083  3.2852  0.2370 -0.9772
  108OSM   H15T11126   0.860   6.809   9.098  0.3791 -0.3845 -1.3595
  108OSM   C16S11127   0.674   6.844   8.998  0.4589  0.2410  0.9145
  108OSM   H16S11128   0.682   6.952   9.018 -2.1227  0.4475  1.1824
  108OSM   H16T11129   0.566   6.822   9.013  0.5820 -0.4844  0.8140
  108OSM   C17S11130   0.725   6.816   8.854 -0.3964  0.2688 -0.1027
  108OSM   H17S11131   0.730   6.706   8.845 -0.1475  0.2977 -0.3482
  108OSM   H17T11132   0.829   6.854   8.848  0.3125 -1.4469  0.7306
  108OSM   C18S11133   0.633   6.850   8.739 -0.3856 -0.1479 -0.4671
  108OSM   H18S11134   0.680   6.821   8.642 -0.8103  0.6713 -0.9377
  108OSM   H18T11135   0.607   6.958   8.746 -0.3106  0.0421 -2.4418
  108OSM   H18U11136   0.539   6.795   8.761 -0.0427  0.1669  2.0256
  108OSM    C1F11137   0.833   6.740  10.665 -0.0643  0.3206 -0.0838
  108OSM     OF11138   0.934   6.813  10.683 -0.2963  0.2783 -0.3815
  108OSM    C2F11139   0.697   6.797  10.702  0.4590 -0.1843  0.2087
  108OSM    H2F11140   0.666   6.752  10.799 -0.9596 -1.7351 -0.9102
  108OSM    H2G11141   0.618   6.768  10.629  0.2666  0.5931  0.1072
  108OSM    C3F11142   0.700   6.951  10.717  0.3680 -0.3157  0.0567
  108OSM    H3F11143   0.769   6.986  10.797  0.1949  0.2376 -0.0272
  108OSM    H3G11144   0.597   6.980  10.746  0.5982  1.2994 -0.5803
  108OSM    C4F11145   0.736   7.025  10.580  0.2889 -0.0558  0.7333
  108OSM    H4F11146   0.839   7.009  10.542 -0.4193 -0.7707 -0.9896
  108OSM    H4G11147   0.719   7.135  10.586 -0.6446 -0.0355 -1.2917
  108OSM    C5F11148   0.651   6.988  10.450 -0.3931  0.0662 -0.2834
  108OSM    H5F11149   0.547   7.018  10.471 -1.2682 -0.7411 -3.0336
  108OSM    H5G11150   0.654   6.877  10.444  1.0857 -0.0365  1.5162
  108OSM    C6F11151   0.698   7.057  10.321  0.4597 -0.8029 -0.1568
  108OSM    H6F11152   0.794   7.007  10.293 -0.2246 -1.6827 -1.0296
  108OSM    H6G11153   0.712   7.167  10.322  1.4541 -0.9016 -1.0045
  108OSM    C7F11154   0.595   7.024  10.216  0.4728 -0.3189 -0.5978
  108OSM    H7F11155   0.493   7.057  10.246  0.6406 -0.9066  0.6487
  108OSM    H7G11156   0.577   6.915  10.208  0.5881 -0.6518  2.6628
  108OSM    C8F11157   0.621   7.090  10.077  0.1236  0.1174 -0.3153
  108OSM    H8F11158   0.615   7.201  10.065 -1.3521  0.3359  1.8729
  108OSM    H8G11159   0.521   7.065  10.036 -1.2431  0.3348  2.6574
  108OSM    C9F11160   0.725   7.016   9.999  0.6671 -0.6225 -0.7077
  108OSM    H9F11161   0.764   6.932  10.057  1.6974  0.3659  0.0729
  108OSM   C10F11162   0.777   7.061   9.888 -0.0282 -0.2039  0.0935
  108OSM   H10F11163   0.838   6.987   9.834  0.4146  0.4805 -0.3539
  108OSM   C11F11164   0.733   7.182   9.815 -0.4548 -0.3684 -1.1257
  108OSM   H11F11165   0.728   7.263   9.890  0.7841 -1.5659  0.3111
  108OSM   H11G11166   0.625   7.177   9.789 -0.4737  0.8441 -1.3607
  108OSM   C12F11167   0.812   7.227   9.697  0.1649 -0.2821  0.2167
  108OSM   H12F11168   0.919   7.234   9.726  0.0104  0.1643  0.6878
  108OSM   H12G11169   0.783   7.329   9.665  0.1684 -0.8867 -1.8432
  108OSM   C13F11170   0.790   7.141   9.564  0.7668  0.0748 -0.1117
  108OSM   H13F11171   0.693   7.167   9.516  0.9602 -0.7096 -0.9510
  108OSM   H13G11172   0.783   7.037   9.602 -1.3633  0.4482  0.6411
  108OSM   C14F11173   0.912   7.148   9.468 -0.5174 -0.1048  0.3443
  108OSM   H14F11174   0.999   7.092   9.510 -1.0076 -2.8629 -2.0617
  108OSM   H14G11175   0.952   7.252   9.459 -2.0563  0.4786  0.0649
  108OSM   C15F11176   0.895   7.096   9.328  0.0028 -0.0663 -0.3386
  108OSM   H15F11177   0.803   7.133   9.277 -0.5908 -2.1906 -0.9135
  108OSM   H15G11178   0.878   6.987   9.342  1.2320  0.0427  2.7155
  108OSM   C16F11179   1.013   7.112   9.238  0.3682  0.1946 -0.1224
  108OSM   H16F11180   1.109   7.082   9.286  0.4202  1.0433  0.3310
  108OSM   H16G11181   1.039   7.220   9.226 -1.1985  0.8085  1.5399
  108OSM   C17F11182   1.002   7.053   9.094  0.7783  0.0618  0.4730
  108OSM   H17F11183   0.907   7.093   9.052  0.4273  0.0609  1.2409
  108OSM   H17G11184   0.986   6.943   9.097 -3.8809  0.4907 -0.9229
  108OSM   C18F11185   1.121   7.085   9.000 -0.0331  0.9628  0.0919
  108OSM   H18F11186   1.110   7.039   8.899  1.4776 -0.4071  0.5145
  108OSM   H18G11187   1.212   7.040   9.045 -0.0906  2.8405  2.2816
  108OSM   H18H11188   1.141   7.194   8.995  3.1384  0.4283 -0.6967
  109OSM      N11189   3.118   5.502  10.775  0.2861  0.4348 -0.0157
  109OSM    C1511190   3.111   5.590  10.894 -0.1797 -0.3572 -0.7330
  109OSM   H15A11191   3.197   5.586  10.958 -1.8200 -1.7904  1.5341
  109OSM   H15B11192   3.030   5.565  10.961  1.6876 -2.9985  0.7033
  109OSM   H15C11193   3.107   5.695  10.871  1.0878  0.2626  1.5828
  109OSM    C1411194   3.260   5.495  10.726 -0.4919  0.1079  0.3642
  109OSM   H14A11195   3.305   5.593  10.729 -2.7271  1.1768  1.4668
  109OSM   H14B11196   3.266   5.463  10.623  0.7995  0.0924  0.4209
  109OSM   H14C11197   3.331   5.434  10.782  1.6356  1.1322 -1.0725
  109OSM    C1311198   3.074   5.361  10.805 -0.0034  0.1472 -0.2414
  109OSM   H13A11199   2.968   5.354  10.822  0.1101 -0.9344  0.0580
  109OSM   H13B11200   3.129   5.309  10.882  0.4140 -3.6627 -2.8489
  109OSM   H13C11201   3.085   5.293  10.722 -0.9886 -0.4766  0.1255
  109OSM    C1211202   3.022   5.554  10.668  0.0351  0.6757  0.1476
  109OSM   H12A11203   2.925   5.547  10.715 -0.6622  2.1440 -0.9885
  109OSM   H12B11204   3.042   5.491  10.583 -3.5480 -1.8700  0.9738
  109OSM    C1111205   3.029   5.698  10.607 -0.4732 -0.2782 -0.1154
  109OSM   H11A11206   2.949   5.722  10.533 -1.5013 -1.0557  0.7044
  109OSM   H11B11207   3.122   5.707  10.547 -1.1117 -2.6303 -1.5841
  109OSM      P11208   2.875   5.851  10.754 -0.0608  0.3295 -0.2007
  109OSM    O1311209   2.795   5.723  10.774 -0.0307 -0.3799 -0.3160
  109OSM    O1411210   2.878   5.935  10.874  0.0094 -0.7028 -0.1604
  109OSM    O1111211   2.822   5.931  10.618  0.2763  0.5437  0.0584
  109OSM    O1211212   3.022   5.796  10.713 -0.9674  0.2166  0.8290
  109OSM    C1S11213   2.903   6.024  10.546 -0.3291  0.2141 -0.5244
  109OSM    H1S11214   3.009   5.995  10.558 -0.9058 -0.9408  2.8265
  109OSM    H1T11215   2.889   6.125  10.592  1.0498  0.9007 -1.5358
  109OSM     NF11216   2.971   6.124  10.322 -0.0914  0.5891 -0.1913
  109OSM    HNF11217   2.939   6.218  10.327 -2.4527 -0.1588 -0.2104
  109OSM    C2S11218   2.880   6.028  10.391  0.5760 -0.2466  0.5925
  109OSM    H2S11219   2.906   5.926  10.357 -0.6044 -0.3922  0.0742
  109OSM    C3S11220   2.727   6.039  10.363 -0.9864 -0.6738  0.1471
  109OSM    H3S11221   2.692   6.134  10.410 -0.6186 -1.0470  1.1885
  109OSM     O311222   2.648   5.932  10.420  0.4285 -0.4997  0.0292
  109OSM    HO311223   2.706   5.890  10.484  1.2160  0.8578  0.2403
  109OSM    C4S11224   2.698   6.069  10.214 -0.6058  0.1940  0.1473
  109OSM    H4S11225   2.689   6.178  10.204 -0.3298  0.5486  2.9683
  109OSM    C5S11226   2.667   5.988  10.113  0.3374  0.8310 -0.3256
  109OSM    H5S11227   2.646   5.882  10.133  3.1722  0.4857  1.4038
  109OSM    C6S11228   2.637   6.034   9.973  0.4304  0.1050  0.5585
  109OSM    H6S11229   2.548   5.979   9.936  0.1077  1.9949 -1.6398
  109OSM    H6T11230   2.720   6.008   9.904 -1.0334  0.5219 -1.4326
  109OSM    C7S11231   2.608   6.184   9.967 -0.0212 -0.5600  0.7234
  109OSM    H7S11232   2.698   6.243   9.993 -1.1076  0.9083  1.3270
  109OSM    H7T11233   2.525   6.212  10.036 -1.7826 -1.7368 -0.8417
  109OSM    C8S11234   2.562   6.226   9.828 -0.4243  0.6305  0.2247
  109OSM    H8S11235   2.451   6.230   9.831 -0.4609 -0.4691  1.1600
  109OSM    H8T11236   2.591   6.147   9.755  2.0684  0.5041  1.2341
  109OSM    C9S11237   2.628   6.357   9.778 -0.4907 -0.4251  0.5088
  109OSM    H9S11238   2.737   6.348   9.758 -0.3002  1.2505  0.6732
  109OSM    H9T11239   2.607   6.439   9.849 -0.1576  0.7280 -0.6722
  109OSM   C10S11240   2.548   6.408   9.655 -0.0835  0.8213 -0.1844
  109OSM   H10S11241   2.588   6.508   9.627  0.6895  2.0515  4.4858
  109OSM   H10T11242   2.444   6.435   9.683 -0.6179 -0.6761 -0.6092
  109OSM   C11S11243   2.541   6.316   9.537 -0.0990 -0.0801 -0.2268
  109OSM   H11S11244   2.492   6.219   9.557  0.5534 -0.0755  1.5484
  109OSM   H11T11245   2.650   6.308   9.514 -0.1717 -1.0320 -0.2620
  109OSM   C12S11246   2.470   6.392   9.425  0.6338 -0.8804 -0.3380
  109OSM   H12S11247   2.501   6.498   9.436  0.5095 -0.9537  0.8791
  109OSM   H12T11248   2.360   6.392   9.441  0.8704 -0.8213  1.5524
  109OSM   C13S11249   2.508   6.352   9.285  0.0681 -0.9477  0.0383
  109OSM   H13S11250   2.484   6.243   9.289  0.1384 -0.9566  0.2299
  109OSM   H13T11251   2.617   6.371   9.273 -0.0127 -0.7786 -0.4448
  109OSM   C14S11252   2.426   6.420   9.169 -0.6595  0.1850 -0.3734
  109OSM   H14S11253   2.429   6.531   9.180  0.7475  0.2878 -1.5168
  109OSM   H14T11254   2.319   6.392   9.177 -0.4194 -0.7989 -0.4711
  109OSM   C15S11255   2.481   6.377   9.036  0.0550 -0.3671  0.5964
  109OSM   H15S11256   2.455   6.269   9.025  0.8561 -0.5234  0.1499
  109OSM   H15T11257   2.592   6.382   9.037  0.1661 -2.1473  0.1562
  109OSM   C16S11258   2.417   6.453   8.923  1.4021  0.2193 -0.0121
  109OSM   H16S11259   2.471   6.549   8.937  0.2190  0.8696  0.2455
  109OSM   H16T11260   2.308   6.459   8.942  1.1561  0.4434 -1.3934
  109OSM   C17S11261   2.447   6.400   8.782  0.3889  0.4411  0.6750
  109OSM   H17S11262   2.427   6.475   8.702 -0.8555 -0.0485  0.5070
  109OSM   H17T11263   2.371   6.325   8.750  0.4429  0.0472  1.4411
  109OSM   C18S11264   2.586   6.351   8.751 -0.1727 -0.8314  0.4740
  109OSM   H18S11265   2.587   6.246   8.788  0.4132 -1.7422 -1.9108
  109OSM   H18T11266   2.663   6.421   8.790 -1.4668 -0.1101  1.8270
  109OSM   H18U11267   2.615   6.344   8.644  1.5525 -2.2610  0.9753
  109OSM    C1F11268   3.104   6.105  10.320 -0.3473  0.0167  0.3630
  109OSM     OF11269   3.155   5.996  10.364  0.2525 -0.4961  0.0486
  109OSM    C2F11270   3.188   6.215  10.275  0.3513 -0.1843 -0.0567
  109OSM    H2F11271   3.247   6.249  10.363 -0.7718 -1.2058  1.1265
  109OSM    H2G11272   3.128   6.303  10.244 -0.7054 -0.4767  1.0935
  109OSM    C3F11273   3.302   6.181  10.177 -0.1550 -1.0329  0.1882
  109OSM    H3F11274   3.367   6.104  10.225  1.1869  0.1666  0.3649
  109OSM    H3G11275   3.365   6.273  10.176  1.4699 -2.0593 -2.1471
  109OSM    C4F11276   3.265   6.151  10.032  0.5233  0.2280  0.0063
  109OSM    H4F11277   3.228   6.047  10.020  2.7280 -0.5458 -0.4928
  109OSM    H4G11278   3.361   6.160   9.976 -0.4529  0.3530 -1.7100
  109OSM    C5F11279   3.163   6.247   9.974  0.5652  0.8221  0.3819
  109OSM    H5F11280   3.201   6.351   9.985  2.8018  0.0706  0.3307
  109OSM    H5G11281   3.065   6.235  10.024 -0.0565  0.3308 -0.8916
  109OSM    C6F11282   3.138   6.232   9.820  0.2936 -0.4153  0.0878
  109OSM    H6F11283   3.135   6.125   9.791  0.6363  0.2353 -2.6475
  109OSM    H6G11284   3.219   6.286   9.767 -0.4338  0.2246 -0.4075
  109OSM    C7F11285   3.007   6.303   9.788  0.5831  0.6501 -0.2389
  109OSM    H7F11286   3.016   6.410   9.818  0.6577  1.3269 -2.4970
  109OSM    H7G11287   2.923   6.260   9.848  0.8527 -1.0643 -1.0488
  109OSM    C8F11288   2.969   6.299   9.635 -0.4149 -1.0516  0.2553
  109OSM    H8F11289   2.870   6.348   9.633  0.5290  1.0795  1.8212
  109OSM    H8G11290   2.976   6.197   9.592  0.1482 -1.4230  1.1900
  109OSM    C9F11291   3.076   6.372   9.547  0.8117  0.1799 -0.6363
  109OSM    H9F11292   3.174   6.399   9.589  1.1360  0.8870 -1.7982
  109OSM   C10F11293   3.061   6.421   9.424  0.5164  0.1362 -0.0325
  109OSM   H10F11294   3.145   6.471   9.374 -0.8777  1.4669 -1.1348
  109OSM   C11F11295   2.937   6.406   9.346 -0.3926 -0.0463  0.1204
  109OSM   H11F11296   2.903   6.511   9.335 -2.1567 -0.4580  1.2073
  109OSM   H11G11297   2.863   6.350   9.407  0.9617  0.0726  1.9974
  109OSM   C12F11298   2.976   6.335   9.212  0.1006 -0.7786 -0.4779
  109OSM   H12F11299   3.008   6.229   9.222 -3.4896 -1.9105  0.6682
  109OSM   H12G11300   3.048   6.402   9.160 -1.0227 -0.7522 -2.0629
  109OSM   C13F11301   2.860   6.352   9.113  0.4878  0.2095  0.3454
  109OSM   H13F11302   2.827   6.458   9.105 -2.1334 -0.5570  0.0826
  109OSM   H13G11303   2.777   6.296   9.162 -0.0530  1.2725  0.6636
  109OSM   C14F11304   2.896   6.283   8.982  0.3511 -0.4176 -0.6501
  109OSM   H14F11305   2.798   6.253   8.939 -0.1752  1.4353 -0.8186
  109OSM   H14G11306   2.953   6.191   9.007  0.1812 -0.8205 -1.7212
  109OSM   C15F11307   2.963   6.378   8.883  0.0841 -0.3180 -0.1745
  109OSM   H15F11308   3.072   6.392   8.899  0.4459 -0.4676 -2.1737
  109OSM   H15G11309   2.919   6.480   8.889  1.5201  0.2258  2.0197
  109OSM   C16F11310   2.957   6.316   8.743 -0.0162 -0.1423  0.0696
  109OSM   H16F11311   2.851   6.305   8.712  0.1959 -0.8820 -0.4505
  109OSM   H16G11312   3.002   6.216   8.725 -1.1195 -0.4345 -1.2836
  109OSM   C17F11313   3.024   6.414   8.643 -0.1552 -0.2526  0.3489
  109OSM   H17F11314   3.049   6.372   8.543 -1.1946  1.9429 -0.9081
  109OSM   H17G11315   3.127   6.444   8.672  0.6042  0.0398 -2.4184
  109OSM   C18F11316   2.941   6.539   8.610  0.5484  0.0992 -0.1699
  109OSM   H18F11317   2.849   6.504   8.560 -0.2814  3.1784 -0.9854
  109OSM   H18G11318   3.003   6.598   8.539  0.6927 -1.5617 -1.5008
  109OSM   H18H11319   2.916   6.608   8.693 -1.3445 -0.8572  0.0984
  110OSM      N11320   3.875   4.295  11.076  0.6613 -0.1942  0.3208
  110OSM    C1511321   3.879   4.226  10.942 -0.2820 -0.1076 -0.1265
  110OSM   H15A11322   3.922   4.292  10.867  2.6305  1.0483  2.3273
  110OSM   H15B11323   3.781   4.191  10.914  0.1897 -0.8775 -0.8398
  110OSM   H15C11324   3.935   4.134  10.939  0.0132  0.0323 -3.8824
  110OSM    C1411325   3.766   4.398  11.070 -0.0973  0.8294 -0.0053
  110OSM   H14A11326   3.791   4.494  11.112 -0.8122  1.6782 -1.4244
  110OSM   H14B11327   3.678   4.367  11.125  0.1173 -0.5303 -0.3759
  110OSM   H14C11328   3.735   4.428  10.971  1.8460 -0.0906 -0.9428
  110OSM    C1311329   3.843   4.191  11.179  0.0888 -0.0414  0.1768
  110OSM   H13A11330   3.921   4.116  11.186  0.2198  0.1860  1.3331
  110OSM   H13B11331   3.762   4.127  11.148  1.1130 -0.9271 -0.7362
  110OSM   H13C11332   3.826   4.235  11.276 -1.1835 -1.3214  0.5614
  110OSM    C1211333   4.006   4.361  11.113 -0.5683  0.2867 -0.3200
  110OSM   H12A11334   4.073   4.284  11.149  0.1767  1.4835  0.9616
  110OSM   H12B11335   3.998   4.420  11.204  3.2326 -1.5902  1.4952
  110OSM    C1111336   4.072   4.455  11.011 -0.5253  0.1451  0.3958
  110OSM   H11A11337   4.094   4.385  10.928  0.3536 -1.5360  1.9597
  110OSM   H11B11338   4.160   4.496  11.065  0.8331 -2.4863  0.3740
  110OSM      P11339   4.013   4.700  10.905  0.4395 -0.1504  0.0486
  110OSM    O1311340   3.891   4.775  10.871  0.0050 -0.6444 -0.1037
  110OSM    O1411341   4.113   4.760  10.993 -0.4136  0.5488 -0.0056
  110OSM    O1111342   4.089   4.647  10.772 -0.4625 -0.4965 -1.0007
  110OSM    O1211343   3.981   4.557  10.971  0.0308  0.5471  0.0793
  110OSM    C1S11344   4.019   4.565  10.680 -0.4523  0.2056 -0.0458
  110OSM    H1S11345   3.920   4.528  10.715  0.1258 -1.5625 -0.1853
  110OSM    H1T11346   4.078   4.472  10.665  0.8335  1.0931 -0.7161
  110OSM     NF11347   3.916   4.560  10.460 -0.0205  0.4520 -0.0528
  110OSM    HNF11348   3.950   4.509  10.381  2.6523  1.6544  0.2156
  110OSM    C2S11349   4.005   4.635  10.545 -0.1456  0.2113  0.3198
  110OSM    H2S11350   3.957   4.733  10.565 -2.9180 -0.7489 -1.1202
  110OSM    C3S11351   4.139   4.670  10.474  0.3270  0.4245  0.0252
  110OSM    H3S11352   4.200   4.579  10.455 -1.3302 -0.4647 -1.3345
  110OSM     O311353   4.213   4.752  10.563  0.1773 -0.0285  0.4778
  110OSM    HO311354   4.156   4.738  10.638 -2.1870 -0.0894 -1.2202
  110OSM    C4S11355   4.119   4.746  10.343 -0.0856 -0.4547 -0.8917
  110OSM    H4S11356   4.059   4.837  10.362  0.2568 -0.0660 -1.6359
  110OSM    C5S11357   4.164   4.708  10.223 -0.0668  0.1917 -0.0456
  110OSM    H5S11358   4.211   4.610  10.207 -1.3862 -0.3141 -1.0314
  110OSM    C6S11359   4.134   4.789  10.100  0.6088  0.8799  0.2666
  110OSM    H6S11360   4.139   4.898  10.117 -0.5991  0.9020  0.5256
  110OSM    H6T11361   4.026   4.771  10.085  0.3497 -1.4460  3.6537
  110OSM    C7S11362   4.212   4.747   9.973 -0.7749 -0.0990 -0.3472
  110OSM    H7S11363   4.243   4.640   9.977 -0.4517 -0.0054 -0.2489
  110OSM    H7T11364   4.311   4.797   9.984 -1.8339  1.7148  1.4928
  110OSM    C8S11365   4.158   4.798   9.838 -0.1934 -0.3580 -0.1306
  110OSM    H8S11366   4.156   4.909   9.832 -1.0245 -0.3419  0.2744
  110OSM    H8T11367   4.052   4.776   9.816 -0.5593  2.6513 -1.9366
  110OSM    C9S11368   4.235   4.744   9.718 -0.5453  0.3690  0.6293
  110OSM    H9S11369   4.237   4.633   9.711 -0.3736  0.4855 -2.9512
  110OSM    H9T11370   4.342   4.772   9.726 -0.7764  1.5553 -0.2108
  110OSM   C10S11371   4.177   4.794   9.587 -0.1918 -1.1608 -0.0658
  110OSM   H10S11372   4.162   4.904   9.598  1.8064 -0.9095  0.4883
  110OSM   H10T11373   4.072   4.756   9.588 -0.8953  0.6889  0.8887
  110OSM   C11S11374   4.257   4.770   9.466 -0.0200  1.2264  0.1823
  110OSM   H11S11375   4.275   4.663   9.443 -0.3295  1.2852 -0.3425
  110OSM   H11T11376   4.357   4.809   9.495  0.1470  0.3004  0.8921
  110OSM   C12S11377   4.214   4.856   9.349 -0.1248  0.9829  0.3817
  110OSM   H12S11378   4.193   4.960   9.383  0.6132  0.7315  1.6585
  110OSM   H12T11379   4.112   4.837   9.312  1.6953 -1.2644 -4.3339
  110OSM   C13S11380   4.309   4.839   9.239  0.3364  0.1013 -0.1812
  110OSM   H13S11381   4.322   4.729   9.222 -0.1598  0.2932 -2.0191
  110OSM   H13T11382   4.408   4.876   9.274  1.0176 -1.1933 -0.6460
  110OSM   C14S11383   4.254   4.901   9.113 -0.4980 -0.3859 -0.2794
  110OSM   H14S11384   4.266   5.012   9.113 -1.2092 -0.2845 -1.7699
  110OSM   H14T11385   4.146   4.885   9.092 -0.0764 -1.7396 -1.5521
  110OSM   C15S11386   4.324   4.869   8.976  0.1855  0.6193  0.1552
  110OSM   H15S11387   4.283   4.937   8.898 -0.8084  2.0070  1.8129
  110OSM   H15T11388   4.289   4.769   8.944 -0.8272  1.3387 -1.1185
  110OSM   C16S11389   4.475   4.868   8.987  0.2783 -0.6689  0.1114
  110OSM   H16S11390   4.515   4.784   9.047 -0.6385 -0.3170  1.2592
  110OSM   H16T11391   4.504   4.965   9.033 -0.3522  0.8187 -2.4663
  110OSM   C17S11392   4.538   4.878   8.848 -0.4907 -0.3892  0.1708
  110OSM   H17S11393   4.513   4.979   8.809 -1.9003 -0.3790  1.0113
  110OSM   H17T11394   4.488   4.806   8.779 -0.2291  0.7173 -1.2244
  110OSM   C18S11395   4.692   4.864   8.851  0.6427  0.1908  0.6225
  110OSM   H18S11396   4.719   4.756   8.847  1.2049  0.3658 -0.6885
  110OSM   H18T11397   4.740   4.909   8.940  0.2109  0.5112  0.6957
  110OSM   H18U11398   4.727   4.912   8.757 -0.6999  0.7792  0.3922
  110OSM    C1F11399   3.780   4.558  10.472  0.2045  0.7783  0.8022
  110OSM     OF11400   3.721   4.638  10.540  0.2888  0.0218  0.2249
  110OSM    C2F11401   3.704   4.460  10.383 -0.1719 -0.0350 -0.2468
  110OSM    H2F11402   3.621   4.401  10.427  0.0683 -0.6975 -0.6563
  110OSM    H2G11403   3.781   4.387  10.348 -0.8977 -1.2046  0.5053
  110OSM    C3F11404   3.644   4.529  10.255 -0.4631  0.2711 -0.1099
  110OSM    H3F11405   3.568   4.597  10.300 -1.9013 -2.1634  1.3655
  110OSM    H3G11406   3.562   4.471  10.209 -0.0073 -0.0447 -0.5389
  110OSM    C4F11407   3.741   4.589  10.157 -0.8875  0.4382  0.0326
  110OSM    H4F11408   3.799   4.679  10.188  0.0541 -0.0360 -0.3073
  110OSM    H4G11409   3.682   4.631  10.073  2.2869 -0.1103 -2.6952
  110OSM    C5F11410   3.845   4.480  10.113  0.1712 -0.5680  1.5356
  110OSM    H5F11411   3.801   4.378  10.120  2.2308 -1.5098  1.5253
  110OSM    H5G11412   3.938   4.474  10.173  0.6888 -1.8628  0.6426
  110OSM    C6F11413   3.872   4.492   9.960 -0.1463 -0.6829  0.2323
  110OSM    H6F11414   3.906   4.596   9.937 -0.4589 -0.9381 -1.4967
  110OSM    H6G11415   3.776   4.485   9.904  1.7847 -2.1215 -3.2047
  110OSM    C7F11416   3.965   4.384   9.912  0.2779 -0.3207 -0.6076
  110OSM    H7F11417   3.922   4.288   9.948  0.1886  0.3619  1.1956
  110OSM    H7G11418   4.056   4.394   9.975 -0.4421 -0.3144  0.4573
  110OSM    C8F11419   4.009   4.370   9.764 -0.0332  0.7488 -0.4668
  110OSM    H8F11420   4.080   4.287   9.746  0.1038  0.4939  1.1503
  110OSM    H8G11421   4.069   4.462   9.746  0.2683  0.8652  1.0177
  110OSM    C9F11422   3.893   4.365   9.671  0.6310 -0.2652  0.2502
  110OSM    H9F11423   3.814   4.308   9.721  0.0528  0.6960  0.4560
  110OSM   C10F11424   3.872   4.435   9.556  0.4843 -0.0484 -0.0932
  110OSM   H10F11425   3.788   4.404   9.491 -0.2901  0.0741  0.8200
  110OSM   C11F11426   3.960   4.531   9.485 -0.6712 -0.4742 -0.9105
  110OSM   H11F11427   4.066   4.525   9.520 -0.9947 -1.5680 -0.0603
  110OSM   H11G11428   3.918   4.629   9.515 -1.9851 -0.9386 -1.1882
  110OSM   C12F11429   3.953   4.538   9.329 -0.1706  0.2495  0.5371
  110OSM   H12F11430   3.959   4.438   9.280 -0.8781  1.0780 -1.3684
  110OSM   H12G11431   4.035   4.600   9.288  0.4327 -1.7416 -1.5168
  110OSM   C13F11432   3.813   4.599   9.273  0.4575  0.6231 -0.8329
  110OSM   H13F11433   3.804   4.704   9.309  1.3023 -0.0204  1.4265
  110OSM   H13G11434   3.727   4.545   9.319  1.3581 -0.7474 -0.6974
  110OSM   C14F11435   3.796   4.599   9.117  0.0270  0.8270 -0.2959
  110OSM   H14F11436   3.688   4.624   9.103 -0.0241  1.6701  1.3528
  110OSM   H14G11437   3.810   4.493   9.088  1.2250  0.5786  1.0993
  110OSM   C15F11438   3.893   4.681   9.037 -0.7884 -0.0635  0.2711
  110OSM   H15F11439   3.995   4.661   9.077  0.3185 -0.6836 -2.6376
  110OSM   H15G11440   3.867   4.788   9.052  0.0666  0.0750  0.8460
  110OSM   C16F11441   3.903   4.641   8.885 -0.3921  0.2003  0.1281
  110OSM   H16F11442   3.807   4.627   8.832  0.6486  0.1211 -1.8231
  110OSM   H16G11443   3.955   4.543   8.878  0.0397  0.4892 -0.8075
  110OSM   C17F11444   3.988   4.744   8.796  0.8383  0.2203  0.0487
  110OSM   H17F11445   3.988   4.713   8.689  1.2694 -0.9704  0.3834
  110OSM   H17G11446   4.091   4.729   8.832  0.0838 -4.2937  0.8808
  110OSM   C18F11447   3.957   4.886   8.811  0.4281 -0.1913 -0.0302
  110OSM   H18F11448   3.978   4.925   8.912 -0.8710  1.2818 -0.2985
  110OSM   H18G11449   3.848   4.889   8.789  0.7562  1.0381 -1.7088
  110OSM   H18H11450   4.008   4.940   8.728 -0.0133  0.2717 -0.0035
  111OSM      N11451   2.629   3.431  10.835 -0.1554  0.5029  0.1953
  111OSM    C1511452   2.708   3.377  10.950 -0.1128  0.2282 -0.3559
  111OSM   H15A11453   2.803   3.334  10.921 -0.5070  0.0565 -1.4282
  111OSM   H15B11454   2.647   3.305  11.003  2.0762 -1.6846 -0.2469
  111OSM   H15C11455   2.715   3.461  11.018 -2.6014 -0.4861  0.8919
  111OSM    C1411456   2.564   3.313  10.774  0.3712 -0.7087 -0.3216
  111OSM   H14A11457   2.494   3.336  10.695 -0.2067 -1.4517 -0.0395
  111OSM   H14B11458   2.506   3.257  10.846 -0.2726  1.6421  1.1020
  111OSM   H14C11459   2.628   3.238  10.729 -1.0332 -1.4602 -1.1354
  111OSM    C1311460   2.526   3.523  10.889  0.2427  0.5071  0.3269
  111OSM   H13A11461   2.462   3.539  10.803 -0.4343 -0.4252  0.6492
  111OSM   H13B11462   2.567   3.614  10.930 -0.3179  0.7783  0.2994
  111OSM   H13C11463   2.480   3.468  10.969  1.1201 -1.7627 -0.6509
  111OSM    C1211464   2.722   3.502  10.742 -0.3270 -0.1514 -0.3988
  111OSM   H12A11465   2.757   3.581  10.807 -0.2557  0.4784 -1.1856
  111OSM   H12B11466   2.673   3.544  10.655  0.9605 -2.1884 -2.2123
  111OSM    C1111467   2.841   3.431  10.681 -0.1820  0.0244 -0.7746
  111OSM   H11A11468   2.898   3.495  10.610  2.1462  0.2902  1.1948
  111OSM   H11B11469   2.801   3.351  10.616  0.7559 -2.6798  1.7608
  111OSM      P11470   3.089   3.378  10.762  0.1077  0.3764  0.1126
  111OSM    O1311471   3.152   3.482  10.846 -0.4672 -0.4755 -0.4725
  111OSM    O1411472   3.112   3.233  10.789 -0.0021 -0.2857 -0.3535
  111OSM    O1111473   3.121   3.406  10.613  0.3825  0.4833  0.2755
  111OSM    O1211474   2.933   3.384  10.778  0.7661  0.3717  0.0674
  111OSM    C1S11475   3.110   3.322  10.499  0.2110 -0.0300 -0.1220
  111OSM    H1S11476   3.014   3.267  10.504  0.1865  0.0526  0.4640
  111OSM    H1T11477   3.184   3.239  10.498 -0.5649 -0.7467 -1.6177
  111OSM     NF11478   3.066   3.327  10.256 -0.2909 -0.1742 -1.1509
  111OSM    HNF11479   3.132   3.272  10.206 -0.5772 -0.7568 -0.8973
  111OSM    C2S11480   3.115   3.409  10.368 -0.0691  0.2232 -0.0632
  111OSM    H2S11481   3.047   3.495  10.382 -0.0450  0.2430 -0.0690
  111OSM    C3S11482   3.267   3.457  10.357 -0.4328 -0.2224  0.2856
  111OSM    H3S11483   3.330   3.366  10.348  0.0348  0.0742  0.4675
  111OSM     O311484   3.316   3.535  10.469  0.2799 -0.4181 -0.4931
  111OSM    HO311485   3.262   3.512  10.544  2.3678  0.1996  1.3047
  111OSM    C4S11486   3.297   3.542  10.240 -0.0508 -0.1104  0.6269
  111OSM    H4S11487   3.344   3.488  10.156 -1.2142  0.2579 -0.2885
  111OSM    C5S11488   3.268   3.672  10.222 -0.4678  0.2185 -0.5780
  111OSM    H5S11489   3.203   3.733  10.285 -0.3198 -1.7241  1.5921
  111OSM    C6S11490   3.296   3.736  10.086  0.0596 -0.2999 -0.6008
  111OSM    H6S11491   3.360   3.667  10.027 -0.4319 -2.2950  1.0944
  111OSM    H6T11492   3.341   3.837  10.100  0.5156 -0.5289 -0.3807
  111OSM    C7S11493   3.174   3.751   9.996  0.4809  0.0589  0.2676
  111OSM    H7S11494   3.099   3.822  10.035  1.3668  0.3298  1.5190
  111OSM    H7T11495   3.133   3.647   9.990  0.9297 -0.0419 -1.6703
  111OSM    C8S11496   3.222   3.785   9.851 -0.3733  0.2754  0.2548
  111OSM    H8S11497   3.314   3.725   9.839 -0.6443 -0.6103  2.1663
  111OSM    H8T11498   3.253   3.891   9.846 -0.8144  0.5387  2.3926
  111OSM    C9S11499   3.128   3.748   9.731 -0.7488 -0.0991  0.0476
  111OSM    H9S11500   3.068   3.839   9.713  2.0390  1.5986 -1.4646
  111OSM    H9T11501   3.050   3.670   9.744 -0.7666 -0.3379 -1.3589
  111OSM   C10S11502   3.202   3.720   9.603 -0.1150  0.4103  0.2232
  111OSM   H10S11503   3.244   3.619   9.619  0.7922  1.1722  3.2570
  111OSM   H10T11504   3.285   3.794   9.599 -1.2081  1.6832  0.6561
  111OSM   C11S11505   3.116   3.722   9.477 -0.6109  0.2477  0.0964
  111OSM   H11S11506   3.072   3.820   9.451 -1.1580  0.3773  1.4548
  111OSM   H11T11507   3.031   3.651   9.490  1.0527 -1.5554  1.9766
  111OSM   C12S11508   3.202   3.681   9.361  0.7468 -0.3964 -0.6857
  111OSM   H12S11509   3.227   3.573   9.370 -0.8653 -0.8772 -1.6452
  111OSM   H12T11510   3.293   3.743   9.375 -1.7159  3.0775  1.3322
  111OSM   C13S11511   3.147   3.708   9.221  0.0620  0.4875  0.4144
  111OSM   H13S11512   3.229   3.722   9.147 -0.9720 -2.6304 -1.4906
  111OSM   H13T11513   3.074   3.792   9.220  0.5932  0.9880 -1.5091
  111OSM   C14S11514   3.066   3.595   9.164 -0.2204  0.0974 -0.3256
  111OSM   H14S11515   2.983   3.574   9.236 -1.0812  2.4919 -0.5182
  111OSM   H14T11516   3.139   3.511   9.166  1.9744  1.8977 -0.9368
  111OSM   C15S11517   3.022   3.621   9.027  0.1611  0.5957 -0.0440
  111OSM   H15S11518   2.998   3.728   9.013  0.4083  0.7970  1.0365
  111OSM   H15T11519   2.921   3.577   9.010  0.3177 -1.0445  2.6679
  111OSM   C16S11520   3.133   3.579   8.918  0.0625 -0.1907 -0.1251
  111OSM   H16S11521   3.164   3.474   8.940  3.8796  0.5904 -1.1039
  111OSM   H16T11522   3.223   3.642   8.929  0.5596 -0.6925 -1.1880
  111OSM   C17S11523   3.060   3.570   8.778  0.5653 -0.4554  0.0846
  111OSM   H17S11524   3.005   3.664   8.756  0.3021 -0.3860  0.9768
  111OSM   H17T11525   2.970   3.505   8.783  1.8466 -2.2145  3.0546
  111OSM   C18S11526   3.150   3.521   8.662  0.1779  0.9553 -0.3697
  111OSM   H18S11527   3.101   3.529   8.562 -3.2725  1.7513  1.2498
  111OSM   H18T11528   3.177   3.414   8.672  1.5669  1.3848  0.7216
  111OSM   H18U11529   3.245   3.578   8.672  0.4809  0.4177 -0.1773
  111OSM    C1F11530   2.936   3.282  10.239 -0.0572 -0.4161  0.5903
  111OSM     OF11531   2.848   3.305  10.317  0.1396  0.0046 -0.2283
  111OSM    C2F11532   2.928   3.187  10.123 -0.0335 -0.4552  0.1304
  111OSM    H2F11533   2.958   3.088  10.164  2.1985 -0.3699 -1.1567
  111OSM    H2G11534   3.000   3.213  10.043  0.9735 -2.0481  0.4596
  111OSM    C3F11535   2.781   3.164  10.079  0.3131 -0.0617  0.1425
  111OSM    H3F11536   2.722   3.259  10.079 -1.3574 -1.0503 -0.6029
  111OSM    H3G11537   2.728   3.102  10.155  0.0846 -0.2741 -0.1874
  111OSM    C4F11538   2.772   3.094   9.940  0.8323  0.8782 -0.1778
  111OSM    H4F11539   2.816   2.992   9.937  1.8894  1.3502 -1.6760
  111OSM    H4G11540   2.826   3.160   9.869  0.1423  1.6377 -0.0171
  111OSM    C5F11541   2.622   3.077   9.902  0.6232 -0.0643 -0.4753
  111OSM    H5F11542   2.569   3.175   9.907 -0.2943 -0.5848  0.5855
  111OSM    H5G11543   2.573   3.008   9.974 -0.3959 -1.0587 -2.0594
  111OSM    C6F11544   2.604   3.006   9.769  0.0145 -0.3749 -0.0733
  111OSM    H6F11545   2.648   2.905   9.780  2.4848  0.3964 -2.0009
  111OSM    H6G11546   2.660   3.058   9.688 -1.1916 -0.9805 -1.3302
  111OSM    C7F11547   2.459   3.019   9.730 -0.5644 -0.0662 -0.5222
  111OSM    H7F11548   2.424   3.123   9.718  0.4158  0.5682  1.5677
  111OSM    H7G11549   2.410   2.982   9.823 -1.8485  2.5427 -0.0723
  111OSM    C8F11550   2.416   2.929   9.612  0.8968  0.9399 -0.2117
  111OSM    H8F11551   2.305   2.939   9.609  0.2943 -3.5686 -0.6652
  111OSM    H8G11552   2.438   2.822   9.633  0.3291  1.3880  3.2209
  111OSM    C9F11553   2.479   2.980   9.488  0.2643  0.2365  0.4618
  111OSM    H9F11554   2.496   3.088   9.485  2.3478 -0.0473 -0.2344
  111OSM   C10F11555   2.515   2.907   9.376  0.4988  0.4720  0.6197
  111OSM   H10F11556   2.556   2.956   9.286 -0.3315 -0.4701 -0.2942
  111OSM   C11F11557   2.509   2.762   9.342 -0.8058 -0.1637  0.0456
  111OSM   H11F11558   2.452   2.704   9.417 -2.7902 -0.8935 -1.9097
  111OSM   H11G11559   2.611   2.718   9.349  0.4366  2.6425  0.7520
  111OSM   C12F11560   2.445   2.718   9.206  0.6562 -0.1004  0.4983
  111OSM   H12F11561   2.339   2.747   9.223  1.1128  1.1439  1.3180
  111OSM   H12G11562   2.452   2.607   9.196  0.3031 -0.1398  0.6768
  111OSM   C13F11563   2.508   2.791   9.072 -0.1654 -0.4560 -0.5481
  111OSM   H13F11564   2.493   2.900   9.084 -0.0121 -0.5555  0.6813
  111OSM   H13G11565   2.444   2.764   8.986 -0.7304 -1.1178  0.0571
  111OSM   C14F11566   2.660   2.760   9.052 -0.2258 -0.3465  0.1786
  111OSM   H14F11567   2.681   2.655   9.080 -0.3402 -0.2332  0.6970
  111OSM   H14G11568   2.717   2.815   9.130 -1.2777 -0.7992  1.2941
  111OSM   C15F11569   2.720   2.807   8.920 -0.3282 -0.2353  0.2827
  111OSM   H15F11570   2.831   2.802   8.925 -0.3048  0.5810  0.7287
  111OSM   H15G11571   2.689   2.912   8.909  0.8799  0.3179  1.7234
  111OSM   C16F11572   2.661   2.724   8.806  0.9451  0.3637  0.0058
  111OSM   H16F11573   2.550   2.718   8.813  1.0873 -0.1694  2.5991
  111OSM   H16G11574   2.712   2.626   8.804  2.6476  1.1520  1.7344
  111OSM   C17F11575   2.694   2.798   8.678  0.0208 -0.4654 -0.1832
  111OSM   H17F11576   2.804   2.795   8.666 -0.1715 -1.9456 -2.0868
  111OSM   H17G11577   2.655   2.902   8.688 -1.2284 -1.1424  3.3286
  111OSM   C18F11578   2.642   2.736   8.553  0.4096  0.2192 -0.1912
  111OSM   H18F11579   2.646   2.792   8.457 -1.6967 -1.5445 -1.4034
  111OSM   H18G11580   2.534   2.713   8.567  1.2605 -3.5477  1.5211
  111OSM   H18H11581   2.672   2.630   8.538 -1.5496 -0.6000  1.2449
  112OSM      N11582   2.693   1.102  11.111 -0.6879  0.3571 -0.2837
  112OSM    C1511583   2.715   0.964  11.073  0.3506  0.2664  0.6922
  112OSM   H15A11584   2.655   0.952  10.984  0.3700  1.7441  0.4581
  112OSM   H15B11585   2.677   0.897  11.149 -1.0490 -1.3912 -1.3427
  112OSM   H15C11586   2.815   0.939  11.040  0.1664 -1.0814  1.1015
  112OSM    C1411587   2.548   1.120  11.112  0.1803 -0.0841 -0.2792
  112OSM   H14A11588   2.527   1.211  11.165 -1.9647 -2.7832  4.0417
  112OSM   H14B11589   2.498   1.040  11.164 -1.5105  2.7507  2.7633
  112OSM   H14C11590   2.508   1.127  11.012 -0.5360 -0.0113  0.0069
  112OSM    C1311591   2.747   1.127  11.245 -0.4845  0.3718  0.3717
  112OSM   H13A11592   2.731   1.230  11.272  0.5104  1.0097 -1.3359
  112OSM   H13B11593   2.854   1.113  11.257 -0.3722  1.4432  0.6953
  112OSM   H13C11594   2.704   1.057  11.315  0.9186  0.3536  1.2497
  112OSM    C1211595   2.760   1.206  11.032 -0.1629  0.4877 -0.2534
  112OSM   H12A11596   2.864   1.176  11.041 -0.6641 -1.1003  0.5682
  112OSM   H12B11597   2.739   1.304  11.072 -1.0980  0.6178 -1.0209
  112OSM    C1111598   2.738   1.213  10.881  0.8653  0.2606 -0.0368
  112OSM   H11A11599   2.775   1.122  10.829 -0.6079 -0.9784  0.9983
  112OSM   H11B11600   2.795   1.298  10.837 -0.6594  0.6196 -1.3972
  112OSM      P11601   2.523   1.367  10.845  0.4635 -0.2050  0.1743
  112OSM    O1311602   2.374   1.346  10.840 -0.3845 -0.4053 -0.8115
  112OSM    O1411603   2.582   1.446  10.963  0.2870  0.0248  0.2021
  112OSM    O1111604   2.568   1.436  10.712  0.4599  0.6175 -0.7059
  112OSM    O1211605   2.598   1.229  10.840 -0.1839 -0.1806 -0.1670
  112OSM    C1S11606   2.568   1.351  10.593 -0.4342 -0.6234  0.1565
  112OSM    H1S11607   2.494   1.269  10.599 -2.8672  1.0141 -3.4742
  112OSM    H1T11608   2.667   1.303  10.579 -0.5922 -0.4783 -1.7708
  112OSM     NF11609   2.529   1.310  10.357 -1.0665  1.0200 -0.0669
  112OSM    HNF11610   2.609   1.276  10.309 -2.2403 -1.5019 -0.4241
  112OSM    C2S11611   2.550   1.418  10.451  0.6360 -0.2505 -0.1078
  112OSM    H2S11612   2.461   1.483  10.437  1.3086  0.5330 -0.8946
  112OSM    C3S11613   2.674   1.508  10.432  0.2178 -0.4243  0.2241
  112OSM    H3S11614   2.765   1.446  10.448  0.4047 -0.4848 -1.0166
  112OSM     O311615   2.686   1.609  10.537  0.0838  0.3197  0.1004
  112OSM    HO311616   2.639   1.573  10.613  0.2565 -0.1509 -0.0102
  112OSM    C4S11617   2.678   1.570  10.295  0.9307 -0.3032 -0.4696
  112OSM    H4S11618   2.745   1.519  10.223  1.1872 -0.8562  0.1494
  112OSM    C5S11619   2.597   1.673  10.241 -0.5189  0.3538  0.0331
  112OSM    H5S11620   2.516   1.714  10.303  0.8134 -1.7626  3.4567
  112OSM    C6S11621   2.609   1.713  10.096 -0.4263  0.0287  0.2300
  112OSM    H6S11622   2.616   1.823  10.083  4.3706 -0.2646 -1.6660
  112OSM    H6T11623   2.515   1.684  10.043 -0.1698 -1.9033  0.7586
  112OSM    C7S11624   2.718   1.647  10.008  0.2929 -0.1070  0.6508
  112OSM    H7S11625   2.699   1.538   9.999 -0.1597  0.1227 -1.8596
  112OSM    H7T11626   2.819   1.669  10.050  0.4220  0.0241  0.2775
  112OSM    C8S11627   2.715   1.711   9.868 -0.7151 -0.4989  0.1355
  112OSM    H8S11628   2.801   1.680   9.805 -0.6503 -0.3363  0.1446
  112OSM    H8T11629   2.726   1.821   9.876  1.0266 -0.5245 -1.3946
  112OSM    C9S11630   2.597   1.677   9.778  0.0263  0.1506  0.8149
  112OSM    H9S11631   2.506   1.715   9.828 -0.0317  0.4740  0.4678
  112OSM    H9T11632   2.590   1.568   9.756  1.4779  0.6064 -2.5173
  112OSM   C10S11633   2.612   1.742   9.641 -0.7935 -0.3291 -0.1260
  112OSM   H10S11634   2.687   1.686   9.582  1.8396 -0.4946  3.0536
  112OSM   H10T11635   2.658   1.843   9.652 -0.3879 -0.6547  1.4938
  112OSM   C11S11636   2.484   1.756   9.562 -0.3408  0.4569  0.3748
  112OSM   H11S11637   2.402   1.809   9.615 -0.3901  1.1638 -0.3960
  112OSM   H11T11638   2.448   1.656   9.529 -0.0075 -0.5243  2.8057
  112OSM   C12S11639   2.496   1.827   9.424 -0.4955  0.3519  0.5225
  112OSM   H12S11640   2.523   1.933   9.443  4.0798 -0.4128 -0.5259
  112OSM   H12T11641   2.398   1.828   9.372 -0.1339  0.7826 -0.1820
  112OSM   C13S11642   2.605   1.769   9.332  0.1186  0.3266  0.6251
  112OSM   H13S11643   2.586   1.660   9.323 -1.3141  0.5272  1.0360
  112OSM   H13T11644   2.710   1.772   9.370  0.9742 -1.0036 -1.4397
  112OSM   C14S11645   2.597   1.834   9.194 -0.3794 -0.7773 -0.1748
  112OSM   H14S11646   2.594   1.944   9.209  1.9253 -0.7815  0.6408
  112OSM   H14T11647   2.494   1.807   9.162 -0.7914 -0.9827  1.2940
  112OSM   C15S11648   2.705   1.784   9.098  0.2037 -0.7129 -0.0836
  112OSM   H15S11649   2.701   1.676   9.070  3.7684 -0.5270 -1.8506
  112OSM   H15T11650   2.804   1.803   9.145  0.3316  1.7388 -1.2276
  112OSM   C16S11651   2.701   1.865   8.966 -0.8656  0.3019 -0.3669
  112OSM   H16S11652   2.732   1.968   8.993  0.6090 -0.2251  0.0138
  112OSM   H16T11653   2.595   1.871   8.931 -0.4693  1.3460 -1.4795
  112OSM   C17S11654   2.776   1.807   8.841 -0.2903 -0.1432  0.7011
  112OSM   H17S11655   2.877   1.772   8.874 -1.4730 -3.8094  0.9346
  112OSM   H17T11656   2.796   1.888   8.768 -0.4962 -1.9393 -1.4310
  112OSM   C18S11657   2.708   1.688   8.772  0.1845  0.1450 -0.2895
  112OSM   H18S11658   2.597   1.696   8.779  0.0560 -1.2165 -0.5593
  112OSM   H18T11659   2.733   1.600   8.834 -0.7335 -0.3761 -0.6399
  112OSM   H18U11660   2.742   1.670   8.668 -1.2286 -1.4678 -0.5099
  112OSM    C1F11661   2.421   1.237  10.343 -0.3890 -0.1500  0.6095
  112OSM     OF11662   2.325   1.259  10.413 -0.2151  0.3982 -0.2044
  112OSM    C2F11663   2.411   1.132  10.238  0.3886  0.1263  0.1524
  112OSM    H2F11664   2.427   1.033  10.283  0.4859 -0.7742 -1.7433
  112OSM    H2G11665   2.490   1.157  10.164  1.4456 -0.2797  1.1219
  112OSM    C3F11666   2.270   1.128  10.168 -0.0536 -0.7283 -0.4670
  112OSM    H3F11667   2.265   1.226  10.115 -1.6523  1.1221  2.8275
  112OSM    H3G11668   2.182   1.125  10.236 -1.8375  0.8239 -2.5338
  112OSM    C4F11669   2.242   1.019  10.056  0.4861  1.4561  0.5028
  112OSM    H4F11670   2.231   0.912  10.083 -0.7447 -0.4679 -5.9608
  112OSM    H4G11671   2.320   1.029   9.978 -1.6596 -0.7054 -2.0910
  112OSM    C5F11672   2.111   1.042   9.976 -0.3799 -0.2319  0.0910
  112OSM    H5F11673   2.118   1.147   9.939 -1.9000 -0.0821  0.1320
  112OSM    H5G11674   2.028   1.036  10.050 -0.7441 -1.5315 -0.3953
  112OSM    C6F11675   2.086   0.948   9.859  0.4593 -0.3195 -0.2335
  112OSM    H6F11676   2.009   0.979   9.785 -0.0073 -0.9965 -0.0443
  112OSM    H6G11677   2.057   0.850   9.904 -1.8812 -0.5506 -2.0177
  112OSM    C7F11678   2.219   0.934   9.773  0.2803  0.2335 -0.5282
  112OSM    H7F11679   2.278   0.854   9.823 -0.8957 -0.2545  0.1070
  112OSM    H7G11680   2.277   1.028   9.779 -1.9428  1.6995 -1.0757
  112OSM    C8F11681   2.198   0.881   9.625  0.3081  0.0422  0.3109
  112OSM    H8F11682   2.168   0.969   9.565 -0.1773 -0.5230 -0.2979
  112OSM    H8G11683   2.124   0.798   9.612  0.7490 -0.1280 -1.3307
  112OSM    C9F11684   2.331   0.832   9.576  0.0379 -0.4781  1.8628
  112OSM    H9F11685   2.394   0.787   9.654 -1.8694 -1.5521  2.8553
  112OSM   C10F11686   2.381   0.863   9.449 -0.2984 -0.3615 -0.0782
  112OSM   H10F11687   2.477   0.817   9.422 -0.6016 -0.6470 -0.6748
  112OSM   C11F11688   2.297   0.933   9.338  0.2518 -1.0751 -0.8472
  112OSM   H11F11689   2.339   1.035   9.327 -0.3470 -0.6745  0.4492
  112OSM   H11G11690   2.189   0.947   9.358  0.3643 -1.5256  0.1623
  112OSM   C12F11691   2.305   0.880   9.194 -0.7890  0.6378 -0.3656
  112OSM   H12F11692   2.266   0.962   9.130  0.6550  0.9421 -0.8721
  112OSM   H12G11693   2.260   0.779   9.181  2.2425 -1.0797  1.3161
  112OSM   C13F11694   2.446   0.849   9.147  0.0067  0.3693  1.1089
  112OSM   H13F11695   2.508   0.785   9.213  0.3628  0.7274  1.1237
  112OSM   H13G11696   2.502   0.945   9.145  0.9187 -0.1465 -1.0676
  112OSM   C14F11697   2.444   0.792   9.000 -0.0901 -0.2481 -0.0169
  112OSM   H14F11698   2.383   0.867   8.945 -1.0673 -1.2568 -0.3363
  112OSM   H14G11699   2.378   0.703   8.997  0.4349 -0.6264 -0.3750
  112OSM   C15F11700   2.579   0.764   8.948  0.1842  0.5110  0.7565
  112OSM   H15F11701   2.643   0.701   9.013 -0.3723 -1.1797 -0.2678
  112OSM   H15G11702   2.629   0.862   8.932  2.1473 -1.0110 -5.0162
  112OSM   C16F11703   2.580   0.703   8.807 -0.7394  0.8532  0.4644
  112OSM   H16F11704   2.685   0.703   8.774  0.1547 -0.4457  3.0325
  112OSM   H16G11705   2.513   0.746   8.729  1.3485  1.3835 -1.1094
  112OSM   C17F11706   2.546   0.550   8.826  0.3869  0.1999 -0.6843
  112OSM   H17F11707   2.448   0.533   8.875  1.7725  0.1462  2.3027
  112OSM   H17G11708   2.627   0.504   8.887 -0.6024 -0.1673  0.4031
  112OSM   C18F11709   2.535   0.484   8.693 -0.2141  0.7076  0.5562
  112OSM   H18F11710   2.466   0.540   8.626  2.0851  2.4670 -0.4806
  112OSM   H18G11711   2.495   0.381   8.697 -1.2155  1.0678  0.2577
  112OSM   H18H11712   2.633   0.466   8.644 -0.2939  0.8205  0.3538
  113OSM      N11713   1.614   5.298  11.091  0.0694 -0.9016 -0.0119
  113OSM    C1511714   1.619   5.421  11.185 -0.2175  0.3919 -0.2998
  113OSM   H15A11715   1.625   5.514  11.130 -1.0146  0.0153 -1.0489
  113OSM   H15B11716   1.697   5.410  11.258 -0.7240  0.2761  0.2271
  113OSM   H15C11717   1.527   5.425  11.241 -0.4520 -1.2609 -0.5133
  113OSM    C1411718   1.754   5.254  11.051  0.0720 -0.9719  0.4472
  113OSM   H14A11719   1.804   5.335  11.001 -1.0448 -0.1115  0.6835
  113OSM   H14B11720   1.732   5.184  10.972 -0.4730  1.3121 -1.5349
  113OSM   H14C11721   1.802   5.217  11.140 -0.5845 -0.3718  1.0729
  113OSM    C1311722   1.543   5.191  11.171 -0.4794  0.4230 -0.2584
  113OSM   H13A11723   1.593   5.158  11.260 -2.2989  2.4074  1.6484
  113OSM   H13B11724   1.519   5.110  11.104 -0.9912  3.0749 -3.5481
  113OSM   H13C11725   1.446   5.221  11.210  0.1924 -0.9997  2.8186
  113OSM    C1211726   1.532   5.336  10.971 -0.0500 -0.3979  0.1774
  113OSM   H12A11727   1.449   5.399  10.999 -1.3096 -0.7572 -2.4213
  113OSM   H12B11728   1.480   5.250  10.934 -0.6486 -0.6986  1.6446
  113OSM    C1111729   1.604   5.415  10.862  0.8441 -0.9681 -0.4249
  113OSM   H11A11730   1.524   5.458  10.799 -0.8729  0.0724  2.3020
  113OSM   H11B11731   1.669   5.348  10.801 -0.9100 -0.9946 -2.3841
  113OSM      P11732   1.809   5.581  10.870 -0.6621  0.2713  0.1237
  113OSM    O1311733   1.830   5.723  10.886 -0.4375  0.4237  0.2816
  113OSM    O1411734   1.902   5.490  10.947 -0.3135 -0.5804 -0.2444
  113OSM    O1111735   1.817   5.539  10.711 -0.6285  0.5913 -0.3632
  113OSM    O1211736   1.670   5.530  10.917  0.5449 -0.3281  0.4868
  113OSM    C1S11737   1.774   5.630  10.603 -0.5918 -0.1432 -0.7862
  113OSM    H1S11738   1.839   5.720  10.606 -0.1661 -0.4447 -0.8333
  113OSM    H1T11739   1.671   5.671  10.611 -0.3329  0.8342 -2.1684
  113OSM     NF11740   1.765   5.679  10.354 -0.2377  0.4007 -0.1581
  113OSM    HNF11741   1.676   5.666  10.311 -0.0736 -2.5053  0.2097
  113OSM    C2S11742   1.789   5.577  10.460 -0.2208 -0.0569  0.7888
  113OSM    H2S11743   1.893   5.540  10.444  0.0277  1.0694 -0.3261
  113OSM    C3S11744   1.701   5.448  10.452 -0.0728  0.7296 -0.2115
  113OSM    H3S11745   1.593   5.474  10.463 -0.9661 -2.5194 -0.2801
  113OSM     O311746   1.736   5.340  10.543 -0.6079 -0.2134  0.0161
  113OSM    HO311747   1.773   5.384  10.620  0.4611 -0.8381 -0.1222
  113OSM    C4S11748   1.711   5.388  10.313 -0.9024 -0.1838 -0.0821
  113OSM    H4S11749   1.811   5.350  10.288 -0.9731  0.7153 -1.9419
  113OSM    C5S11750   1.608   5.357  10.232  0.9747 -0.4736 -0.4611
  113OSM    H5S11751   1.502   5.358  10.259  1.5757 -0.2451  2.1386
  113OSM    C6S11752   1.630   5.290  10.100  0.6154  0.4775 -0.2477
  113OSM    H6S11753   1.590   5.187  10.112 -0.5710  1.1510  2.1802
  113OSM    H6T11754   1.740   5.273  10.087  0.8296  1.7552 -0.2101
  113OSM    C7S11755   1.574   5.363   9.974 -0.4213 -0.3527  0.0967
  113OSM    H7S11756   1.633   5.457   9.977  1.3524 -1.4248  2.4321
  113OSM    H7T11757   1.463   5.371   9.982 -0.5627 -0.5916 -1.4520
  113OSM    C8S11758   1.619   5.287   9.857  0.6151  0.5439  1.3139
  113OSM    H8S11759   1.590   5.182   9.878  2.6251 -0.2181  0.5055
  113OSM    H8T11760   1.730   5.287   9.858  0.6424  0.8438 -0.0607
  113OSM    C9S11761   1.570   5.337   9.723 -0.2266  0.9976 -1.0334
  113OSM    H9S11762   1.594   5.445   9.724  1.5338  0.6768  1.4398
  113OSM    H9T11763   1.461   5.325   9.712 -0.3993  0.8113  0.5847
  113OSM   C10S11764   1.635   5.262   9.606 -0.4767 -0.3614  0.5029
  113OSM   H10S11765   1.608   5.154   9.618 -1.3963  0.0069  2.0805
  113OSM   H10T11766   1.744   5.256   9.622 -0.4846 -0.1087  0.6586
  113OSM   C11S11767   1.595   5.319   9.469 -0.1826 -0.3614 -0.2580
  113OSM   H11S11768   1.627   5.425   9.462  0.5377 -0.6115 -0.9016
  113OSM   H11T11769   1.487   5.316   9.442 -0.2657  1.7985 -0.3900
  113OSM   C12S11770   1.675   5.253   9.350 -0.2713  0.3803 -0.4838
  113OSM   H12S11771   1.650   5.145   9.347  0.1080  0.3100 -1.2797
  113OSM   H12T11772   1.786   5.259   9.344 -0.1430 -2.0879 -1.9840
  113OSM   C13S11773   1.621   5.323   9.220 -0.1504  0.0093  0.6135
  113OSM   H13S11774   1.633   5.433   9.228 -0.5844  0.0190  1.2275
  113OSM   H13T11775   1.513   5.298   9.209  0.0648 -1.8260  2.0277
  113OSM   C14S11776   1.693   5.292   9.087  0.1952  0.9152  0.5102
  113OSM   H14S11777   1.693   5.181   9.075  0.1504  1.0993 -1.6469
  113OSM   H14T11778   1.795   5.335   9.097 -0.4212  2.7280 -0.5722
  113OSM   C15S11779   1.631   5.369   8.968  0.1590 -0.6339 -0.5160
  113OSM   H15S11780   1.654   5.477   8.976  0.8934 -0.7766 -0.5955
  113OSM   H15T11781   1.521   5.359   8.971  0.1692 -1.5902  3.9847
  113OSM   C16S11782   1.697   5.332   8.836  0.1852  0.0807  0.3162
  113OSM   H16S11783   1.674   5.224   8.821 -2.7911  0.6207  0.5206
  113OSM   H16T11784   1.806   5.350   8.850  0.2968 -0.4076  0.1049
  113OSM   C17S11785   1.644   5.418   8.726  0.5295  0.5550 -0.2330
  113OSM   H17S11786   1.666   5.523   8.753 -0.8076  1.8481 -3.7097
  113OSM   H17T11787   1.534   5.410   8.719  0.3933  1.7544  0.2843
  113OSM   C18S11788   1.692   5.402   8.581 -0.1265  0.4678 -0.2424
  113OSM   H18S11789   1.802   5.409   8.572  0.0352 -2.1042 -1.0710
  113OSM   H18T11790   1.646   5.478   8.514 -0.7301  1.3048  1.0677
  113OSM   H18U11791   1.652   5.305   8.544  0.5093  0.2734 -0.4289
  113OSM    C1F11792   1.841   5.786  10.329  0.7402 -0.0101 -0.5590
  113OSM     OF11793   1.936   5.811  10.399 -0.3629 -0.3148  0.0575
  113OSM    C2F11794   1.801   5.889  10.229  0.7746  0.3863  0.2430
  113OSM    H2F11795   1.846   5.986  10.256  1.2336  0.4211 -0.6080
  113OSM    H2G11796   1.690   5.889  10.221  0.7889 -1.6803 -0.6297
  113OSM    C3F11797   1.860   5.854  10.088  0.0588 -0.1383 -0.1065
  113OSM    H3F11798   1.821   5.752  10.066  1.0310 -0.2863 -1.2447
  113OSM    H3G11799   1.969   5.836  10.087 -0.4104 -4.0694  1.4211
  113OSM    C4F11800   1.823   5.944   9.981 -0.0900  0.1599 -0.1928
  113OSM    H4F11801   1.899   6.026   9.978 -1.9132  1.9742  0.5934
  113OSM    H4G11802   1.727   5.986  10.019  1.1489  0.5980  2.7478
  113OSM    C5F11803   1.802   5.885   9.840  0.7952  0.0131  0.4698
  113OSM    H5F11804   1.743   5.792   9.855  0.8985 -0.7288 -2.9660
  113OSM    H5G11805   1.896   5.858   9.787  0.6479 -1.5786  0.9570
  113OSM    C6F11806   1.736   5.996   9.749  0.0944  0.7993 -0.1548
  113OSM    H6F11807   1.786   6.094   9.765  3.3594 -0.8428  0.5465
  113OSM    H6G11808   1.629   6.003   9.777  0.3898  2.2024  0.6945
  113OSM    C7F11809   1.734   5.956   9.601 -0.0056  0.0009  0.0197
  113OSM    H7F11810   1.675   5.862   9.595  0.5220 -0.5675  2.6373
  113OSM    H7G11811   1.839   5.929   9.574 -0.2169  0.1753 -1.0382
  113OSM    C8F11812   1.678   6.069   9.514 -0.2124  0.4425  0.1984
  113OSM    H8F11813   1.750   6.154   9.521  0.5974 -0.2338  0.2012
  113OSM    H8G11814   1.579   6.110   9.543 -0.8155 -1.0525  0.3040
  113OSM    C9F11815   1.670   6.030   9.372 -0.2248 -0.4972  0.4308
  113OSM    H9F11816   1.567   6.015   9.336  0.0542 -1.3707 -0.0395
  113OSM   C10F11817   1.770   6.021   9.277 -0.0844  0.1894  0.2049
  113OSM   H10F11818   1.742   6.011   9.171 -1.9733  0.3013  0.6604
  113OSM   C11F11819   1.918   6.043   9.292  0.1835 -0.4849 -0.0602
  113OSM   H11F11820   1.965   5.960   9.237 -0.3439 -1.6630  1.2159
  113OSM   H11G11821   1.953   6.035   9.397  1.4235  0.0039 -0.4192
  113OSM   C12F11822   1.962   6.176   9.228  0.7496 -0.2935 -0.6354
  113OSM   H12F11823   1.913   6.269   9.264  1.7650  1.1946 -2.8664
  113OSM   H12G11824   1.937   6.167   9.120  1.0212 -1.8468 -0.6009
  113OSM   C13F11825   2.111   6.210   9.241  0.1744 -0.1394  0.4752
  113OSM   H13F11826   2.138   6.303   9.186 -1.4345  0.5240  0.7528
  113OSM   H13G11827   2.165   6.125   9.196 -0.3647 -0.0090 -0.4547
  113OSM   C14F11828   2.147   6.241   9.389 -0.7034 -0.4914  0.0607
  113OSM   H14F11829   2.258   6.235   9.390 -0.3734  3.0826  0.5413
  113OSM   H14G11830   2.106   6.159   9.452 -1.0151 -0.5220 -0.1821
  113OSM   C15F11831   2.102   6.367   9.462  0.1331 -0.0472  0.1242
  113OSM   H15F11832   1.999   6.394   9.430  1.0304  1.8843 -1.3493
  113OSM   H15G11833   2.165   6.448   9.418 -0.5705 -0.0999 -1.0361
  113OSM   C16F11834   2.117   6.355   9.605 -1.0033 -0.4897  0.3862
  113OSM   H16F11835   2.119   6.460   9.643  2.0737 -0.9238  1.7624
  113OSM   H16G11836   2.212   6.306   9.636 -1.2957 -0.0595  2.0198
  113OSM   C17F11837   2.005   6.277   9.678  0.0077  0.5322 -0.6045
  113OSM   H17F11838   1.995   6.181   9.622  1.0987  0.3635 -0.5371
  113OSM   H17G11839   1.908   6.331   9.667 -0.3606  0.4581  1.7818
  113OSM   C18F11840   2.038   6.273   9.825  0.4500 -0.2788  0.2498
  113OSM   H18F11841   2.114   6.194   9.842  0.6428  0.0170  0.7709
  113OSM   H18G11842   1.954   6.240   9.889  0.6386 -1.1899  0.0421
  113OSM   H18H11843   2.055   6.379   9.853  0.2595  0.1877 -1.2837
  114OSM      N11844   3.614   6.171  11.163  1.5630  0.1340  0.3508
  114OSM    C1511845   3.672   6.151  11.298 -0.3137  0.4707 -0.8577
  114OSM   H15A11846   3.637   6.227  11.366 -1.4959  0.0147 -0.9319
  114OSM   H15B11847   3.779   6.164  11.289  0.0148 -0.7744  0.9017
  114OSM   H15C11848   3.640   6.054  11.331 -3.1941  0.6028 -2.9037
  114OSM    C1411849   3.464   6.163  11.174  0.9164 -0.0189  0.5843
  114OSM   H14A11850   3.430   6.212  11.084  0.7558  1.3457  1.3495
  114OSM   H14B11851   3.423   6.205  11.265 -1.2041  0.8739 -0.6895
  114OSM   H14C11852   3.444   6.058  11.183  0.0501  0.0495 -0.3336
  114OSM    C1311853   3.649   6.308  11.129 -0.0340 -0.2985  0.0569
  114OSM   H13A11854   3.748   6.317  11.088  0.3734  1.6582  1.3123
  114OSM   H13B11855   3.655   6.375  11.213  0.3753 -1.0342  0.6309
  114OSM   H13C11856   3.582   6.351  11.056  1.5160 -0.2546 -1.4077
  114OSM    C1211857   3.660   6.068  11.066 -0.0334 -0.1191  0.0383
  114OSM   H12A11858   3.765   6.085  11.047 -0.0539  0.0661  0.0879
  114OSM   H12B11859   3.622   6.086  10.966  1.4635 -1.5427 -0.8289
  114OSM    C1111860   3.634   5.922  11.102 -0.0345 -0.1735 -0.6756
  114OSM   H11A11861   3.676   5.882  11.197 -1.6273  0.1810  0.1978
  114OSM   H11B11862   3.683   5.877  11.013 -1.9062 -2.3193 -0.6943
  114OSM      P11863   3.462   5.745  11.053 -0.0651  0.2013 -0.2771
  114OSM    O1311864   3.555   5.640  11.085 -0.2018 -0.2207  0.1167
  114OSM    O1411865   3.326   5.719  11.102  0.5587  0.0030 -0.3265
  114OSM    O1111866   3.451   5.760  10.897 -0.1142  0.0859  0.2191
  114OSM    O1211867   3.496   5.891  11.097 -0.7228 -0.1515  0.0119
  114OSM    C1S11868   3.349   5.853  10.842  0.1259 -0.3665 -0.4373
  114OSM    H1S11869   3.305   5.927  10.911 -1.2861 -0.1910 -1.4805
  114OSM    H1T11870   3.263   5.794  10.803 -0.5345  0.6311 -0.5386
  114OSM     NF11871   3.304   6.037  10.676 -0.2505 -0.1618  0.2554
  114OSM    HNF11872   3.239   6.003  10.608 -1.0572 -0.5718  1.2145
  114OSM    C2S11873   3.400   5.935  10.717 -0.1851 -0.2794 -0.3710
  114OSM    H2S11874   3.496   5.986  10.738  0.4013 -0.8323 -1.6304
  114OSM    C3S11875   3.428   5.838  10.603 -0.2422 -0.6988 -0.2775
  114OSM    H3S11876   3.329   5.807  10.562 -0.8213  0.7055 -0.0236
  114OSM     O311877   3.489   5.713  10.645  0.3519 -0.4754 -0.1607
  114OSM    HO311878   3.485   5.721  10.741 -0.4703  1.0310 -0.2791
  114OSM    C4S11879   3.506   5.917  10.500  0.1106 -0.3418 -0.1497
  114OSM    H4S11880   3.461   5.965  10.412  0.8957  0.8417  0.0708
  114OSM    C5S11881   3.640   5.933  10.504  0.1651 -0.1937 -0.3843
  114OSM    H5S11882   3.691   5.877  10.584  0.4761  1.4264  0.5929
  114OSM    C6S11883   3.738   6.010  10.415 -0.4113 -0.5497  0.3729
  114OSM    H6S11884   3.802   6.084  10.467 -0.6579 -0.5776  0.7182
  114OSM    H6T11885   3.679   6.056  10.333  0.6125 -1.1858 -0.7509
  114OSM    C7S11886   3.839   5.908  10.360 -0.0575 -0.2453  1.2105
  114OSM    H7S11887   3.784   5.820  10.322 -1.2252 -0.0152  2.2595
  114OSM    H7T11888   3.897   5.876  10.449  1.9787  0.9624  0.3879
  114OSM    C8S11889   3.933   5.960  10.250 -0.5852 -0.1518 -0.3179
  114OSM    H8S11890   4.027   5.901  10.242  0.9480  2.0884  0.0986
  114OSM    H8T11891   3.966   6.061  10.283 -1.6947  0.1008  0.0618
  114OSM    C9S11892   3.857   5.971  10.113  0.0559 -0.0256 -0.2911
  114OSM    H9S11893   3.926   6.016  10.039  0.4905 -0.6334 -0.2612
  114OSM    H9T11894   3.777   6.047  10.121  0.5504  0.4175  0.5582
  114OSM   C10S11895   3.802   5.842  10.057  0.0859  0.5319 -0.3651
  114OSM   H10S11896   3.704   5.820  10.105 -0.1956 -1.3803 -1.7029
  114OSM   H10T11897   3.866   5.762  10.101  0.7187  2.1737  1.8630
  114OSM   C11S11898   3.791   5.831   9.908 -0.0736  0.8246  0.0692
  114OSM   H11S11899   3.767   5.731   9.866  1.0562  0.1681  0.9249
  114OSM   H11T11900   3.890   5.849   9.861 -0.1906  0.4051 -0.3490
  114OSM   C12S11901   3.675   5.913   9.841  0.1495  0.5343 -0.4124
  114OSM   H12S11902   3.706   6.018   9.855  2.7173 -0.3075  0.9021
  114OSM   H12T11903   3.584   5.894   9.902 -0.1047  1.2087 -0.5826
  114OSM   C13S11904   3.658   5.898   9.685  0.4268  0.0901  0.4234
  114OSM   H13S11905   3.613   5.800   9.656  0.1500  0.7263 -1.3960
  114OSM   H13T11906   3.758   5.898   9.638 -0.7414 -2.6655 -2.4102
  114OSM   C14S11907   3.578   6.014   9.623  0.0161  0.6027 -0.6488
  114OSM   H14S11908   3.596   6.020   9.513 -2.1371  0.8076 -1.0416
  114OSM   H14T11909   3.629   6.101   9.669  1.9299 -0.6476 -0.2936
  114OSM   C15S11910   3.422   6.018   9.655  0.1178  0.9851  0.4253
  114OSM   H15S11911   3.415   6.032   9.765 -2.1709 -0.6099  0.5554
  114OSM   H15T11912   3.384   5.913   9.653 -0.0027  0.9816  1.8780
  114OSM   C16S11913   3.344   6.093   9.552 -0.7176 -0.4376  0.3336
  114OSM   H16S11914   3.380   6.197   9.566 -1.3891 -0.2750  0.9716
  114OSM   H16T11915   3.236   6.083   9.580 -0.9887  0.5584 -0.3197
  114OSM   C17S11916   3.356   6.038   9.407  0.8596 -0.1605  0.4105
  114OSM   H17S11917   3.367   5.928   9.415  2.2288 -0.1054 -0.3936
  114OSM   H17T11918   3.441   6.090   9.358 -0.7791  1.9548 -0.3181
  114OSM   C18S11919   3.233   6.073   9.326 -0.2172  0.3060 -0.1893
  114OSM   H18S11920   3.211   6.180   9.348  0.2221 -0.1864  3.2404
  114OSM   H18T11921   3.150   6.014   9.370  0.3673 -0.6235 -0.3100
  114OSM   H18U11922   3.245   6.045   9.219  0.0460 -1.8326  0.3635
  114OSM    C1F11923   3.276   6.148  10.739  0.5566  0.3073  0.3547
  114OSM     OF11924   3.336   6.189  10.840 -0.0789 -0.3759 -0.1599
  114OSM    C2F11925   3.160   6.228  10.686  0.4332 -0.6014  0.5539
  114OSM    H2F11926   3.084   6.231  10.766 -0.4655  1.0920 -0.2964
  114OSM    H2G11927   3.112   6.171  10.604  0.1169  1.2355 -0.5852
  114OSM    C3F11928   3.206   6.373  10.635  0.6841 -0.4467 -0.0981
  114OSM    H3F11929   3.291   6.352  10.567 -0.9873  0.1831 -2.4788
  114OSM    H3G11930   3.237   6.435  10.722 -0.7221  0.7597 -0.4207
  114OSM    C4F11931   3.106   6.458  10.557 -0.2682 -0.5118 -0.0369
  114OSM    H4F11932   3.009   6.468  10.611 -0.3549  0.1676 -0.3121
  114OSM    H4G11933   3.076   6.407  10.463 -2.4706  2.4946 -1.0973
  114OSM    C5F11934   3.158   6.592  10.512 -0.2603 -0.1090 -0.6808
  114OSM    H5F11935   3.220   6.642  10.589  0.2151  0.3424 -1.3402
  114OSM    H5G11936   3.079   6.667  10.488 -1.0062 -1.2002 -1.7848
  114OSM    C6F11937   3.248   6.582  10.388 -0.1149  0.9555 -0.0008
  114OSM    H6F11938   3.190   6.532  10.308 -0.8207 -0.8889  1.5855
  114OSM    H6G11939   3.327   6.507  10.411 -1.6903 -1.1484 -1.0462
  114OSM    C7F11940   3.311   6.718  10.351 -0.2387 -0.5087  0.4185
  114OSM    H7F11941   3.383   6.699  10.268  1.4012 -2.4745  2.1766
  114OSM    H7G11942   3.362   6.753  10.443  0.0066 -0.3239  0.2177
  114OSM    C8F11943   3.208   6.821  10.294 -0.9148  0.1429  0.2246
  114OSM    H8F11944   3.130   6.850  10.368 -2.0339 -0.5194 -0.6737
  114OSM    H8G11945   3.175   6.776  10.198  1.3116  2.0420 -1.5567
  114OSM    C9F11946   3.289   6.943  10.254  0.4937  0.5793 -0.4202
  114OSM    H9F11947   3.352   6.971  10.340 -1.4777 -1.7234  1.9778
  114OSM   C10F11948   3.296   7.002  10.134  0.0155 -0.3657 -0.7031
  114OSM   H10F11949   3.362   7.090  10.123 -1.2936  0.7493 -0.0227
  114OSM   C11F11950   3.242   6.954   9.998  0.0496 -0.1422  0.1272
  114OSM   H11F11951   3.181   6.861   9.999 -0.8670  0.4345 -0.4158
  114OSM   H11G11952   3.338   6.924   9.952 -0.0418  0.2922 -0.3536
  114OSM   C12F11953   3.185   7.060   9.903  0.0560  0.2038  0.4616
  114OSM   H12F11954   3.188   7.029   9.796  1.0892  0.0304  0.5298
  114OSM   H12G11955   3.245   7.153   9.898 -0.3279  0.4032 -0.7266
  114OSM   C13F11956   3.038   7.097   9.927  0.6423  0.5720 -0.3146
  114OSM   H13F11957   3.037   7.140  10.029 -1.2032  0.7298 -0.3617
  114OSM   H13G11958   2.975   7.006   9.933  1.2754  0.1841  0.6252
  114OSM   C14F11959   2.975   7.200   9.830 -0.2072 -0.2308 -0.2470
  114OSM   H14F11960   3.049   7.278   9.803  1.2240 -1.4842 -0.0619
  114OSM   H14G11961   2.877   7.233   9.872  0.4835  2.1951 -0.3429
  114OSM   C15F11962   2.948   7.116   9.703  0.5658 -0.0293 -0.0607
  114OSM   H15F11963   2.872   7.043   9.739  0.0354  0.6658  0.2558
  114OSM   H15G11964   3.029   7.054   9.659  0.6844  1.1733 -1.6173
  114OSM   C16F11965   2.896   7.196   9.591  0.5874  0.2895  0.3634
  114OSM   H16F11966   2.985   7.253   9.555 -0.8181  1.2326 -1.7813
  114OSM   H16G11967   2.817   7.260   9.636  0.8918 -0.0471  1.4286
  114OSM   C17F11968   2.847   7.118   9.468  0.3205  0.9305  0.6440
  114OSM   H17F11969   2.741   7.085   9.478  0.4678  0.2106 -0.1005
  114OSM   H17G11970   2.911   7.027   9.463  0.4736  1.0563  0.3101
  114OSM   C18F11971   2.852   7.199   9.342  0.5183 -0.6746 -0.0902
  114OSM   H18F11972   2.945   7.254   9.315 -1.2484  3.0791  0.7524
  114OSM   H18G11973   2.783   7.286   9.354 -0.8217 -1.7686  0.3255
  114OSM   H18H11974   2.823   7.136   9.255  2.3424 -0.4446 -0.9204
  115OSM      N11975   5.374   0.883  11.224 -0.5697 -0.0133  0.1200
  115OSM    C1511976   5.424   0.801  11.339 -0.5258  0.4812 -0.6006
  115OSM   H15A11977   5.345   0.731  11.366  0.3934  0.4321  2.3197
  115OSM   H15B11978   5.446   0.861  11.426  2.3402  1.7991 -2.0879
  115OSM   H15C11979   5.503   0.730  11.320 -0.7971 -0.4901  1.6026
  115OSM    C1411980   5.269   0.971  11.281 -0.0369  0.6522 -0.2352
  115OSM   H14A11981   5.325   1.019  11.360  0.4240 -0.2262 -0.0095
  115OSM   H14B11982   5.186   0.913  11.320  1.3292 -0.7183  0.7711
  115OSM   H14C11983   5.220   1.037  11.212 -1.0121 -0.7396 -0.9364
  115OSM    C1311984   5.490   0.961  11.176 -0.3001  1.1837 -0.2389
  115OSM   H13A11985   5.554   0.998  11.255  0.4276  0.4194 -0.4576
  115OSM   H13B11986   5.452   1.048  11.124  2.2149  3.8314  1.9938
  115OSM   H13C11987   5.557   0.907  11.111  0.2245  0.1167  1.1416
  115OSM    C1211988   5.298   0.803  11.116 -0.3208 -0.3017  0.0409
  115OSM   H12A11989   5.362   0.734  11.064  1.3695  1.2201  0.0021
  115OSM   H12B11990   5.270   0.874  11.040  0.1377 -0.3424 -0.1658
  115OSM    C1111991   5.173   0.720  11.152  0.0398  0.4480  0.2964
  115OSM   H11A11992   5.183   0.657  11.243  0.4321 -2.7885 -1.7882
  115OSM   H11B11993   5.166   0.657  11.060  2.3706  0.4716  0.0586
  115OSM      P11994   4.976   0.859  11.043 -0.3946 -0.4479 -0.3162
  115OSM    O1311995   4.868   0.766  11.006  0.3691 -0.3239 -0.3726
  115OSM    O1411996   4.938   1.001  11.074  0.1267  0.1718  0.0772
  115OSM    O1111997   5.082   0.866  10.924 -0.1587 -0.0202  0.5573
  115OSM    O1211998   5.055   0.801  11.166 -0.0906  0.2248  0.6878
  115OSM    C1S11999   5.092   0.776  10.813 -0.4541  0.0322  0.4547
  115OSM    H1S12000   5.025   0.688  10.823  0.1577 -0.5899 -0.6497
  115OSM    H1T12001   5.192   0.727  10.812 -0.7508 -0.5921 -0.2611
  115OSM     NF12002   5.026   0.743  10.576 -0.4617 -0.0721 -0.2542
  115OSM    HNF12003   5.104   0.711  10.522 -0.1285 -1.5264  1.0010
  115OSM    C2S12004   5.059   0.843  10.677  0.0026 -0.3842  0.3843
  115OSM    H2S12005   4.964   0.899  10.689 -0.8302 -1.6244 -0.2153
  115OSM    C3S12006   5.183   0.928  10.641 -0.0483 -1.1084 -0.3961
  115OSM    H3S12007   5.261   0.852  10.619 -0.8929 -2.2007  0.2459
  115OSM     O312008   5.228   1.026  10.732  0.1259 -0.1287 -0.5236
  115OSM    HO312009   5.196   0.997  10.818  0.7789 -0.6290 -0.4482
  115OSM    C4S12010   5.157   1.019  10.519  0.4728  0.5992  0.0459
  115OSM    H4S12011   5.057   1.065  10.515  0.1927  0.0735  0.8118
  115OSM    C5S12012   5.247   1.041  10.420  0.3692  0.7130  0.2836
  115OSM    H5S12013   5.346   0.994  10.430  0.3508  0.1157 -1.8740
  115OSM    C6S12014   5.245   1.123  10.291 -0.4918 -0.7593 -0.4942
  115OSM    H6S12015   5.337   1.185  10.291 -0.0372 -1.4176  0.4681
  115OSM    H6T12016   5.159   1.193  10.305  0.9009  0.5314  2.7906
  115OSM    C7S12017   5.218   1.066  10.148  0.0342 -0.5232 -0.4942
  115OSM    H7S12018   5.113   1.031  10.158 -0.2995  0.2179 -1.3604
  115OSM    H7T12019   5.284   0.977  10.140 -1.2048 -1.5796  0.6242
  115OSM    C8S12020   5.240   1.163  10.037  0.0471 -0.9952  0.1419
  115OSM    H8S12021   5.347   1.162  10.007  0.6178  0.5615  1.8992
  115OSM    H8T12022   5.217   1.267  10.068  1.1310 -0.9388  0.8171
  115OSM    C9S12023   5.140   1.147   9.924  0.6393 -0.6762  0.0192
  115OSM    H9S12024   5.041   1.168   9.970  0.5397  0.0610 -0.5191
  115OSM    H9T12025   5.141   1.046   9.880  0.2047 -0.5994 -0.1650
  115OSM   C10S12026   5.169   1.250   9.812  0.3473  0.1145 -0.3137
  115OSM   H10S12027   5.257   1.219   9.753 -0.0040 -2.0334  0.1971
  115OSM   H10T12028   5.199   1.346   9.859  2.1427 -1.6978  2.5704
  115OSM   C11S12029   5.046   1.269   9.723 -0.6659 -0.4329  0.4850
  115OSM   H11S12030   4.960   1.251   9.791 -0.5150  0.0559  0.8098
  115OSM   H11T12031   5.058   1.191   9.644  3.0346  0.5870 -0.1397
  115OSM   C12S12032   5.038   1.415   9.666 -0.2104  0.3236  0.6187
  115OSM   H12S12033   5.142   1.452   9.655 -0.4642  0.8685 -0.0570
  115OSM   H12T12034   4.992   1.487   9.738 -1.7332 -0.2089  0.2219
  115OSM   C13S12035   4.947   1.422   9.542 -0.1513 -0.2093  0.8741
  115OSM   H13S12036   4.844   1.410   9.584 -1.3737  2.4617 -1.0290
  115OSM   H13T12037   4.954   1.342   9.466  0.3778  0.5772  0.0747
  115OSM   C14S12038   4.955   1.556   9.463 -0.3674  0.5794  0.1269
  115OSM   H14S12039   5.063   1.575   9.449 -0.5073 -0.2993 -2.6970
  115OSM   H14T12040   4.916   1.637   9.529  3.2063  3.0099 -0.4360
  115OSM   C15S12041   4.888   1.556   9.329 -0.0578 -0.3822  0.4818
  115OSM   H15S12042   4.942   1.492   9.256 -2.1820 -1.5869 -0.1205
  115OSM   H15T12043   4.897   1.657   9.282  0.0080  1.3479  3.9381
  115OSM   C16S12044   4.743   1.514   9.327 -0.0590 -0.2823  0.1404
  115OSM   H16S12045   4.696   1.588   9.395  3.1345  1.4336  0.6725
  115OSM   H16T12046   4.728   1.415   9.376 -2.4039 -0.4580 -0.8040
  115OSM   C17S12047   4.678   1.509   9.189 -0.1795  0.3341  0.2549
  115OSM   H17S12048   4.577   1.470   9.216  0.0549  0.3325  1.1738
  115OSM   H17T12049   4.724   1.434   9.121  0.0870  0.1203  0.6660
  115OSM   C18S12050   4.660   1.643   9.116  0.3725 -0.1106 -0.4822
  115OSM   H18S12051   4.661   1.734   9.179  1.1226 -0.3513 -0.1404
  115OSM   H18T12052   4.564   1.643   9.060 -0.1348 -1.7488  0.3209
  115OSM   H18U12053   4.745   1.664   9.048  1.1185  0.6516  0.6618
  115OSM    C1F12054   4.907   0.685  10.560  0.1194 -0.1251  0.0498
  115OSM     OF12055   4.803   0.737  10.609 -0.6113  0.6150  0.3430
  115OSM    C2F12056   4.899   0.562  10.477  0.5503  0.1720  0.2342
  115OSM    H2F12057   4.906   0.468  10.536 -1.9468 -0.2845 -0.0726
  115OSM    H2G12058   4.984   0.571  10.406 -0.6828 -0.4694 -1.3893
  115OSM    C3F12059   4.770   0.560  10.388 -0.7089  0.0470 -0.1914
  115OSM    H3F12060   4.682   0.551  10.455  0.4426  3.4015  2.0327
  115OSM    H3G12061   4.786   0.468  10.327  1.3140 -0.6079  1.1975
  115OSM    C4F12062   4.743   0.683  10.310 -0.4517  0.4066 -0.1316
  115OSM    H4F12063   4.735   0.773  10.376 -0.3856  1.2007 -1.1781
  115OSM    H4G12064   4.650   0.681  10.251  0.5071  1.3883 -1.7566
  115OSM    C5F12065   4.842   0.711  10.200  0.8345  0.4037 -0.1065
  115OSM    H5F12066   4.873   0.620  10.144  1.5214 -0.3763  1.4971
  115OSM    H5G12067   4.929   0.749  10.257  0.4920 -0.8344  1.2835
  115OSM    C6F12068   4.788   0.814  10.104  0.1234 -0.4241  0.0008
  115OSM    H6F12069   4.829   0.916  10.125 -2.3269  0.5593  0.3278
  115OSM    H6G12070   4.678   0.827  10.113  0.3372  0.5846  1.7549
  115OSM    C7F12071   4.818   0.776   9.960 -0.0865  0.1859 -0.3943
  115OSM    H7F12072   4.793   0.669   9.941  0.2653 -0.1800  1.0807
  115OSM    H7G12073   4.927   0.790   9.942 -0.1754  0.8517 -0.4204
  115OSM    C8F12074   4.751   0.880   9.870  0.1275 -0.1148  0.5332
  115OSM    H8F12075   4.805   0.977   9.873 -1.0635  0.6173 -0.5911
  115OSM    H8G12076   4.650   0.901   9.910 -0.6657  2.9538 -2.6192
  115OSM    C9F12077   4.735   0.834   9.730  0.1660  0.5825  0.4507
  115OSM    H9F12078   4.703   0.730   9.719 -0.2687  0.7253  0.3455
  115OSM   C10F12079   4.756   0.902   9.617 -0.1480  0.0942  0.1697
  115OSM   H10F12080   4.749   0.855   9.518  0.6464  2.1029 -0.9056
  115OSM   C11F12081   4.797   1.047   9.598  0.7034 -0.4757 -0.3777
  115OSM   H11F12082   4.904   1.047   9.570  0.8280 -1.7220  0.0558
  115OSM   H11G12083   4.796   1.095   9.698  1.7363 -0.8079 -0.1963
  115OSM   C12F12084   4.694   1.126   9.506 -0.2864  0.3351 -0.0535
  115OSM   H12F12085   4.726   1.232   9.513 -0.3517  0.4585 -1.3879
  115OSM   H12G12086   4.600   1.097   9.558 -0.7746  2.7551  0.5284
  115OSM   C13F12087   4.702   1.079   9.357 -0.4927  0.0056 -0.2595
  115OSM   H13F12088   4.707   0.969   9.353 -0.2372  0.0510 -1.4886
  115OSM   H13G12089   4.802   1.112   9.322  0.5306 -2.5434  0.0466
  115OSM   C14F12090   4.586   1.127   9.271  0.2054 -0.9194  0.2401
  115OSM   H14F12091   4.557   1.232   9.292  2.4857  0.2871 -2.0172
  115OSM   H14G12092   4.499   1.060   9.290 -0.2804  0.1089  1.7844
  115OSM   C15F12093   4.611   1.120   9.117 -0.1388 -0.2112 -0.1484
  115OSM   H15F12094   4.652   1.019   9.095  0.0656 -1.0907  3.5844
  115OSM   H15G12095   4.703   1.177   9.093 -0.2909 -1.2190 -3.7136
  115OSM   C16F12096   4.493   1.159   9.028  0.5670 -0.3030  0.3327
  115OSM   H16F12097   4.459   1.257   9.067  1.5932 -0.0714  0.6784
  115OSM   H16G12098   4.407   1.089   9.037 -1.4470  1.9218 -0.4893
  115OSM   C17F12099   4.516   1.147   8.873  0.3961  0.0475  0.1451
  115OSM   H17F12100   4.508   1.042   8.837 -2.6326  0.6797 -1.3840
  115OSM   H17G12101   4.615   1.194   8.856  0.5208  0.1115  0.9876
  115OSM   C18F12102   4.417   1.227   8.795  0.1995 -0.2722 -0.0131
  115OSM   H18F12103   4.459   1.256   8.696 -1.7905 -1.3247 -1.2321
  115OSM   H18G12104   4.398   1.319   8.855  2.3861  0.3666 -0.1989
  115OSM   H18H12105   4.324   1.168   8.780  0.8546 -1.5801  0.8963
  116OSM      N12106   3.990   3.474  11.003  0.1118 -0.6503 -0.1445
  116OSM    C1512107   4.092   3.386  11.069 -0.2583  0.4105 -0.0937
  116OSM   H15A12108   4.064   3.376  11.174 -0.1141 -1.6176 -0.1963
  116OSM   H15B12109   4.188   3.431  11.054 -0.5052  0.6363 -1.0545
  116OSM   H15C12110   4.091   3.286  11.028 -1.6035 -0.0395  0.9399
  116OSM    C1412111   3.861   3.405  11.011 -0.3438 -0.4404  0.1580
  116OSM   H14A12112   3.854   3.312  10.956  0.1315  1.0242 -2.5773
  116OSM   H14B12113   3.783   3.471  10.974  0.2021  0.6914  0.9659
  116OSM   H14C12114   3.834   3.388  11.114 -3.5328 -0.0622 -0.4913
  116OSM    C1312115   3.977   3.597  11.087 -0.5272 -0.1324 -0.0888
  116OSM   H13A12116   3.969   3.561  11.188 -0.4343 -1.0947 -0.4041
  116OSM   H13B12117   3.903   3.661  11.041  2.6335  2.2087 -2.4148
  116OSM   H13C12118   4.070   3.651  11.079  0.0027 -0.6704  1.8368
  116OSM    C1212119   4.025   3.500  10.855 -0.4444 -0.4875 -0.3433
  116OSM   H12A12120   3.955   3.568  10.808  0.8173  0.5201 -0.8301
  116OSM   H12B12121   4.020   3.406  10.802 -0.4018 -1.0281  0.5791
  116OSM    C1112122   4.174   3.536  10.827 -0.2042  0.1926  0.2724
  116OSM   H11A12123   4.183   3.533  10.716  0.8573  2.3564  0.2724
  116OSM   H11B12124   4.244   3.458  10.864  0.7430  0.1223 -1.5709
  116OSM      P12125   4.149   3.795  10.802  0.0016  0.0367 -0.0280
  116OSM    O1312126   4.051   3.858  10.897  0.2297 -0.4247  0.3656
  116OSM    O1412127   4.263   3.880  10.757  0.1860  0.5553 -0.3729
  116OSM    O1112128   4.067   3.752  10.670  0.2472  0.8612 -0.7436
  116OSM    O1212129   4.205   3.668  10.876 -0.6990 -0.2360  0.0044
  116OSM    C1S12130   3.946   3.827  10.623 -0.8347  0.2496  0.0841
  116OSM    H1S12131   3.966   3.936  10.618  1.9570 -0.2312 -2.2991
  116OSM    H1T12132   3.858   3.812  10.689 -0.2045 -0.7339  0.7213
  116OSM     NF12133   3.793   3.876  10.436 -0.3095 -0.2542 -0.1732
  116OSM    HNF12134   3.697   3.850  10.449 -0.0145 -0.8236  1.0258
  116OSM    C2S12135   3.898   3.782  10.477 -0.1819  0.7212  0.6936
  116OSM    H2S12136   3.989   3.787  10.415 -1.5234 -1.3240 -1.6364
  116OSM    C3S12137   3.859   3.629  10.482  0.4943  0.3033  0.4676
  116OSM    H3S12138   3.760   3.604  10.527 -1.6702  0.5385 -3.6665
  116OSM     O312139   3.952   3.544  10.546 -0.1489  0.3726 -0.2018
  116OSM    HO312140   4.012   3.606  10.589  0.7062  1.4579 -2.7513
  116OSM    C4S12141   3.830   3.576  10.342  0.1316  0.7688 -0.7891
  116OSM    H4S12142   3.926   3.553  10.292 -0.3429 -0.4151 -1.2049
  116OSM    C5S12143   3.719   3.551  10.272 -0.3223 -0.3140 -0.0862
  116OSM    H5S12144   3.623   3.586  10.312  1.4188  4.2207  0.7879
  116OSM    C6S12145   3.726   3.492  10.128 -0.0337 -0.5015 -0.4496
  116OSM    H6S12146   3.639   3.431  10.097 -0.5499  0.8518 -1.8355
  116OSM    H6T12147   3.803   3.411  10.131  0.2890 -0.2449 -1.2537
  116OSM    C7S12148   3.757   3.601  10.024  0.8188  0.4263 -0.1161
  116OSM    H7S12149   3.864   3.623  10.044  0.8538  0.9224 -0.8062
  116OSM    H7T12150   3.701   3.696  10.034  1.6102  0.8317  0.5424
  116OSM    C8S12151   3.748   3.561   9.878  0.8899  0.3287  0.4984
  116OSM    H8S12152   3.646   3.526   9.849  0.3121  1.1139  1.5223
  116OSM    H8T12153   3.824   3.482   9.862 -1.1096 -1.6127 -0.0095
  116OSM    C9S12154   3.778   3.687   9.788 -0.2317 -0.0973 -0.3749
  116OSM    H9S12155   3.886   3.710   9.793 -0.0249 -0.5290 -2.1994
  116OSM    H9T12156   3.725   3.773   9.835 -0.7399 -0.8715  0.4996
  116OSM   C10S12157   3.737   3.665   9.646 -1.0100 -0.1695  1.2819
  116OSM   H10S12158   3.756   3.761   9.593  1.2601 -0.5378  1.3281
  116OSM   H10T12159   3.630   3.643   9.627 -0.5878 -2.8767  1.6957
  116OSM   C11S12160   3.811   3.555   9.567  0.0614  0.6628 -0.6991
  116OSM   H11S12161   3.802   3.457   9.618  3.3948  0.1351 -0.8856
  116OSM   H11T12162   3.917   3.587   9.555  0.3746 -0.1037 -0.1208
  116OSM   C12S12163   3.743   3.535   9.437 -0.1222  0.2823 -0.7700
  116OSM   H12S12164   3.745   3.629   9.378  0.1788  0.2825 -0.7606
  116OSM   H12T12165   3.637   3.510   9.461 -0.3493 -0.3062 -2.2986
  116OSM   C13S12166   3.812   3.431   9.346 -0.1933  0.2414  0.1717
  116OSM   H13S12167   3.747   3.404   9.260  2.1325 -2.0697 -1.0262
  116OSM   H13T12168   3.819   3.334   9.401  0.2359 -1.2086 -2.2697
  116OSM   C14S12169   3.947   3.479   9.295 -0.2276 -0.4537 -0.2305
  116OSM   H14S12170   4.018   3.483   9.380  1.7155 -0.9934 -1.7631
  116OSM   H14T12171   3.930   3.582   9.257 -0.8985 -0.2751  0.5249
  116OSM   C15S12172   4.006   3.397   9.174  0.6891 -0.1324  0.8689
  116OSM   H15S12173   4.018   3.289   9.198  1.1785 -0.2413  0.1519
  116OSM   H15T12174   4.104   3.443   9.153  1.3683 -0.4568  3.0518
  116OSM   C16S12175   3.912   3.417   9.046  0.2216 -0.1212  0.4917
  116OSM   H16S12176   3.874   3.521   9.042 -0.3166 -0.3278  0.2094
  116OSM   H16T12177   3.822   3.352   9.045 -0.7958  1.1239 -2.9144
  116OSM   C17S12178   3.988   3.389   8.912 -0.2408 -0.2055 -0.1047
  116OSM   H17S12179   4.018   3.282   8.909 -2.2125 -0.7706 -1.2732
  116OSM   H17T12180   4.084   3.445   8.916 -1.0924  1.2850  0.1832
  116OSM   C18S12181   3.928   3.422   8.782  0.4858  0.1140  1.1924
  116OSM   H18S12182   3.890   3.526   8.776  1.9247  0.5804 -0.5297
  116OSM   H18T12183   3.840   3.358   8.758  0.5594  0.0114  1.1967
  116OSM   H18U12184   3.995   3.435   8.695  0.3171 -0.3431  0.9887
  116OSM    C1F12185   3.817   4.001  10.397 -0.9510 -0.1381  0.4374
  116OSM     OF12186   3.930   4.043  10.365  0.0749  0.0599 -0.4060
  116OSM    C2F12187   3.703   4.098  10.387 -0.1843 -0.0751 -0.0110
  116OSM    H2F12188   3.740   4.179  10.453  0.1806  0.1906 -0.5312
  116OSM    H2G12189   3.604   4.055  10.413 -0.2519  0.3723  0.4722
  116OSM    C3F12190   3.691   4.143  10.245 -0.2268 -0.2632 -0.1999
  116OSM    H3F12191   3.786   4.191  10.213  0.5432 -1.6460 -0.0514
  116OSM    H3G12192   3.616   4.224  10.252 -1.0689 -0.8969 -1.5386
  116OSM    C4F12193   3.629   4.050  10.145  0.3295 -1.1001  0.3161
  116OSM    H4F12194   3.534   4.005  10.183 -2.2943  3.2906 -0.2973
  116OSM    H4G12195   3.695   3.962  10.131 -0.0720 -1.3298 -0.1783
  116OSM    C5F12196   3.594   4.119  10.017  0.2461  0.3377  0.1092
  116OSM    H5F12197   3.683   4.176   9.981  2.1932 -1.2369  2.1403
  116OSM    H5G12198   3.500   4.177  10.021 -0.3817 -0.5840 -0.8030
  116OSM    C6F12199   3.570   4.024   9.897 -0.0567  0.1190 -0.0192
  116OSM    H6F12200   3.479   3.962   9.908 -0.3418  0.6589  0.7720
  116OSM    H6G12201   3.661   3.960   9.905  0.5284  0.9867  0.4290
  116OSM    C7F12202   3.572   4.097   9.757  0.5885 -0.7133 -0.5272
  116OSM    H7F12203   3.659   4.166   9.762  0.3956 -0.5488  1.9953
  116OSM    H7G12204   3.478   4.155   9.749  3.3981  4.5952  0.6482
  116OSM    C8F12205   3.600   4.004   9.634  0.5347  0.3564 -0.2278
  116OSM    H8F12206   3.515   3.934   9.626 -1.4330  2.5473  0.3469
  116OSM    H8G12207   3.693   3.950   9.660 -0.2407 -1.0481 -0.2933
  116OSM    C9F12208   3.626   4.085   9.506 -0.2847 -0.1545 -0.4040
  116OSM    H9F12209   3.698   4.166   9.522 -1.2743  0.7075 -0.1469
  116OSM   C10F12210   3.573   4.079   9.384  1.2314 -0.9763 -0.3335
  116OSM   H10F12211   3.592   4.144   9.298  1.6233 -2.0774 -1.1113
  116OSM   C11F12212   3.483   3.970   9.330  0.1238  0.2706 -0.6293
  116OSM   H11F12213   3.377   3.990   9.354 -0.0707 -0.5736 -0.7740
  116OSM   H11G12214   3.505   3.876   9.384  0.1361  1.6689  1.9453
  116OSM   C12F12215   3.504   3.936   9.178 -0.2472  0.2476  0.1245
  116OSM   H12F12216   3.506   4.031   9.120 -1.8478  2.0352  2.7859
  116OSM   H12G12217   3.414   3.880   9.147 -0.4713  1.9067 -2.5336
  116OSM   C13F12218   3.631   3.841   9.164  0.2218  0.0770 -0.5964
  116OSM   H13F12219   3.620   3.745   9.218  3.4838  0.9417  1.9493
  116OSM   H13G12220   3.710   3.891   9.224  0.3651  0.9756 -1.4876
  116OSM   C14F12221   3.671   3.827   9.018 -0.9632  0.1299  0.2053
  116OSM   H14F12222   3.755   3.756   9.005 -2.8905 -2.2234 -0.0229
  116OSM   H14G12223   3.707   3.930   8.993 -2.9790  0.8640  0.1460
  116OSM   C15F12224   3.563   3.776   8.923 -0.2933 -0.1955 -0.3947
  116OSM   H15F12225   3.571   3.831   8.826  3.2626  1.2265  0.5631
  116OSM   H15G12226   3.458   3.795   8.954  0.2596  1.7174  0.5124
  116OSM   C16F12227   3.563   3.624   8.899 -0.4521 -0.3131  0.2520
  116OSM   H16F12228   3.667   3.595   8.869  0.2888  2.7920 -0.4754
  116OSM   H16G12229   3.499   3.613   8.809  0.2340  2.4119 -0.6541
  116OSM   C17F12230   3.528   3.537   9.017 -0.0703  0.1630  0.2035
  116OSM   H17F12231   3.427   3.568   9.052  0.2933 -0.1005  1.5024
  116OSM   H17G12232   3.595   3.569   9.099  1.0871 -0.8208 -0.3280
  116OSM   C18F12233   3.527   3.391   9.013  0.1636  0.1300 -0.2548
  116OSM   H18F12234   3.521   3.347   9.115  1.0144  2.9329  1.0989
  116OSM   H18G12235   3.610   3.347   8.955  0.2981  1.4581 -1.1182
  116OSM   H18H12236   3.436   3.364   8.955  0.3547  0.7280 -0.8513
  117OSM      N12237   5.710   3.662  10.938 -0.1789 -0.2165 -0.0459
  117OSM    C1512238   5.779   3.540  11.002  0.5304 -0.5814  0.5041
  117OSM   H15A12239   5.770   3.459  10.930 -0.7668  0.6311 -0.7711
  117OSM   H15B12240   5.713   3.499  11.077 -0.9269 -1.3919 -1.1480
  117OSM   H15C12241   5.879   3.568  11.030  0.4291  0.4305 -0.0955
  117OSM    C1412242   5.560   3.634  10.905 -0.3639 -0.0536 -0.0967
  117OSM   H14A12243   5.511   3.723  10.869 -0.3474  1.2154  2.7746
  117OSM   H14B12244   5.506   3.606  10.995 -1.4611 -0.9640 -1.0026
  117OSM   H14C12245   5.545   3.559  10.828  1.5687  0.6153 -1.1735
  117OSM    C1312246   5.710   3.773  11.041 -0.1219 -0.1023 -0.1829
  117OSM   H13A12247   5.639   3.852  11.024 -0.8235 -0.0826  2.4387
  117OSM   H13B12248   5.804   3.825  11.035 -1.5965  2.5950 -1.4572
  117OSM   H13C12249   5.694   3.728  11.138  0.5498  0.1986  0.0679
  117OSM    C1212250   5.785   3.708  10.810  0.5294 -0.0853  0.2812
  117OSM   H12A12251   5.726   3.791  10.771  0.1766 -0.1470  0.6742
  117OSM   H12B12252   5.766   3.636  10.732 -3.1339  2.0371 -1.0696
  117OSM    C1112253   5.940   3.723  10.805 -0.5994 -0.5787  0.1806
  117OSM   H11A12254   5.959   3.755  10.701  2.3344 -1.6711  0.2670
  117OSM   H11B12255   5.990   3.623  10.804 -0.5125 -0.5338  0.0387
  117OSM      P12256   6.010   3.961  10.902 -0.4003 -0.1429  0.4139
  117OSM    O1312257   5.893   4.028  10.970 -0.2468 -0.0277 -0.2996
  117OSM    O1412258   6.142   4.000  10.944 -0.0083 -0.0604  0.4872
  117OSM    O1112259   6.013   3.990  10.748 -0.2123  0.1752  0.3812
  117OSM    O1212260   5.998   3.804  10.912 -0.3514 -0.6394  0.1300
  117OSM    C1S12261   6.094   4.087  10.676  0.0523  0.2212  0.7569
  117OSM    H1S12262   6.179   4.134  10.729 -0.2566  1.4720  0.1845
  117OSM    H1T12263   6.032   4.167  10.628 -0.7874 -0.7428  0.1932
  117OSM     NF12264   6.264   4.090  10.473 -0.2707 -0.0660 -0.4191
  117OSM    HNF12265   6.234   4.146  10.397  1.5683  3.0696  0.9563
  117OSM    C2S12266   6.157   4.016  10.540 -0.1668 -0.2986 -0.1236
  117OSM    H2S12267   6.198   3.917  10.572 -1.8258 -0.8946  0.2769
  117OSM    C3S12268   6.043   3.968  10.447 -0.2713  0.3582 -0.4741
  117OSM    H3S12269   5.982   4.056  10.417 -2.0944 -0.4912  0.5889
  117OSM     O312270   5.952   3.895  10.515  0.1272 -0.4198  0.1448
  117OSM    HO312271   5.964   3.933  10.602  0.2809 -0.4934  0.1584
  117OSM    C4S12272   6.088   3.889  10.323 -0.0462  0.4101 -0.1924
  117OSM    H4S12273   6.095   3.952  10.233 -2.2269  2.1413  0.7541
  117OSM    C5S12274   6.098   3.756  10.309 -0.9397 -0.5764 -0.2667
  117OSM    H5S12275   6.087   3.690  10.397  0.9528  1.1410  1.3587
  117OSM    C6S12276   6.127   3.683  10.184  0.6154  0.1504  0.1340
  117OSM    H6S12277   6.046   3.611  10.160  1.8594 -1.7408  1.3835
  117OSM    H6T12278   6.215   3.618  10.197 -0.1229 -0.4211  2.7845
  117OSM    C7S12279   6.136   3.768  10.047 -0.6210  0.1388  0.6995
  117OSM    H7S12280   6.221   3.840  10.043 -0.1657 -0.4480 -0.5016
  117OSM    H7T12281   6.038   3.816  10.026  0.3794  1.0032 -2.6072
  117OSM    C8S12282   6.149   3.671   9.933  0.0918  0.2064 -0.7464
  117OSM    H8S12283   6.056   3.610   9.926 -1.1569  1.6077  2.0349
  117OSM    H8T12284   6.230   3.599   9.955  1.3581  1.8419  0.2018
  117OSM    C9S12285   6.166   3.736   9.793  0.4236 -0.0528  0.0008
  117OSM    H9S12286   6.249   3.809   9.805  1.3039 -1.1236  0.5520
  117OSM    H9T12287   6.066   3.769   9.757 -0.4534 -3.6717 -1.2903
  117OSM   C10S12288   6.210   3.637   9.678  0.1365 -0.2776 -0.6141
  117OSM   H10S12289   6.123   3.567   9.679 -0.0936  0.0019 -0.8536
  117OSM   H10T12290   6.309   3.591   9.701  0.3356  0.5040  0.1556
  117OSM   C11S12291   6.220   3.697   9.542  0.4563  0.2436  0.2762
  117OSM   H11S12292   6.301   3.772   9.549  1.2200 -0.5562  0.1044
  117OSM   H11T12293   6.131   3.757   9.509 -0.5935 -2.2049 -1.7031
  117OSM   C12S12294   6.241   3.590   9.436  0.1324  0.8689  0.3458
  117OSM   H12S12295   6.152   3.529   9.407  0.3207  1.0210 -0.5899
  117OSM   H12T12296   6.315   3.512   9.461 -0.1198  0.9490  1.3914
  117OSM   C13S12297   6.280   3.649   9.296 -0.2447  0.1516 -0.0352
  117OSM   H13S12298   6.350   3.733   9.315  0.7912 -0.5657 -0.5629
  117OSM   H13T12299   6.184   3.690   9.259 -1.3261 -2.0396  0.1614
  117OSM   C14S12300   6.315   3.537   9.198 -0.1756 -0.2736  0.0509
  117OSM   H14S12301   6.227   3.470   9.193  0.0766 -0.5363 -2.2396
  117OSM   H14T12302   6.402   3.480   9.237  0.8173  0.5773 -0.8093
  117OSM   C15S12303   6.355   3.606   9.065 -0.1814 -0.4791 -0.3044
  117OSM   H15S12304   6.428   3.688   9.081  1.6733 -1.6526 -2.1911
  117OSM   H15T12305   6.262   3.638   9.013  0.0347  1.1332  0.2497
  117OSM   C16S12306   6.420   3.504   8.972 -0.6711 -0.0258  0.0394
  117OSM   H16S12307   6.356   3.416   8.952 -0.9650 -0.2211  1.6633
  117OSM   H16T12308   6.509   3.462   9.023 -2.7843 -1.5522  2.7943
  117OSM   C17S12309   6.461   3.570   8.839 -0.4424  0.6213 -0.4601
  117OSM   H17S12310   6.565   3.534   8.821 -0.9340 -1.9425  1.1390
  117OSM   H17T12311   6.484   3.674   8.869  1.1824  0.0595  0.4044
  117OSM   C18S12312   6.379   3.553   8.716 -0.4338 -0.2769 -0.3305
  117OSM   H18S12313   6.271   3.576   8.723 -0.3313 -0.3107  1.8995
  117OSM   H18T12314   6.387   3.445   8.691  0.9200  0.2873 -2.7031
  117OSM   H18U12315   6.423   3.610   8.631 -0.5989  0.8225  0.3093
  117OSM    C1F12316   6.387   4.101  10.524  0.4067  1.4670  0.5523
  117OSM     OF12317   6.413   4.034  10.620  0.5574  0.2078 -0.3279
  117OSM    C2F12318   6.488   4.198  10.465  0.8915  0.3940  0.3653
  117OSM    H2F12319   6.569   4.213  10.539  0.4546 -1.5733  1.3158
  117OSM    H2G12320   6.443   4.297  10.443  1.8280  0.6289 -0.5608
  117OSM    C3F12321   6.554   4.136  10.343  0.0033  0.5572 -0.5667
  117OSM    H3F12322   6.477   4.119  10.264  0.2018  1.2197 -0.9081
  117OSM    H3G12323   6.591   4.036  10.376  1.6337  1.2372 -0.2467
  117OSM    C4F12324   6.661   4.226  10.278 -0.1890  0.2140 -0.1779
  117OSM    H4F12325   6.752   4.226  10.342  0.7793  2.0034 -1.4669
  117OSM    H4G12326   6.627   4.332  10.289  0.9878  0.5781  0.1249
  117OSM    C5F12327   6.715   4.186  10.143  0.3109  0.4679  1.3571
  117OSM    H5F12328   6.623   4.168  10.083  0.2862  1.6936  0.9936
  117OSM    H5G12329   6.776   4.094  10.148 -1.2811 -0.6067  1.8643
  117OSM    C6F12330   6.812   4.281  10.080  0.1804 -0.1743 -0.5038
  117OSM    H6F12331   6.913   4.296  10.126  0.0703 -1.7450  0.2994
  117OSM    H6G12332   6.756   4.375  10.061  0.3534  0.0850  0.2386
  117OSM    C7F12333   6.857   4.219   9.946  0.3770 -0.0174  0.2868
  117OSM    H7F12334   6.765   4.210   9.886  0.0164  1.9938  0.4934
  117OSM    H7G12335   6.899   4.118   9.969  0.8160 -0.1069 -0.8438
  117OSM    C8F12336   6.949   4.309   9.859 -0.3090 -0.2130 -1.1468
  117OSM    H8F12337   6.966   4.244   9.770 -1.8778  0.7893 -2.2259
  117OSM    H8G12338   7.047   4.313   9.913 -0.7361 -0.3830 -0.3412
  117OSM    C9F12339   6.909   4.447   9.828  0.2046  0.4245  0.4886
  117OSM    H9F12340   6.901   4.510   9.919  0.3269  0.3639  0.5420
  117OSM   C10F12341   6.867   4.488   9.709 -0.0458  0.4603  0.3848
  117OSM   H10F12342   6.823   4.589   9.707 -1.3633  0.0145  2.8337
  117OSM   C11F12343   6.854   4.409   9.578 -0.2209  0.2106 -0.2898
  117OSM   H11F12344   6.764   4.345   9.567  0.8849 -1.4605  0.0650
  117OSM   H11G12345   6.934   4.332   9.576 -1.6199 -1.2812 -0.8760
  117OSM   C12F12346   6.875   4.499   9.458 -0.7187  0.1219 -0.5404
  117OSM   H12F12347   6.964   4.564   9.472  0.6520 -1.8645  0.3489
  117OSM   H12G12348   6.781   4.559   9.453 -1.6113 -1.0082  1.5453
  117OSM   C13F12349   6.891   4.415   9.329 -0.4720  0.2117  0.1029
  117OSM   H13F12350   6.808   4.341   9.332 -0.6679  0.4220 -0.0960
  117OSM   H13G12351   6.989   4.370   9.351  0.5499  3.2649  2.5665
  117OSM   C14F12352   6.887   4.484   9.192 -0.2823  0.7208 -0.0044
  117OSM   H14F12353   6.965   4.562   9.182  1.5281 -1.1802 -1.8695
  117OSM   H14G12354   6.785   4.528   9.180 -1.7824 -2.6796 -1.2388
  117OSM   C15F12355   6.889   4.382   9.077  0.1450 -0.3729  0.6787
  117OSM   H15F12356   6.803   4.313   9.081 -0.6985  0.4534 -1.6932
  117OSM   H15G12357   6.985   4.326   9.086  0.0057 -0.7060  0.1264
  117OSM   C16F12358   6.903   4.447   8.932 -0.0385  0.2709 -0.1674
  117OSM   H16F12359   6.945   4.366   8.868  2.9804  1.3868  0.2116
  117OSM   H16G12360   6.986   4.520   8.944 -1.8539  2.1450  1.7763
  117OSM   C17F12361   6.782   4.520   8.883  0.5726  0.6548  0.2693
  117OSM   H17F12362   6.784   4.583   8.792 -2.5257 -0.6198 -0.8328
  117OSM   H17G12363   6.739   4.574   8.970  4.1233  1.2558  1.8439
  117OSM   C18F12364   6.669   4.430   8.840  0.2412  0.2445 -0.2795
  117OSM   H18F12365   6.580   4.495   8.832  1.1259  1.6186  0.6084
  117OSM   H18G12366   6.659   4.349   8.915 -1.6493  0.3555 -0.3663
  117OSM   H18H12367   6.694   4.377   8.746 -2.0436 -0.2144 -0.6756
  118OSM      N12368   5.652   4.298  10.867 -0.2858 -0.6178 -0.4121
  118OSM    C1512369   5.633   4.258  11.013  0.8744  0.2922  0.3437
  118OSM   H15A12370   5.691   4.317  11.082 -1.0398 -0.4830  2.7873
  118OSM   H15B12371   5.655   4.155  11.036 -0.6545  0.2743  2.0091
  118OSM   H15C12372   5.530   4.277  11.041  0.9810  0.3161  0.7204
  118OSM    C1412373   5.782   4.261  10.821  0.6208  0.1560 -0.0392
  118OSM   H14A12374   5.812   4.159  10.838 -1.0543  0.0928  3.5160
  118OSM   H14B12375   5.850   4.311  10.888 -1.8493  1.5192  1.6334
  118OSM   H14C12376   5.801   4.296  10.720 -1.3282 -0.2610 -0.6053
  118OSM    C1312377   5.555   4.215  10.790 -0.3939  0.7226 -1.3009
  118OSM   H13A12378   5.578   4.227  10.685 -0.9562  2.4206 -1.2650
  118OSM   H13B12379   5.451   4.237  10.806 -1.1413 -1.0250 -3.3485
  118OSM   H13C12380   5.564   4.109  10.811 -2.6528  0.8286  0.5871
  118OSM    C1212381   5.631   4.450  10.848  0.1528 -0.3585  0.2801
  118OSM   H12A12382   5.688   4.500  10.925 -0.9275 -0.6785  1.3310
  118OSM   H12B12383   5.529   4.478  10.870 -0.5802 -3.1094  0.7766
  118OSM    C1112384   5.670   4.517  10.709 -0.2094 -0.2131 -0.1530
  118OSM   H11A12385   5.630   4.621  10.704  1.4789  0.4366 -1.2474
  118OSM   H11B12386   5.618   4.451  10.636  0.2166 -1.0130  0.2526
  118OSM      P12387   5.904   4.614  10.761  0.5694 -0.1989  0.0305
  118OSM    O1312388   5.856   4.633  10.900  0.0948  0.3502 -0.4046
  118OSM    O1412389   6.042   4.566  10.743 -0.1473 -0.0913  0.7324
  118OSM    O1112390   5.885   4.752  10.684 -0.3364 -0.2337  0.2426
  118OSM    O1212391   5.810   4.517  10.681 -0.0696 -0.6039 -0.1647
  118OSM    C1S12392   5.917   4.756  10.543 -0.3555  0.4822 -0.1519
  118OSM    H1S12393   5.818   4.764  10.492 -1.4301  1.0288  1.8912
  118OSM    H1T12394   5.965   4.663  10.506  1.3673  0.8644  0.9933
  118OSM     NF12395   6.039   4.847  10.355  0.4535  0.2352  0.0575
  118OSM    HNF12396   6.133   4.823  10.334  0.6006  2.5044 -2.3623
  118OSM    C2S12397   6.004   4.871  10.500 -0.1449 -0.0161 -0.8858
  118OSM    H2S12398   5.961   4.971  10.522  2.5984  0.8032  1.1892
  118OSM    C3S12399   6.138   4.869  10.588  0.0955  0.3542  0.2890
  118OSM    H3S12400   6.183   4.769  10.574  0.0293  0.3076  0.4080
  118OSM     O312401   6.112   4.890  10.731  0.2536 -0.4761 -0.2650
  118OSM    HO312402   6.031   4.839  10.741  1.2614 -1.8121  2.0349
  118OSM    C4S12403   6.226   4.972  10.534 -0.5160 -0.5364 -0.5203
  118OSM    H4S12404   6.182   5.072  10.544 -1.1980 -1.0750  3.7431
  118OSM    C5S12405   6.350   4.956  10.478  0.0720  0.1981 -0.4685
  118OSM    H5S12406   6.402   4.860  10.479 -1.8940 -0.9243  0.1284
  118OSM    C6S12407   6.434   5.066  10.436  0.7265  0.2761  0.1668
  118OSM    H6S12408   6.528   5.041  10.490  1.5493  1.0687 -0.8569
  118OSM    H6T12409   6.406   5.170  10.464  0.4597  0.2396  0.0403
  118OSM    C7S12410   6.472   5.062  10.283 -0.8005  0.2876 -0.1380
  118OSM    H7S12411   6.506   4.960  10.256 -0.3858  0.9386 -2.3019
  118OSM    H7T12412   6.551   5.136  10.258 -1.7929  1.7993  0.9666
  118OSM    C8S12413   6.356   5.096  10.187 -0.9661  0.4761 -0.9312
  118OSM    H8S12414   6.337   5.202  10.214  0.0952  0.7856 -1.3248
  118OSM    H8T12415   6.263   5.037  10.201  0.1503 -1.2462 -0.3915
  118OSM    C9S12416   6.404   5.080  10.040 -0.6175  0.7640 -0.4104
  118OSM    H9S12417   6.430   4.975  10.016  1.9403  0.3944  3.1429
  118OSM    H9T12418   6.504   5.122  10.017  0.2359 -0.8422  0.1951
  118OSM   C10S12419   6.293   5.121   9.945 -0.0164  0.3341  0.7729
  118OSM   H10S12420   6.254   5.223   9.961  2.4022  1.7659 -1.6112
  118OSM   H10T12421   6.205   5.056   9.968 -0.3130 -0.1300 -1.4211
  118OSM   C11S12422   6.320   5.120   9.805  0.0461 -0.2234  0.5491
  118OSM   H11S12423   6.235   5.167   9.752 -0.0010  0.8854  1.5556
  118OSM   H11T12424   6.319   5.014   9.772  0.5262  0.2593 -1.0975
  118OSM   C12S12425   6.463   5.164   9.768 -0.4957 -0.1656 -0.5552
  118OSM   H12S12426   6.548   5.096   9.794  1.1185  1.9302 -0.0222
  118OSM   H12T12427   6.483   5.258   9.823 -1.6088 -0.3058  0.1222
  118OSM   C13S12428   6.468   5.194   9.616 -0.5928  0.2140  0.6225
  118OSM   H13S12429   6.570   5.218   9.581 -1.3310  0.1942 -1.6955
  118OSM   H13T12430   6.403   5.283   9.603 -1.9021 -0.6585  0.9763
  118OSM   C14S12431   6.419   5.085   9.518  0.3146  0.8374 -0.0569
  118OSM   H14S12432   6.309   5.078   9.534  0.7425  0.7693  3.8419
  118OSM   H14T12433   6.473   4.988   9.526 -1.0969  0.0282 -0.0544
  118OSM   C15S12434   6.435   5.139   9.377 -0.3568  0.3528 -0.0162
  118OSM   H15S12435   6.533   5.188   9.359  1.0394 -2.6165 -1.1388
  118OSM   H15T12436   6.357   5.216   9.358 -0.5094  0.0934 -0.4382
  118OSM   C16S12437   6.418   5.025   9.273 -0.2080 -0.1492  0.6851
  118OSM   H16S12438   6.329   4.965   9.302  0.1625 -1.9023 -1.4745
  118OSM   H16T12439   6.501   4.950   9.275  0.7104  0.8471  1.6290
  118OSM   C17S12440   6.385   5.084   9.138 -0.5641 -0.7514  0.3439
  118OSM   H17S12441   6.475   5.134   9.097 -0.4089 -1.4988 -0.2658
  118OSM   H17T12442   6.300   5.153   9.156  0.4088  0.5587  0.0954
  118OSM   C18S12443   6.341   4.967   9.046  0.1450 -0.3114 -0.1931
  118OSM   H18S12444   6.339   4.998   8.940 -1.2965  1.6476  0.3417
  118OSM   H18T12445   6.238   4.930   9.069  0.3884 -0.4423  0.7184
  118OSM   H18U12446   6.397   4.873   9.063  0.6340 -0.2015 -1.1416
  118OSM    C1F12447   5.956   4.850  10.255 -0.8384  0.1069  0.2855
  118OSM     OF12448   5.845   4.902  10.264  0.0870 -0.2587  0.2038
  118OSM    C2F12449   6.007   4.786  10.123 -0.3817 -0.3401  0.2169
  118OSM    H2F12450   5.993   4.676  10.121 -0.0598 -0.4254  1.5313
  118OSM    H2G12451   6.116   4.802  10.118 -0.5669  1.1243  0.3808
  118OSM    C3F12452   5.949   4.850   9.988  0.3500 -0.0125  0.3023
  118OSM    H3F12453   5.985   4.955   9.983 -0.3232  0.2345  0.4985
  118OSM    H3G12454   5.838   4.843   9.993  0.4091 -0.6932  1.0993
  118OSM    C4F12455   5.992   4.760   9.866 -0.0398  0.0678  0.6715
  118OSM    H4F12456   5.941   4.662   9.875  0.4519 -0.1126  1.6320
  118OSM    H4G12457   6.102   4.747   9.864 -0.1324 -1.0398  1.5538
  118OSM    C5F12458   5.964   4.835   9.737  0.4678 -0.3750 -0.1428
  118OSM    H5F12459   6.008   4.937   9.731  0.4341 -0.3798 -0.5252
  118OSM    H5G12460   5.856   4.861   9.736  0.9103  1.6535 -2.0881
  118OSM    C6F12461   6.000   4.768   9.605  0.1847 -0.3709  0.3988
  118OSM    H6F12462   5.962   4.664   9.615  2.0923 -1.0466  1.1283
  118OSM    H6G12463   6.110   4.767   9.588 -0.0341  0.7496 -1.3862
  118OSM    C7F12464   5.949   4.842   9.483 -0.0405  0.7460  0.2598
  118OSM    H7F12465   5.967   4.950   9.499  1.7292  0.5606 -0.2135
  118OSM    H7G12466   5.841   4.819   9.469 -0.1505  0.1809  1.8095
  118OSM    C8F12467   6.019   4.808   9.346 -0.6914 -0.0172  0.2539
  118OSM    H8F12468   6.123   4.845   9.353 -1.1079  1.0398  1.0893
  118OSM    H8G12469   5.971   4.860   9.260 -1.8986  1.9297  2.0176
  118OSM    C9F12470   6.029   4.667   9.302  0.0325  0.6380 -0.7882
  118OSM    H9F12471   6.101   4.604   9.356 -3.2905 -2.8929 -0.0235
  118OSM   C10F12472   5.954   4.607   9.209  0.2066 -0.7597  0.5220
  118OSM   H10F12473   5.983   4.510   9.165  2.7328  0.0596  0.2161
  118OSM   C11F12474   5.845   4.662   9.119 -0.8963  0.0918  0.7256
  118OSM   H11F12475   5.830   4.770   9.138  1.9182  0.8843 -0.8629
  118OSM   H11G12476   5.750   4.605   9.126 -0.2587 -0.8081  2.9879
  118OSM   C12F12477   5.877   4.655   8.967  0.5716  0.6288 -0.0043
  118OSM   H12F12478   5.785   4.662   8.906  0.6383 -2.2883 -0.5915
  118OSM   H12G12479   5.913   4.553   8.942 -0.4574 -0.0034  0.9493
  118OSM   C13F12480   5.963   4.762   8.909 -0.2135 -0.7628 -0.3131
  118OSM   H13F12481   6.070   4.751   8.938 -1.1346  1.1362  4.8947
  118OSM   H13G12482   5.932   4.860   8.952 -0.5820  0.3231 -2.8404
  118OSM   C14F12483   5.968   4.758   8.759 -0.0357 -0.3328  0.7399
  118OSM   H14F12484   5.864   4.758   8.718  0.0025  2.5554  0.4208
  118OSM   H14G12485   6.015   4.660   8.736 -2.0604 -1.0341 -0.7897
  118OSM   C15F12486   6.031   4.873   8.688 -0.3130  0.3930 -0.7729
  118OSM   H15F12487   5.981   4.874   8.589 -3.1192 -0.7651  0.4994
  118OSM   H15G12488   6.141   4.864   8.686 -0.4041 -1.2898  0.1260
  118OSM   C16F12489   5.998   5.019   8.740 -1.0758 -0.7870 -0.0373
  118OSM   H16F12490   6.061   5.042   8.829  0.1458 -0.9981 -0.8150
  118OSM   H16G12491   5.894   5.026   8.776 -0.3681  1.3177  1.8560
  118OSM   C17F12492   6.037   5.126   8.641 -0.2208  0.1558  0.5505
  118OSM   H17F12493   6.030   5.229   8.684 -0.1317  0.3832  0.0317
  118OSM   H17G12494   5.969   5.122   8.553  0.8280 -1.4103 -0.2325
  118OSM   C18F12495   6.178   5.110   8.581  0.9211 -0.1931  0.7596
  118OSM   H18F12496   6.201   5.015   8.527  1.4528  0.4003 -0.0862
  118OSM   H18G12497   6.248   5.115   8.668 -1.2111  2.3894  2.4719
  118OSM   H18H12498   6.199   5.195   8.513 -1.2389  0.4938  0.8722
  119OSM      N12499   0.279   3.615  10.865  0.4023  0.3820 -0.5944
  119OSM    C1512500   0.392   3.525  10.911 -0.1927  0.5771  0.6587
  119OSM   H15A12501   0.490   3.570  10.910  0.6850 -1.0453 -3.1349
  119OSM   H15B12502   0.404   3.445  10.840  1.1080 -0.5788  2.1126
  119OSM   H15C12503   0.357   3.474  11.000  0.0490 -1.5867 -0.4247
  119OSM    C1412504   0.212   3.679  10.980  0.0118  0.5346  0.9282
  119OSM   H14A12505   0.146   3.758  10.948 -1.1324 -0.7241  0.0438
  119OSM   H14B12506   0.284   3.727  11.045 -1.7173  1.9508  1.8855
  119OSM   H14C12507   0.143   3.618  11.037 -0.6947  0.2036 -0.2418
  119OSM    C1312508   0.344   3.718  10.780 -0.0903 -0.3347 -0.4560
  119OSM   H13A12509   0.273   3.785  10.733 -0.7879 -0.2913  0.6124
  119OSM   H13B12510   0.410   3.682  10.703 -0.3054  1.1274 -1.3797
  119OSM   H13C12511   0.406   3.778  10.845 -0.6757  2.0716 -1.9923
  119OSM    C1212512   0.178   3.534  10.787  0.4579 -0.3626 -0.2874
  119OSM   H12A12513   0.221   3.486  10.701 -0.7851 -0.9908 -0.5904
  119OSM   H12B12514   0.096   3.593  10.748 -0.6608 -1.7342 -0.1010
  119OSM    C1112515   0.100   3.434  10.865 -0.4993 -0.1024  0.2414
  119OSM   H11A12516   0.176   3.386  10.930 -1.0985  0.2132  1.1981
  119OSM   H11B12517   0.057   3.356  10.799 -0.3254  1.9184 -2.4030
  119OSM      P12518  -0.153   3.484  10.922 -0.1785 -0.5462 -0.2182
  119OSM    O1312519  -0.202   3.346  10.934 -0.1547  0.0368  0.1636
  119OSM    O1412520  -0.218   3.582  11.011 -0.1206  0.2683  0.0244
  119OSM    O1112521  -0.164   3.540  10.775  0.5665 -0.2286 -0.5502
  119OSM    O1212522   0.001   3.494  10.949 -0.0313  0.1650 -0.4208
  119OSM    C1S12523  -0.157   3.683  10.766 -0.1982  0.2527  0.3107
  119OSM    H1S12524  -0.079   3.720  10.836 -1.8991  1.0368  1.8838
  119OSM    H1T12525  -0.247   3.737  10.803 -1.1068 -0.2938 -1.0255
  119OSM     NF12526  -0.119   3.872  10.611  0.1385  0.7054 -0.0501
  119OSM    HNF12527  -0.202   3.926  10.595  0.5774  1.0027 -1.4667
  119OSM    C2S12528  -0.136   3.732  10.615  0.0229 -0.3344 -0.7026
  119OSM    H2S12529  -0.047   3.680  10.574  0.0527  0.9766 -2.4034
  119OSM    C3S12530  -0.255   3.679  10.529  0.0087 -0.5786 -0.1344
  119OSM    H3S12531  -0.348   3.723  10.570  0.6034 -0.1393  0.7701
  119OSM     O312532  -0.281   3.541  10.542  0.9168 -0.7179 -0.3414
  119OSM    HO312533  -0.232   3.514  10.620 -0.9317 -0.9626  0.7802
  119OSM    C4S12534  -0.240   3.716  10.388  0.9572 -0.2342  0.3606
  119OSM    H4S12535  -0.150   3.679  10.337  1.7799  2.3620 -0.2165
  119OSM    C5S12536  -0.331   3.782  10.313 -0.1102 -0.5196 -1.0173
  119OSM    H5S12537  -0.425   3.816  10.359  0.0579 -0.2230 -0.8895
  119OSM    C6S12538  -0.307   3.813  10.163  1.2343 -0.9863 -0.2199
  119OSM    H6S12539  -0.356   3.911  10.147 -0.9346 -2.0397 -0.2561
  119OSM    H6T12540  -0.363   3.732  10.112 -1.8162  0.1919  1.0691
  119OSM    C7S12541  -0.169   3.809  10.101  0.5613 -0.0372 -0.0221
  119OSM    H7S12542  -0.120   3.710  10.095  0.1458 -0.2657  0.2897
  119OSM    H7T12543  -0.089   3.874  10.141  1.2233 -0.9600  0.1802
  119OSM    C8S12544  -0.179   3.854   9.956  0.2551  0.2153 -0.1835
  119OSM    H8S12545  -0.210   3.960   9.949 -0.2985  0.0136 -0.9566
  119OSM    H8T12546  -0.257   3.791   9.908 -0.6978  1.3483 -0.1605
  119OSM    C9S12547  -0.050   3.848   9.879 -0.2710  0.6375  0.5921
  119OSM    H9S12548  -0.007   3.746   9.867 -1.4035  0.3179 -1.0919
  119OSM    H9T12549   0.020   3.912   9.937 -0.3661  0.5498  0.8052
  119OSM   C10S12550  -0.066   3.904   9.733 -0.1417 -0.2143 -0.0790
  119OSM   H10S12551  -0.118   4.002   9.740 -1.2505 -0.8926  1.4360
  119OSM   H10T12552  -0.128   3.829   9.680 -0.3901 -0.0589 -0.0051
  119OSM   C11S12553   0.065   3.936   9.655  0.9490 -0.2552  0.3012
  119OSM   H11S12554   0.146   3.860   9.658 -0.6321 -2.1743 -1.7101
  119OSM   H11T12555   0.097   4.031   9.701 -0.0199  0.4856 -0.5208
  119OSM   C12S12556   0.028   3.953   9.506  0.2929 -1.0619  0.1304
  119OSM   H12S12557  -0.062   4.020   9.504  0.5314 -0.7412 -1.7609
  119OSM   H12T12558  -0.004   3.856   9.463 -0.3598  0.0873 -2.1076
  119OSM   C13S12559   0.129   4.027   9.420  0.5979 -0.3981  0.2927
  119OSM   H13S12560   0.225   3.972   9.416  1.2468  0.7776 -1.2891
  119OSM   H13T12561   0.160   4.124   9.465  0.6004 -0.6710  0.8909
  119OSM   C14S12562   0.089   4.055   9.277 -0.0774  0.2538 -0.5075
  119OSM   H14S12563   0.171   4.104   9.220  1.6087  1.8264  3.0290
  119OSM   H14T12564  -0.001   4.120   9.273  0.5636  1.1491 -0.6390
  119OSM   C15S12565   0.044   3.928   9.204 -0.0492  0.0602 -0.3745
  119OSM   H15S12566  -0.040   3.887   9.263  0.8008 -0.9616  0.1658
  119OSM   H15T12567   0.129   3.856   9.204  0.5455  0.7146  1.1254
  119OSM   C16S12568  -0.001   3.953   9.060  0.4791 -0.9585 -0.2258
  119OSM   H16S12569  -0.088   4.023   9.070  1.2920  0.5457 -2.7416
  119OSM   H16T12570  -0.032   3.866   8.999  3.1950 -1.8833 -0.4226
  119OSM   C17S12571   0.108   4.016   8.966  0.1046  0.0074 -0.0522
  119OSM   H17S12572   0.180   3.936   8.942  0.4191  0.2817 -0.0294
  119OSM   H17T12573   0.150   4.105   9.017 -2.2219  1.0673  0.1656
  119OSM   C18S12574   0.055   4.052   8.828 -0.6428  0.2777  0.1251
  119OSM   H18S12575  -0.039   4.110   8.843  0.5013  2.0175  0.7765
  119OSM   H18T12576   0.033   3.965   8.762  1.4431 -0.0396 -0.2236
  119OSM   H18U12577   0.122   4.120   8.772 -0.3740  0.8475  1.1084
  119OSM    C1F12578  -0.002   3.925  10.648  0.0102  0.2249  0.3115
  119OSM     OF12579   0.089   3.859  10.700  0.1461  0.6268 -0.0699
  119OSM    C2F12580   0.014   4.071  10.617  0.2281 -0.0553 -0.2076
  119OSM    H2F12581  -0.022   4.129  10.704 -2.8160  0.9579 -1.9775
  119OSM    H2G12582  -0.048   4.098  10.529 -0.6217  0.2259  0.4683
  119OSM    C3F12583   0.160   4.119  10.596 -0.6047 -0.1325 -0.0133
  119OSM    H3F12584   0.215   4.095  10.690 -1.1250  2.0604  0.9029
  119OSM    H3G12585   0.159   4.228  10.573  1.0091  0.4097  2.1649
  119OSM    C4F12586   0.243   4.044  10.486  0.0513  0.1466  0.1476
  119OSM    H4F12587   0.280   3.946  10.521  0.0689 -0.4368 -1.4385
  119OSM    H4G12588   0.333   4.109  10.471  1.2252 -1.0929  1.4372
  119OSM    C5F12589   0.173   4.022  10.352  0.0468 -0.6964 -0.2820
  119OSM    H5F12590   0.138   4.120  10.313  0.5562 -1.3734 -2.5800
  119OSM    H5G12591   0.086   3.953  10.358 -2.3747  2.2678  1.8942
  119OSM    C6F12592   0.282   3.985  10.249  0.4520  0.0799 -0.1777
  119OSM    H6F12593   0.381   4.006  10.295  0.0091 -0.2198  0.9535
  119OSM    H6G12594   0.261   4.038  10.154 -0.1305  1.2515  0.5766
  119OSM    C7F12595   0.278   3.830  10.233 -0.3612  0.9713 -0.1449
  119OSM    H7F12596   0.170   3.816  10.211 -0.2222 -1.2663  0.3319
  119OSM    H7G12597   0.312   3.770  10.320  2.8618  2.3059 -0.3267
  119OSM    C8F12598   0.375   3.796  10.119 -0.1464  0.3843 -0.3238
  119OSM    H8F12599   0.421   3.695  10.127  1.1127  0.9428 -0.1466
  119OSM    H8G12600   0.459   3.865  10.142 -0.4944  1.1880 -1.4082
  119OSM    C9F12601   0.316   3.826   9.980  0.4295  0.2694  0.0331
  119OSM    H9F12602   0.216   3.870   9.982  1.3899  2.5976  0.5086
  119OSM   C10F12603   0.372   3.798   9.860  0.2991  0.5435 -0.3246
  119OSM   H10F12604   0.315   3.825   9.769  1.4611  0.9964 -0.9552
  119OSM   C11F12605   0.505   3.737   9.840 -0.0384  0.0088  0.3579
  119OSM   H11F12606   0.553   3.673   9.917 -1.7581 -0.5432  1.0330
  119OSM   H11G12607   0.583   3.816   9.838  1.0213 -0.9850 -3.0370
  119OSM   C12F12608   0.517   3.668   9.701 -0.4951 -0.0013 -0.3388
  119OSM   H12F12609   0.438   3.590   9.694 -0.7128  0.1949 -0.0781
  119OSM   H12G12610   0.618   3.622   9.691 -0.6618 -0.1905 -1.2569
  119OSM   C13F12611   0.507   3.765   9.575 -0.1742  0.7700 -0.5757
  119OSM   H13F12612   0.591   3.837   9.584 -1.3410  2.2264 -0.8188
  119OSM   H13G12613   0.417   3.831   9.576  0.9059  2.4020  2.6588
  119OSM   C14F12614   0.532   3.680   9.450  0.1977  0.1225  0.1893
  119OSM   H14F12615   0.451   3.604   9.438  0.4089  0.0505 -0.8275
  119OSM   H14G12616   0.626   3.621   9.448  0.6763  0.8813  0.3533
  119OSM   C15F12617   0.515   3.758   9.316  0.7639 -0.1906 -0.4659
  119OSM   H15F12618   0.583   3.845   9.314 -1.1461  1.3678 -0.7098
  119OSM   H15G12619   0.407   3.782   9.308  0.8143 -0.2999 -1.5164
  119OSM   C16F12620   0.554   3.676   9.194 -0.3884  0.1081 -0.5745
  119OSM   H16F12621   0.487   3.587   9.189 -0.5740  0.2736 -1.0101
  119OSM   H16G12622   0.661   3.649   9.185 -0.5811 -0.2219 -2.2087
  119OSM   C17F12623   0.543   3.761   9.067  0.6963  0.1987  0.1612
  119OSM   H17F12624   0.624   3.713   9.008  1.0392 -1.0351  1.5686
  119OSM   H17G12625   0.564   3.866   9.096 -0.7932  0.1082  1.7320
  119OSM   C18F12626   0.407   3.756   9.009  0.6766  0.6409 -0.0238
  119OSM   H18F12627   0.328   3.811   9.065  0.4323  2.0871 -1.6816
  119OSM   H18G12628   0.376   3.650   9.001 -3.4813  1.4676  1.9625
  119OSM   H18H12629   0.412   3.801   8.908  2.4497  0.2180 -0.1474
  120OSM      N12630   2.577   6.200  11.036 -0.2013  0.3828 -0.7919
  120OSM    C1512631   2.436   6.237  11.080 -0.5866 -0.5284 -0.2613
  120OSM   H15A12632   2.366   6.167  11.036 -2.5102  1.9667 -1.3812
  120OSM   H15B12633   2.407   6.329  11.033  1.1483  0.1035 -0.1771
  120OSM   H15C12634   2.430   6.242  11.188  1.0590 -1.4758 -0.0841
  120OSM    C1412635   2.663   6.315  11.078  0.3727  0.5232  0.2852
  120OSM   H14A12636   2.658   6.383  10.994  2.0701 -2.0744 -2.1057
  120OSM   H14B12637   2.767   6.287  11.070  0.1596 -0.1436 -0.2030
  120OSM   H14C12638   2.642   6.365  11.172 -0.4899  2.3184 -0.8005
  120OSM    C1312639   2.623   6.087  11.116 -0.9671 -0.1895  0.5735
  120OSM   H13A12640   2.658   6.125  11.211  2.6146  0.5271 -0.8796
  120OSM   H13B12641   2.709   6.041  11.070 -0.0987  0.1896  1.7500
  120OSM   H13C12642   2.543   6.016  11.115 -1.9417  0.8023 -2.2553
  120OSM    C1212643   2.577   6.177  10.876  0.4705 -0.1108 -0.1718
  120OSM   H12A12644   2.505   6.100  10.854 -2.0503  2.4617 -1.5412
  120OSM   H12B12645   2.681   6.153  10.854  1.2492  1.5234  1.4700
  120OSM    C1112646   2.537   6.295  10.780  0.7082  0.2999 -0.0664
  120OSM   H11A12647   2.430   6.321  10.796  1.4047  2.4679  1.4560
  120OSM   H11B12648   2.542   6.267  10.673 -1.8327 -3.6523  0.6042
  120OSM      P12649   2.752   6.446  10.762 -0.1624  0.1259 -0.0252
  120OSM    O1312650   2.805   6.575  10.816  0.0680 -0.4421 -0.2666
  120OSM    O1412651   2.837   6.330  10.788 -0.0904  1.1532 -0.1167
  120OSM    O1112652   2.738   6.461  10.603 -0.4971 -0.1496 -0.3905
  120OSM    O1212653   2.606   6.417  10.812  0.3974  0.9116  0.2373
  120OSM    C1S12654   2.644   6.550  10.546  0.1102  0.8748  0.6267
  120OSM    H1S12655   2.610   6.628  10.617 -2.1157  0.9076 -0.3940
  120OSM    H1T12656   2.557   6.483  10.534 -2.1230  3.1592  2.8927
  120OSM     NF12657   2.596   6.696  10.359 -0.1480 -0.0711  0.2718
  120OSM    HNF12658   2.532   6.654  10.296 -1.8090 -0.6604  2.2666
  120OSM    C2S12659   2.698   6.602  10.410 -0.3661 -0.0910 -0.7359
  120OSM    H2S12660   2.788   6.667  10.417 -0.0345 -0.6056 -0.1540
  120OSM    C3S12661   2.729   6.485  10.308  0.5707  0.8153  0.2000
  120OSM    H3S12662   2.637   6.432  10.275  1.5324 -0.9257  0.1734
  120OSM     O312663   2.815   6.387  10.362  0.6048 -0.5257 -0.1022
  120OSM    HO312664   2.797   6.397  10.455 -0.7492 -1.0766 -0.2822
  120OSM    C4S12665   2.790   6.534  10.177 -0.7710 -0.2954  0.1977
  120OSM    H4S12666   2.716   6.531  10.096 -0.5752 -0.2203  0.0152
  120OSM    C5S12667   2.915   6.578  10.152 -0.4682 -0.8069  0.3953
  120OSM    H5S12668   2.985   6.593  10.235 -1.2328  1.6250  0.6839
  120OSM    C6S12669   2.970   6.627  10.022  0.5512 -1.0655  0.2390
  120OSM    H6S12670   3.068   6.582   9.997  1.0762  0.6490 -1.0233
  120OSM    H6T12671   3.000   6.734  10.027 -0.1948 -0.9044  1.7550
  120OSM    C7S12672   2.865   6.617   9.908 -0.3576  1.2356 -0.3331
  120OSM    H7S12673   2.768   6.662   9.939 -1.7383 -0.1851 -2.3334
  120OSM    H7T12674   2.844   6.509   9.897 -5.0083  1.8094  0.6925
  120OSM    C8S12675   2.916   6.690   9.775  0.4306  0.3220  0.4220
  120OSM    H8S12676   3.009   6.644   9.735 -2.0701 -3.0906 -2.1298
  120OSM    H8T12677   2.936   6.796   9.798  0.8362  0.4491 -0.4346
  120OSM    C9S12678   2.807   6.671   9.659 -0.1727 -0.3749 -0.0569
  120OSM    H9S12679   2.713   6.704   9.708  0.6603  0.7794  0.8444
  120OSM    H9T12680   2.805   6.564   9.631 -1.0722 -1.0236  2.2394
  120OSM   C10S12681   2.827   6.755   9.536 -0.6484  0.3418 -0.3521
  120OSM   H10S12682   2.930   6.728   9.505 -0.1861  2.9276 -1.3293
  120OSM   H10T12683   2.838   6.861   9.568 -1.0798  0.6488 -1.1878
  120OSM   C11S12684   2.720   6.739   9.429  0.0883 -0.1854 -0.3892
  120OSM   H11S12685   2.627   6.789   9.466  0.9416  0.9449  0.2964
  120OSM   H11T12686   2.698   6.631   9.414 -2.7531  0.1004  0.9221
  120OSM   C12S12687   2.757   6.795   9.293 -0.2774 -0.0035  0.0238
  120OSM   H12S12688   2.853   6.752   9.257  0.2934 -0.7162  2.2458
  120OSM   H12T12689   2.769   6.905   9.305 -0.9349  0.0961 -0.1651
  120OSM   C13S12690   2.660   6.783   9.174  0.5700 -0.3872  0.1573
  120OSM   H13S12691   2.566   6.836   9.203  1.8401  1.0892  1.7919
  120OSM   H13T12692   2.643   6.676   9.151  2.9833 -0.4329 -1.9094
  120OSM   C14S12693   2.717   6.836   9.042  0.4854 -0.1380  1.3779
  120OSM   H14S12694   2.823   6.802   9.043  0.2417 -1.3115 -1.7776
  120OSM   H14T12695   2.715   6.947   9.046  0.1875 -0.1706  2.3661
  120OSM   C15S12696   2.642   6.780   8.917 -0.1212 -0.4980  0.2927
  120OSM   H15S12697   2.537   6.818   8.919 -0.3856 -1.1349  3.6356
  120OSM   H15T12698   2.641   6.670   8.933 -0.0978 -0.4827  0.3959
  120OSM   C16S12699   2.708   6.797   8.780  0.6512 -0.0295  0.5787
  120OSM   H16S12700   2.642   6.745   8.707  0.3033  0.2129  0.7156
  120OSM   H16T12701   2.813   6.762   8.775  0.8868  0.6311  0.8239
  120OSM   C17S12702   2.707   6.950   8.741 -0.1284 -0.1623  0.1821
  120OSM   H17S12703   2.737   7.025   8.817 -1.1719 -0.5536  0.9998
  120OSM   H17T12704   2.600   6.977   8.726  0.1847  0.7758 -0.4702
  120OSM   C18S12705   2.781   6.967   8.605 -0.6465 -0.1479  0.1238
  120OSM   H18S12706   2.786   6.866   8.560 -1.1863 -0.0012 -0.2713
  120OSM   H18T12707   2.881   7.015   8.619 -1.0667  0.1328  2.8024
  120OSM   H18U12708   2.726   7.032   8.535  0.4384  2.3559  1.4444
  120OSM    C1F12709   2.563   6.813  10.416 -0.8118  0.2644  0.4185
  120OSM     OF12710   2.616   6.863  10.512  0.3535  0.3121 -0.3764
  120OSM    C2F12711   2.434   6.860  10.357  0.1648  0.4414  0.6272
  120OSM    H2F12712   2.360   6.782  10.385 -1.6223  1.8494  0.0411
  120OSM    H2G12713   2.450   6.854  10.248 -0.5991 -0.6578  0.5661
  120OSM    C3F12714   2.390   6.996  10.389  0.0863 -0.0762 -0.5688
  120OSM    H3F12715   2.474   7.069  10.383 -1.1817  1.3296 -1.7571
  120OSM    H3G12716   2.341   6.989  10.488  0.3543 -1.1359 -0.4946
  120OSM    C4F12717   2.285   7.045  10.289 -0.4040  0.3697  0.0313
  120OSM    H4F12718   2.330   7.086  10.195  0.8693  0.3444  0.6056
  120OSM    H4G12719   2.220   7.125  10.330 -2.9775 -0.7215 -1.6741
  120OSM    C5F12720   2.181   6.938  10.244  0.3166  0.1876  0.5521
  120OSM    H5F12721   2.141   6.880  10.330 -0.7867 -1.8440 -1.2336
  120OSM    H5G12722   2.226   6.866  10.173  0.0140 -0.1009  0.6517
  120OSM    C6F12723   2.058   7.001  10.167 -0.3300  0.3342 -1.0693
  120OSM    H6F12724   2.101   7.044  10.073  0.0866  1.9409 -0.1838
  120OSM    H6G12725   2.032   7.091  10.226 -3.1099 -1.1721  0.1930
  120OSM    C7F12726   1.940   6.907  10.162  0.2786 -0.2432  0.7354
  120OSM    H7F12727   1.900   6.887  10.264 -1.8133  0.5685  0.1391
  120OSM    H7G12728   1.966   6.814  10.107 -2.3867 -1.4675  1.3742
  120OSM    C8F12729   1.830   6.970  10.066  0.7349 -0.0400  0.1832
  120OSM    H8F12730   1.863   6.996   9.963 -0.1341 -0.2815 -0.1642
  120OSM    H8G12731   1.811   7.069  10.114  0.8126 -0.3444  0.8397
  120OSM    C9F12732   1.699   6.889  10.063 -0.2521 -0.6393 -0.4665
  120OSM    H9F12733   1.694   6.836  10.159  0.9622  0.1997  0.0798
  120OSM   C10F12734   1.614   6.861   9.961 -0.1507 -0.6677 -0.2550
  120OSM   H10F12735   1.527   6.796   9.978 -0.9085  0.4365  0.2408
  120OSM   C11F12736   1.621   6.911   9.819 -0.5801 -0.6513 -0.3468
  120OSM   H11F12737   1.626   7.022   9.817  0.5940 -0.6832 -2.3368
  120OSM   H11G12738   1.528   6.885   9.765  0.6544 -0.8208 -2.5242
  120OSM   C12F12739   1.744   6.851   9.743 -0.3473  0.8406  0.0771
  120OSM   H12F12740   1.837   6.868   9.802  0.7505  0.9781 -1.6346
  120OSM   H12G12741   1.755   6.892   9.640 -2.9940 -1.6117 -1.3145
  120OSM   C13F12742   1.740   6.700   9.725  0.6201 -0.2263 -0.2962
  120OSM   H13F12743   1.727   6.653   9.825 -1.1352 -0.4425 -0.5893
  120OSM   H13G12744   1.841   6.669   9.692  1.4112  2.4076 -0.6116
  120OSM   C14F12745   1.630   6.655   9.635  0.5363  0.2301 -0.0032
  120OSM   H14F12746   1.601   6.734   9.562  1.7736  0.3932 -0.3424
  120OSM   H14G12747   1.544   6.640   9.704  1.2250  2.0110  1.3288
  120OSM   C15F12748   1.659   6.531   9.546 -0.6005 -0.2860 -0.7725
  120OSM   H15F12749   1.655   6.439   9.608  1.3527  1.2011  1.7503
  120OSM   H15G12750   1.765   6.552   9.520  0.1714  1.1969  2.9275
  120OSM   C16F12751   1.581   6.525   9.412 -0.8765 -0.1749 -0.6191
  120OSM   H16F12752   1.565   6.628   9.375  0.0204  0.0459 -0.4238
  120OSM   H16G12753   1.486   6.473   9.436 -0.6809 -0.5839 -0.7095
  120OSM   C17F12754   1.658   6.437   9.308 -0.4986  0.1159 -0.6646
  120OSM   H17F12755   1.676   6.342   9.363 -5.2338 -0.2690  0.7133
  120OSM   H17G12756   1.757   6.487   9.304  0.8247 -2.0921  1.7403
  120OSM   C18F12757   1.588   6.422   9.177 -0.0863 -0.7664 -0.1057
  120OSM   H18F12758   1.538   6.516   9.148  1.7999 -0.0470 -1.2237
  120OSM   H18G12759   1.505   6.349   9.182  0.7778 -1.8051 -0.4870
  120OSM   H18H12760   1.643   6.379   9.090 -1.3552 -1.5392 -0.5402
  121OSM      N12761   1.457   4.236  11.241 -0.3473 -0.6386  0.7996
  121OSM    C1512762   1.531   4.280  11.367 -0.0768 -0.1706 -0.2303
  121OSM   H15A12763   1.525   4.387  11.380 -1.7221 -0.2940  0.3481
  121OSM   H15B12764   1.634   4.250  11.356 -0.3456 -1.7842  1.2195
  121OSM   H15C12765   1.491   4.239  11.458  2.9781 -2.0725  0.3835
  121OSM    C1412766   1.521   4.305  11.120  0.1515  0.5455 -0.1925
  121OSM   H14A12767   1.627   4.289  11.135  0.8649  2.0514 -3.0009
  121OSM   H14B12768   1.492   4.409  11.119  1.5655  0.9772  0.3661
  121OSM   H14C12769   1.486   4.255  11.031  1.0254 -0.7081  0.1315
  121OSM    C1312770   1.472   4.092  11.224 -0.5103 -0.1103 -0.0906
  121OSM   H13A12771   1.569   4.058  11.258 -1.6037 -0.3312  3.1983
  121OSM   H13B12772   1.459   4.074  11.118 -1.0082  0.2054 -0.0904
  121OSM   H13C12773   1.396   4.044  11.284  0.6578  0.4444  1.9450
  121OSM    C1212774   1.314   4.273  11.252  0.1801 -1.1400  0.0000
  121OSM   H12A12775   1.292   4.378  11.243 -0.4289 -1.1989  0.6687
  121OSM   H12B12776   1.291   4.242  11.353  0.5873  0.7429  0.7059
  121OSM    C1112777   1.206   4.212  11.157 -0.1226 -0.3793  0.2628
  121OSM   H11A12778   1.221   4.102  11.152  0.9103 -0.3152  1.5093
  121OSM   H11B12779   1.225   4.257  11.057 -1.6199  1.1001  0.6063
  121OSM      P12780   0.993   4.369  11.137 -0.1794 -0.0859 -0.3681
  121OSM    O1312781   0.856   4.321  11.118  0.0213  0.2364  0.0008
  121OSM    O1412782   1.017   4.492  11.211  0.4029 -0.4542 -0.4268
  121OSM    O1112783   1.053   4.399  10.996  0.6808  0.5999 -0.6235
  121OSM    O1212784   1.084   4.255  11.202 -0.4095 -0.4658 -0.4541
  121OSM    C1S12785   1.011   4.341  10.869  0.0683 -0.3793 -0.6605
  121OSM    H1S12786   0.922   4.276  10.880 -0.7607  0.9348  0.8041
  121OSM    H1T12787   1.087   4.269  10.831  0.2894 -0.3348 -0.3115
  121OSM     NF12788   0.962   4.366  10.634  0.4382 -0.4949  0.3168
  121OSM    HNF12789   1.037   4.350  10.570  0.5059  0.4385  0.1522
  121OSM    C2S12790   0.990   4.444  10.756 -0.1772  0.2896  0.4855
  121OSM    H2S12791   0.903   4.508  10.783 -0.2413 -0.1062  1.2715
  121OSM    C3S12792   1.120   4.530  10.741  0.0729 -0.3735 -0.0806
  121OSM    H3S12793   1.214   4.472  10.737 -0.0807 -0.5325 -1.8074
  121OSM     O312794   1.136   4.626  10.850  0.0701  0.0957  0.7023
  121OSM    HO312795   1.046   4.630  10.884 -0.8351 -2.1315 -1.1993
  121OSM    C4S12796   1.107   4.602  10.613 -0.0335  0.1626  0.5072
  121OSM    H4S12797   1.138   4.547  10.522 -0.3440  0.6451  0.1021
  121OSM    C5S12798   1.059   4.725  10.590  0.9597 -0.1699  0.8330
  121OSM    H5S12799   1.039   4.789  10.678  1.0313  0.2593  0.5365
  121OSM    C6S12800   1.046   4.790  10.451  0.0439 -0.2206 -0.1477
  121OSM    H6S12801   1.124   4.869  10.442 -1.5822  1.4878  0.3171
  121OSM    H6T12802   0.952   4.848  10.451  0.8523  1.2685  2.8108
  121OSM    C7S12803   1.016   4.692  10.335 -0.1605  0.0726 -0.4526
  121OSM    H7S12804   0.946   4.614  10.372 -1.0670  1.6926  1.4461
  121OSM    H7T12805   1.108   4.653  10.287 -1.1235 -2.3163 -0.4929
  121OSM    C8S12806   0.955   4.763  10.213 -0.1317 -0.0781  0.0548
  121OSM    H8S12807   1.031   4.831  10.169  0.3900 -0.8426 -0.2303
  121OSM    H8T12808   0.862   4.817  10.245  1.0025  2.1536 -0.1903
  121OSM    C9S12809   0.915   4.669  10.097  0.1633  0.0169 -0.4920
  121OSM    H9S12810   0.838   4.599  10.135 -0.0044 -0.3281 -1.4394
  121OSM    H9T12811   0.999   4.600  10.072 -1.0872 -0.8796 -2.4418
  121OSM   C10S12812   0.853   4.731   9.975  0.4708 -0.3041  0.4343
  121OSM   H10S12813   0.788   4.810  10.017  0.3348 -0.7762  1.1237
  121OSM   H10T12814   0.793   4.649   9.931 -1.9324  1.7728 -0.4042
  121OSM   C11S12815   0.937   4.794   9.862  0.0473 -0.3384  0.1033
  121OSM   H11S12816   1.012   4.716   9.837 -0.4736 -1.0471  0.6939
  121OSM   H11T12817   0.993   4.884   9.894 -1.2147  0.9208 -1.0642
  121OSM   C12S12818   0.862   4.816   9.727  0.5983  0.0035 -0.3694
  121OSM   H12S12819   0.798   4.906   9.742 -0.9842 -1.1581  0.1998
  121OSM   H12T12820   0.799   4.730   9.694 -1.4970  1.4114 -0.2205
  121OSM   C13S12821   0.955   4.844   9.609 -0.2288 -0.3701 -0.6544
  121OSM   H13S12822   1.030   4.762   9.607  0.2002 -0.0146  0.3689
  121OSM   H13T12823   0.995   4.947   9.611 -0.6386 -0.2083 -0.7042
  121OSM   C14S12824   0.882   4.834   9.475 -0.4494  0.5032  0.6931
  121OSM   H14S12825   0.802   4.912   9.475 -0.4045  0.5518  0.1586
  121OSM   H14T12826   0.836   4.733   9.471 -2.6172  1.3831  1.6533
  121OSM   C15S12827   0.974   4.852   9.352 -0.7498  1.1338  0.5842
  121OSM   H15S12828   1.049   4.772   9.376 -1.7375 -0.1198 -0.3467
  121OSM   H15T12829   1.011   4.956   9.358  0.4094  0.6990  1.3416
  121OSM   C16S12830   0.903   4.836   9.215  0.1419  0.2241 -0.1456
  121OSM   H16S12831   0.902   4.932   9.159 -0.2420  0.2126 -0.1570
  121OSM   H16T12832   0.803   4.799   9.246  0.8259 -1.2395  0.4209
  121OSM   C17S12833   0.955   4.731   9.114 -0.2709 -0.6411  0.1127
  121OSM   H17S12834   0.876   4.716   9.038 -0.2661 -3.3962  0.5508
  121OSM   H17T12835   0.967   4.630   9.160  0.3925 -0.6222 -0.0086
  121OSM   C18S12836   1.083   4.768   9.044 -0.1972  0.4219  0.6853
  121OSM   H18S12837   1.103   4.698   8.960  1.0719  1.0559  0.4265
  121OSM   H18T12838   1.165   4.771   9.118 -1.5836  0.3109  2.2892
  121OSM   H18U12839   1.084   4.865   8.990 -2.2324  0.0653 -0.0971
  121OSM    C1F12840   0.850   4.297  10.621 -0.3418  0.2673  1.0440
  121OSM     OF12841   0.764   4.306  10.705  0.8676  0.1732 -0.6294
  121OSM    C2F12842   0.839   4.199  10.504  0.3020  0.0372  0.3315
  121OSM    H2F12843   0.846   4.097  10.548  1.3797  0.8745  2.2345
  121OSM    H2G12844   0.933   4.206  10.445  0.8590 -2.1441  0.8463
  121OSM    C3F12845   0.709   4.207  10.417  0.2391  0.0001 -0.3142
  121OSM    H3F12846   0.620   4.200  10.483 -0.0481  0.6842 -0.6199
  121OSM    H3G12847   0.709   4.124  10.344  2.9682  1.2879 -1.9568
  121OSM    C4F12848   0.697   4.342  10.341  0.4704 -0.2084 -0.0279
  121OSM    H4F12849   0.771   4.353  10.259  0.8802  0.3522  0.4111
  121OSM    H4G12850   0.718   4.421  10.417  1.4769 -1.1592  0.7277
  121OSM    C5F12851   0.553   4.364  10.291 -0.3640 -0.3418  0.0129
  121OSM    H5F12852   0.538   4.471  10.266 -1.6127 -1.3997 -4.6420
  121OSM    H5G12853   0.487   4.336  10.377  2.5553 -0.1595  2.4718
  121OSM    C6F12854   0.519   4.288  10.163  0.1685  0.1123  0.5154
  121OSM    H6F12855   0.424   4.330  10.123  1.2720  1.7455 -0.4874
  121OSM    H6G12856   0.520   4.178  10.178 -1.4733 -0.1280 -0.8156
  121OSM    C7F12857   0.626   4.316  10.051 -0.0774  0.4107 -0.3489
  121OSM    H7F12858   0.712   4.246  10.053 -0.5833 -0.2967 -1.6586
  121OSM    H7G12859   0.661   4.421  10.059  1.7678 -0.1817 -0.2312
  121OSM    C8F12860   0.572   4.290   9.913  0.3402  0.4742  0.7260
  121OSM    H8F12861   0.651   4.331   9.846  0.5768 -1.4306 -0.2330
  121OSM    H8G12862   0.479   4.347   9.892  0.5999  1.2175  1.5062
  121OSM    C9F12863   0.558   4.145   9.874  0.7603 -0.2769 -0.3349
  121OSM    H9F12864   0.564   4.071   9.955  2.2249  0.9238  0.6901
  121OSM   C10F12865   0.548   4.106   9.742 -0.0603 -0.0516  0.3042
  121OSM   H10F12866   0.555   4.003   9.704 -0.4827 -0.0103  0.1047
  121OSM   C11F12867   0.553   4.215   9.629 -0.2110 -0.0806 -0.3433
  121OSM   H11F12868   0.664   4.225   9.621 -0.2313 -1.1873 -3.0615
  121OSM   H11G12869   0.510   4.311   9.665 -0.2833 -0.7157  1.3466
  121OSM   C12F12870   0.491   4.186   9.489  0.6077 -0.0439 -0.1077
  121OSM   H12F12871   0.381   4.204   9.496  0.6543 -0.3471  1.9783
  121OSM   H12G12872   0.497   4.077   9.468 -2.8724 -0.8517  2.0896
  121OSM   C13F12873   0.556   4.260   9.376 -0.7600 -0.9037 -0.9456
  121OSM   H13F12874   0.654   4.208   9.363  0.1455  0.4405  0.1371
  121OSM   H13G12875   0.578   4.366   9.403 -0.3305 -0.6801 -2.1086
  121OSM   C14F12876   0.478   4.258   9.248  0.4801  0.6422  0.0449
  121OSM   H14F12877   0.396   4.333   9.245 -3.7193 -3.5030 -0.6245
  121OSM   H14G12878   0.427   4.159   9.248 -0.5621  1.1578  1.2647
  121OSM   C15F12879   0.557   4.290   9.119 -0.1448  0.0868  0.2567
  121OSM   H15F12880   0.631   4.208   9.113  0.5472  0.7655 -0.9255
  121OSM   H15G12881   0.616   4.384   9.125  1.0403 -0.3628 -2.8460
  121OSM   C16F12882   0.462   4.316   8.995  0.2649  0.2211 -0.2340
  121OSM   H16F12883   0.402   4.400   9.034 -0.5201 -1.2236  1.8323
  121OSM   H16G12884   0.392   4.230   8.991  1.7850 -1.3532  3.1598
  121OSM   C17F12885   0.533   4.343   8.867 -0.8183 -0.3019 -0.0856
  121OSM   H17F12886   0.607   4.426   8.872 -2.4451  1.2347 -0.5142
  121OSM   H17G12887   0.460   4.382   8.793 -0.3116  2.9997  0.9817
  121OSM   C18F12888   0.616   4.222   8.805  0.3616  0.3433  0.2666
  121OSM   H18F12889   0.711   4.247   8.753  0.6896  2.1398  1.6442
  121OSM   H18G12890   0.550   4.166   8.735  0.5568  0.0478  0.3150
  121OSM   H18H12891   0.652   4.147   8.878  0.3440  1.5668  1.5768
  122OSM      N12892   1.811   2.463  10.967 -0.1865 -0.1121  0.6879
  122OSM    C1512893   1.755   2.449  11.106  0.0340  0.0244  0.5762
  122OSM   H15A12894   1.811   2.503  11.181  1.4916  2.5697 -2.1271
  122OSM   H15B12895   1.744   2.345  11.135  2.0369 -0.0347  1.2963
  122OSM   H15C12896   1.661   2.501  11.102  1.2930  2.3443 -1.9061
  122OSM    C1412897   1.807   2.610  10.940  0.0097 -0.0729 -0.7659
  122OSM   H14A12898   1.711   2.658  10.950  0.1677 -0.1608  1.6716
  122OSM   H14B12899   1.845   2.625  10.840 -0.1529 -2.5487 -1.2690
  122OSM   H14C12900   1.872   2.664  11.007 -0.9437 -0.1072  0.2152
  122OSM    C1312901   1.951   2.411  10.973  0.8846 -0.0759 -0.1263
  122OSM   H13A12902   1.999   2.432  10.878  0.0772 -0.5401 -0.6531
  122OSM   H13B12903   1.956   2.305  10.993  0.4753 -0.1948 -0.6226
  122OSM   H13C12904   2.006   2.458  11.053  2.2560 -0.4617 -0.8067
  122OSM    C1212905   1.732   2.382  10.860  0.3968  0.0619 -0.5127
  122OSM   H12A12906   1.763   2.279  10.873  4.5090  1.3650  2.3569
  122OSM   H12B12907   1.769   2.406  10.762  1.3855  0.7390  0.0038
  122OSM    C1112908   1.575   2.391  10.846 -0.6674 -0.4398 -0.7226
  122OSM   H11A12909   1.527   2.359  10.941 -0.5585  1.8403  0.1500
  122OSM   H11B12910   1.538   2.332  10.760  2.5626 -1.2832 -1.7023
  122OSM      P12911   1.395   2.579  10.797  0.2606 -0.1985  0.5823
  122OSM    O1312912   1.285   2.533  10.879 -0.2216 -0.7459  0.1764
  122OSM    O1412913   1.400   2.727  10.794 -0.0256 -0.1014 -0.3797
  122OSM    O1112914   1.367   2.528  10.652 -0.5302 -0.3472  0.4950
  122OSM    O1212915   1.541   2.526  10.836 -0.4959  0.2749  0.7235
  122OSM    C1S12916   1.430   2.597  10.541 -0.0900  0.6522 -0.0652
  122OSM    H1S12917   1.532   2.634  10.564  0.2279  0.4023 -1.0073
  122OSM    H1T12918   1.367   2.684  10.512 -1.9253 -0.7864 -0.6035
  122OSM     NF12919   1.473   2.608  10.303 -0.2154 -0.3252 -0.3418
  122OSM    HNF12920   1.399   2.635  10.242  0.3380  5.0175  0.8962
  122OSM    C2S12921   1.429   2.510  10.407 -0.3976 -0.2950 -0.1460
  122OSM    H2S12922   1.511   2.436  10.417 -1.2827 -1.6219 -2.0780
  122OSM    C3S12923   1.296   2.446  10.377 -0.2953  0.1756 -0.7426
  122OSM    H3S12924   1.212   2.520  10.375 -0.7933 -0.3755 -0.5393
  122OSM     O312925   1.262   2.353  10.480 -0.0597  0.1475 -0.3912
  122OSM    HO312926   1.321   2.379  10.552 -0.6591 -1.6783  0.8390
  122OSM    C4S12927   1.303   2.368  10.249  0.2207  0.5446  0.3408
  122OSM    H4S12928   1.211   2.387  10.192  0.3051  2.1482  0.6826
  122OSM    C5S12929   1.395   2.277  10.201  0.2204 -0.5401 -0.1377
  122OSM    H5S12930   1.484   2.258  10.263  1.7596  3.2783 -0.8767
  122OSM    C6S12931   1.368   2.207  10.072 -0.3961 -0.1143 -0.2021
  122OSM    H6S12932   1.280   2.139  10.076 -1.6607  1.5361  1.9212
  122OSM    H6T12933   1.457   2.142  10.055  0.1806 -0.0612  2.2379
  122OSM    C7S12934   1.353   2.311   9.957 -0.0407  0.2575 -0.1512
  122OSM    H7S12935   1.450   2.361   9.936  0.3147  0.4439  1.7276
  122OSM    H7T12936   1.274   2.388   9.971 -1.4997 -1.1606 -0.2112
  122OSM    C8S12937   1.314   2.237   9.828  0.3020 -0.3524 -0.1164
  122OSM    H8S12938   1.233   2.166   9.854  1.2489 -1.1522  0.7217
  122OSM    H8T12939   1.408   2.184   9.799  1.0187  0.3010  0.9478
  122OSM    C9S12940   1.258   2.333   9.724 -0.3537 -0.2179  0.1001
  122OSM    H9S12941   1.346   2.396   9.703  0.4639 -0.5660  2.2394
  122OSM    H9T12942   1.169   2.391   9.757  0.2052  1.1088 -0.6452
  122OSM   C10S12943   1.222   2.262   9.597 -0.6310 -0.1952  0.3748
  122OSM   H10S12944   1.133   2.196   9.610 -1.6779  0.7890 -1.3142
  122OSM   H10T12945   1.305   2.191   9.577 -1.5052 -0.3805 -3.3900
  122OSM   C11S12946   1.209   2.361   9.480  0.9395  0.5950  0.4078
  122OSM   H11S12947   1.304   2.411   9.453  1.1599  0.0743  0.2206
  122OSM   H11T12948   1.140   2.440   9.519  0.3716 -0.0868  0.8002
  122OSM   C12S12949   1.159   2.294   9.340  0.7648 -0.1592  0.1837
  122OSM   H12S12950   1.075   2.222   9.346 -1.6756  2.3187 -1.3230
  122OSM   H12T12951   1.247   2.240   9.298  1.6797  0.9763  0.5986
  122OSM   C13S12952   1.117   2.384   9.226  0.3873 -0.8385 -0.3399
  122OSM   H13S12953   1.202   2.431   9.172 -1.8336  0.0624 -3.2704
  122OSM   H13T12954   1.056   2.459   9.279  0.2522 -1.3409  0.2334
  122OSM   C14S12955   1.032   2.320   9.115 -0.1754 -0.0600 -0.2679
  122OSM   H14S12956   0.934   2.368   9.095 -0.6572 -0.5531  0.8345
  122OSM   H14T12957   1.009   2.213   9.133  1.1255 -0.6605 -1.9190
  122OSM   C15S12958   1.092   2.325   8.980  0.4822 -0.5029 -0.4018
  122OSM   H15S12959   1.177   2.254   8.976  0.3507 -0.8028  1.3768
  122OSM   H15T12960   1.124   2.428   8.950 -1.4599  0.1795 -0.2747
  122OSM   C16S12961   0.997   2.280   8.863  1.2429 -0.7072  0.2179
  122OSM   H16S12962   0.927   2.365   8.854  0.9553 -1.1329 -2.0448
  122OSM   H16T12963   0.939   2.186   8.877 -1.3768  0.5021 -1.6774
  122OSM   C17S12964   1.064   2.238   8.737 -0.1514 -0.3058  0.3345
  122OSM   H17S12965   1.138   2.159   8.764 -0.0029 -0.2924 -0.0259
  122OSM   H17T12966   1.129   2.323   8.706 -0.1557  0.5304  2.5070
  122OSM   C18S12967   0.968   2.185   8.631  0.6499 -0.4612 -0.4310
  122OSM   H18S12968   0.886   2.259   8.619  0.6365  0.1248  2.4927
  122OSM   H18T12969   0.924   2.089   8.666  1.2026 -0.0299  1.5679
  122OSM   H18U12970   1.017   2.167   8.533 -0.3114  1.8109 -1.4084
  122OSM    C1F12971   1.601   2.650  10.286  0.2602 -0.2617  0.1453
  122OSM     OF12972   1.690   2.624  10.364 -0.1613  0.0531 -0.9070
  122OSM    C2F12973   1.622   2.738  10.162 -0.2207 -0.2061  0.0251
  122OSM    H2F12974   1.663   2.833  10.202 -3.4824  1.5758 -0.5024
  122OSM    H2G12975   1.529   2.756  10.104  0.6577  1.4877 -0.9304
  122OSM    C3F12976   1.722   2.676  10.067  0.2220 -0.2741 -0.0165
  122OSM    H3F12977   1.688   2.574  10.040  0.5537 -0.3548 -0.1400
  122OSM    H3G12978   1.821   2.655  10.114 -0.7559  1.1779  2.8842
  122OSM    C4F12979   1.749   2.744   9.925  0.0615  0.4844 -0.2597
  122OSM    H4F12980   1.850   2.716   9.888  0.3969  1.2569  0.0483
  122OSM    H4G12981   1.759   2.854   9.936  1.1519  0.5464 -1.6161
  122OSM    C5F12982   1.644   2.711   9.822  0.5395  0.5444 -0.1801
  122OSM    H5F12983   1.542   2.730   9.861 -0.3450 -0.8797 -1.6381
  122OSM    H5G12984   1.644   2.601   9.806 -2.2178  0.6297 -1.3011
  122OSM    C6F12985   1.671   2.779   9.689  0.0812 -0.3754  0.5367
  122OSM    H6F12986   1.771   2.753   9.650  0.4663  0.5798  0.8745
  122OSM    H6G12987   1.672   2.889   9.702  0.4257 -0.4787  1.4867
  122OSM    C7F12988   1.555   2.747   9.588  0.2398 -0.2537  0.5047
  122OSM    H7F12989   1.457   2.779   9.629 -1.1413 -0.8396 -2.1079
  122OSM    H7G12990   1.557   2.636   9.583  0.3405 -0.1881 -1.9636
  122OSM    C8F12991   1.578   2.800   9.449  0.2548 -0.1274 -0.6880
  122OSM    H8F12992   1.666   2.748   9.403  1.4113  1.3485 -0.2175
  122OSM    H8G12993   1.595   2.909   9.463 -0.5525 -0.0694 -0.1358
  122OSM    C9F12994   1.451   2.788   9.366 -0.2750  0.0422  0.0269
  122OSM    H9F12995   1.441   2.693   9.311  1.5506  0.6494 -1.4486
  122OSM   C10F12996   1.351   2.877   9.364 -0.0773 -0.0315 -0.0982
  122OSM   H10F12997   1.269   2.854   9.295 -0.0329 -1.6911  0.3527
  122OSM   C11F12998   1.342   3.010   9.443 -0.0103 -0.2982 -0.2421
  122OSM   H11F12999   1.423   3.029   9.516 -1.3549  0.6510  1.0417
  122OSM   H11G13000   1.251   2.995   9.504  1.2551 -0.0809  1.7611
  122OSM   C12F13001   1.315   3.137   9.357 -0.5389 -0.0211  0.2683
  122OSM   H12F13002   1.329   3.224   9.426  0.6787 -0.5061  0.6506
  122OSM   H12G13003   1.213   3.152   9.316 -0.2565 -0.3963 -0.5769
  122OSM   C13F13004   1.415   3.161   9.240 -0.2192  0.0492  0.2490
  122OSM   H13F13005   1.391   3.076   9.173  1.4557 -0.3015  0.0491
  122OSM   H13G13006   1.517   3.157   9.283 -0.8792  1.8985  2.1394
  122OSM   C14F13007   1.412   3.300   9.174 -1.0191 -0.2817  0.5420
  122OSM   H14F13008   1.441   3.380   9.246  1.1839 -0.7646  0.2627
  122OSM   H14G13009   1.309   3.322   9.139 -1.1893 -1.5888  0.1957
  122OSM   C15F13010   1.502   3.302   9.052  0.2195  0.1896 -0.3165
  122OSM   H15F13011   1.476   3.210   8.995  2.1219 -0.2559 -0.5232
  122OSM   H15G13012   1.608   3.279   9.077  0.3061  1.3296  0.4680
  122OSM   C16F13013   1.495   3.418   8.958  0.1470 -0.1857  0.7593
  122OSM   H16F13014   1.413   3.405   8.884  0.4667  2.1309 -0.0976
  122OSM   H16G13015   1.582   3.426   8.890 -0.2600  2.5945  0.4577
  122OSM   C17F13016   1.484   3.549   9.028  0.4107  0.9724  0.2737
  122OSM   H17F13017   1.562   3.554   9.107 -0.6763 -1.8469  1.6557
  122OSM   H17G13018   1.386   3.547   9.081  0.6217 -0.4648  0.6399
  122OSM   C18F13019   1.496   3.670   8.935 -0.2225 -1.2682  0.4599
  122OSM   H18F13020   1.602   3.685   8.905 -0.9333 -0.1794 -1.8198
  122OSM   H18G13021   1.467   3.759   8.995  1.8385  0.5917 -1.1261
  122OSM   H18H13022   1.436   3.663   8.841 -0.0763  2.1564 -0.0471
  123OSM      N13023   5.637   2.494   5.949  0.4489  0.5610  0.7670
  123OSM    C1513024   5.693   2.482   6.084 -0.4824 -0.1910  0.0658
  123OSM   H15A13025   5.613   2.498   6.155 -2.7245 -1.6180 -1.9560
  123OSM   H15B13026   5.771   2.554   6.104 -0.2123 -0.2057 -0.9101
  123OSM   H15C13027   5.728   2.381   6.094  0.5111  0.2044  0.7476
  123OSM    C1413028   5.557   2.615   5.918 -0.1347  0.3857  0.9699
  123OSM   H14A13029   5.482   2.629   5.994 -4.1958  1.5566 -2.8087
  123OSM   H14B13030   5.502   2.602   5.826  0.6225  2.6279  0.1196
  123OSM   H14C13031   5.617   2.704   5.905  2.0482 -1.0966  0.2707
  123OSM    C1313032   5.748   2.494   5.843  0.1199  0.4557 -0.4331
  123OSM   H13A13033   5.813   2.410   5.860 -0.4587  0.4763  2.4428
  123OSM   H13B13034   5.801   2.588   5.847 -1.1504  1.1531  1.2398
  123OSM   H13C13035   5.702   2.483   5.746 -2.2120  0.1315  0.6300
  123OSM    C1213036   5.564   2.373   5.913  0.8105 -0.0575  0.0264
  123OSM   H12A13037   5.627   2.286   5.923  2.1617  0.8418 -0.3332
  123OSM   H12B13038   5.545   2.384   5.807 -1.8773 -1.0034  0.3565
  123OSM    C1113039   5.428   2.348   5.991  0.0920 -1.0389  0.0350
  123OSM   H11A13040   5.390   2.250   5.956 -1.3644 -0.0674 -1.2550
  123OSM   H11B13041   5.366   2.432   5.952  2.4401  1.1026  0.6509
  123OSM      P13042   5.438   2.201   6.211 -0.2996 -0.1163  0.0512
  123OSM    O1313043   5.324   2.103   6.177  0.2350 -0.1491  0.1137
  123OSM    O1413044   5.572   2.143   6.194 -1.0428 -0.3391  0.0173
  123OSM    O1113045   5.425   2.238   6.362  0.0696 -0.4275 -0.7174
  123OSM    O1213046   5.429   2.346   6.139  0.2191  0.0467  1.3015
  123OSM    C1S13047   5.396   2.370   6.414 -0.3221 -0.2657  0.3730
  123OSM    H1S13048   5.297   2.402   6.375 -0.8867 -1.6397  0.6152
  123OSM    H1T13049   5.478   2.441   6.390 -1.3310  1.2801  1.3048
  123OSM     NF13050   5.322   2.489   6.624  0.0341 -0.3594  0.0867
  123OSM    HNF13051   5.381   2.567   6.642  1.8425 -1.5144 -0.5897
  123OSM    C2S13052   5.378   2.366   6.566 -0.4046  0.8059  1.1554
  123OSM    H2S13053   5.308   2.280   6.579 -0.5901  0.3410 -2.2325
  123OSM    C3S13054   5.508   2.322   6.641 -0.3368  0.2595  0.1273
  123OSM    H3S13055   5.583   2.403   6.642  1.0935 -0.8893  4.1042
  123OSM     O313056   5.577   2.218   6.576  0.0296  0.3017  0.5821
  123OSM    HO313057   5.522   2.212   6.498  0.1815 -0.5861  0.5316
  123OSM    C4S13058   5.477   2.287   6.785 -1.2034  0.4159  0.1335
  123OSM    H4S13059   5.532   2.361   6.845  1.0824 -0.9677 -0.1418
  123OSM    C5S13060   5.414   2.179   6.839  0.2803  0.4756  0.0579
  123OSM    H5S13061   5.393   2.092   6.774  0.9880  0.6442 -0.4040
  123OSM    C6S13062   5.394   2.137   6.981  0.0150  0.4317  0.2805
  123OSM    H6S13063   5.424   2.031   6.979 -0.3925  0.2989  0.9837
  123OSM    H6T13064   5.285   2.128   6.999  0.1904 -1.0055  0.7044
  123OSM    C7S13065   5.464   2.223   7.092  0.5702  0.1002  0.5250
  123OSM    H7S13066   5.418   2.324   7.092 -2.0650 -0.9925  0.0282
  123OSM    H7T13067   5.574   2.230   7.082  0.3688  0.2578 -2.7974
  123OSM    C8S13068   5.434   2.175   7.234 -0.2298 -0.0858 -0.9760
  123OSM    H8S13069   5.478   2.077   7.264 -2.8226 -0.3547  2.4524
  123OSM    H8T13070   5.324   2.163   7.230 -0.4733  0.9159  1.1463
  123OSM    C9S13071   5.454   2.282   7.344  0.1830 -0.0943  0.0732
  123OSM    H9S13072   5.386   2.366   7.319 -0.0974  0.1994  1.6831
  123OSM    H9T13073   5.562   2.306   7.336  0.3936 -1.0894 -0.1805
  123OSM   C10S13074   5.424   2.224   7.491 -0.8699  0.1131  0.4990
  123OSM   H10S13075   5.505   2.266   7.555  0.6322 -3.2704  1.0029
  123OSM   H10T13076   5.427   2.114   7.501 -0.2913  0.0348 -0.3783
  123OSM   C11S13077   5.288   2.271   7.540 -0.2691 -0.0315  0.0531
  123OSM   H11S13078   5.205   2.219   7.486  0.1720 -1.6649  0.8891
  123OSM   H11T13079   5.291   2.378   7.512 -0.2856  0.5520  2.1781
  123OSM   C12S13080   5.262   2.258   7.694  0.4426  0.5795 -0.4234
  123OSM   H12S13081   5.264   2.148   7.708 -0.5673  0.5965 -0.0455
  123OSM   H12T13082   5.163   2.306   7.711  0.1128 -0.5531  1.1327
  123OSM   C13S13083   5.372   2.324   7.783  0.6109  0.0068 -0.8238
  123OSM   H13S13084   5.396   2.429   7.756 -0.3663  0.1008 -1.3514
  123OSM   H13T13085   5.463   2.263   7.762 -0.9262 -2.1114 -1.6939
  123OSM   C14S13086   5.341   2.324   7.939  0.0689 -0.0120 -0.1042
  123OSM   H14S13087   5.247   2.380   7.958 -0.7541 -1.9300  1.9982
  123OSM   H14T13088   5.422   2.384   7.984  0.5473  0.3089 -1.3571
  123OSM   C15S13089   5.338   2.185   8.001  0.4176  0.2425 -0.0458
  123OSM   H15S13090   5.422   2.121   7.966 -1.8824 -2.1562 -1.5553
  123OSM   H15T13091   5.240   2.134   7.986  0.2119 -0.0855  2.1251
  123OSM   C16S13092   5.352   2.195   8.156 -0.4578 -0.4844  1.0310
  123OSM   H16S13093   5.432   2.266   8.185 -1.7017  0.6913  1.7052
  123OSM   H16T13094   5.360   2.094   8.201 -2.4230 -1.1140  0.0799
  123OSM   C17S13095   5.221   2.245   8.223 -0.6043 -1.4270  0.5463
  123OSM   H17S13096   5.129   2.192   8.192 -1.7987  0.4550  0.6883
  123OSM   H17T13097   5.212   2.350   8.188  1.7045 -1.2228  0.4046
  123OSM   C18S13098   5.230   2.255   8.375 -0.7337  0.6149  0.4800
  123OSM   H18S13099   5.235   2.153   8.419  1.9441  0.3180 -0.3140
  123OSM   H18T13100   5.151   2.320   8.417 -2.9209 -0.2776 -1.9966
  123OSM   H18U13101   5.329   2.294   8.407  0.1721 -1.9324  1.0474
  123OSM    C1F13102   5.194   2.515   6.586  0.1018  0.0001 -1.2678
  123OSM     OF13103   5.115   2.430   6.551 -0.1233 -0.0477  0.1930
  123OSM    C2F13104   5.158   2.658   6.578  0.1070  0.3282  0.4565
  123OSM    H2F13105   5.063   2.660   6.521  0.8108  0.5978 -0.7415
  123OSM    H2G13106   5.243   2.718   6.537  1.1248  0.4433  2.5613
  123OSM    C3F13107   5.137   2.745   6.709 -0.2708 -0.1695 -0.4528
  123OSM    H3F13108   5.047   2.691   6.747  0.6263 -1.2118  0.2565
  123OSM    H3G13109   5.100   2.845   6.679  1.5122  0.8004  0.4702
  123OSM    C4F13110   5.252   2.743   6.815  0.1998  0.2120 -0.1469
  123OSM    H4F13111   5.344   2.770   6.759  0.6194 -1.0761 -0.1176
  123OSM    H4G13112   5.274   2.643   6.858  0.8138  0.0620 -0.8008
  123OSM    C5F13113   5.235   2.843   6.935  0.2631  0.0001  0.4610
  123OSM    H5F13114   5.136   2.835   6.985  1.2695 -0.9500  2.4280
  123OSM    H5G13115   5.234   2.952   6.913 -0.9800  0.1889  1.3424
  123OSM    C6F13116   5.332   2.811   7.044 -0.4670 -0.0447  0.2663
  123OSM    H6F13117   5.438   2.817   7.011  0.3424  3.8063  2.8473
  123OSM    H6G13118   5.315   2.708   7.080 -1.6053  0.7677  2.2496
  123OSM    C7F13119   5.316   2.911   7.155 -0.8297 -0.4323  0.0151
  123OSM    H7F13120   5.211   2.907   7.193 -0.3309 -1.5634  1.3359
  123OSM    H7G13121   5.327   3.013   7.112  0.8246 -1.1068 -1.2509
  123OSM    C8F13122   5.424   2.889   7.263 -0.5040 -0.3875 -0.0677
  123OSM    H8F13123   5.450   2.973   7.332 -1.4787  1.3985 -1.7889
  123OSM    H8G13124   5.517   2.886   7.203 -0.7486 -2.0071 -0.4114
  123OSM    C9F13125   5.409   2.761   7.337 -0.1988 -0.1115 -0.1586
  123OSM    H9F13126   5.339   2.689   7.290 -0.0554  0.7261 -1.7389
  123OSM   C10F13127   5.488   2.713   7.434  0.0871 -0.3785  0.2275
  123OSM   H10F13128   5.454   2.619   7.480 -0.4147 -1.0933 -1.5364
  123OSM   C11F13129   5.602   2.793   7.500  0.5762  0.8592 -0.1100
  123OSM   H11F13130   5.572   2.900   7.497 -0.4499  0.5611 -1.2225
  123OSM   H11G13131   5.697   2.778   7.444  0.6648 -2.2643  0.7287
  123OSM   C12F13132   5.624   2.763   7.656  0.5135 -0.5153 -0.0565
  123OSM   H12F13133   5.722   2.810   7.676 -0.2450  1.1320  0.0198
  123OSM   H12G13134   5.636   2.653   7.651 -1.7935 -0.7733 -2.2123
  123OSM   C13F13135   5.529   2.826   7.754  0.0165  0.3213 -0.0340
  123OSM   H13F13136   5.428   2.784   7.737 -0.6345  1.3062  1.1535
  123OSM   H13G13137   5.527   2.929   7.712  1.1503 -0.1364 -1.2373
  123OSM   C14F13138   5.564   2.793   7.898 -0.6446  0.2119  0.0326
  123OSM   H14F13139   5.674   2.807   7.902 -0.4591 -1.1184 -0.0247
  123OSM   H14G13140   5.538   2.687   7.918 -2.3264  0.6258  0.1911
  123OSM   C15F13141   5.514   2.896   8.001 -0.0870  0.0573 -0.5399
  123OSM   H15F13142   5.404   2.885   8.016  0.4030 -2.5510  1.9368
  123OSM   H15G13143   5.536   2.997   7.961 -1.5768  0.5958 -0.0605
  123OSM   C16F13144   5.592   2.880   8.137  0.3533  0.5300 -0.1188
  123OSM   H16F13145   5.550   2.957   8.205 -0.8900  0.4204 -0.7346
  123OSM   H16G13146   5.697   2.910   8.113  0.4280 -0.1537 -0.6688
  123OSM   C17F13147   5.591   2.734   8.202 -0.2341 -0.0079  0.7425
  123OSM   H17F13148   5.667   2.734   8.283 -1.0964  0.1658  1.5743
  123OSM   H17G13149   5.607   2.656   8.125  2.5492  0.7322  0.4626
  123OSM   C18F13150   5.461   2.693   8.268  0.2281 -0.0847 -0.0860
  123OSM   H18F13151   5.382   2.697   8.190  1.4764 -1.7884 -1.5302
  123OSM   H18G13152   5.441   2.755   8.358  2.1225 -0.1939  0.4576
  123OSM   H18H13153   5.465   2.589   8.307  0.8787 -0.5555 -1.3626
  124OSM      N13154   0.660   6.365   6.137  0.1656 -0.4139  1.4416
  124OSM    C1513155   0.644   6.493   6.198 -0.3786  0.5027  0.3800
  124OSM   H15A13156   0.556   6.543   6.160  1.7582  2.4516 -2.4466
  124OSM   H15B13157   0.725   6.561   6.176 -1.3772  1.6913  0.2059
  124OSM   H15C13158   0.626   6.487   6.305 -1.5864  1.7435  0.2781
  124OSM    C1413159   0.695   6.397   5.988  0.0982  0.6817 -0.8146
  124OSM   H14A13160   0.700   6.304   5.933  1.6982  0.2219  0.0722
  124OSM   H14B13161   0.786   6.454   5.977 -0.2580  1.4415  0.0370
  124OSM   H14C13162   0.615   6.454   5.942  1.1426  2.5283 -0.4409
  124OSM    C1313163   0.781   6.296   6.194 -0.1365 -0.1404  0.2263
  124OSM   H13A13164   0.778   6.280   6.301  2.5629  0.6949  0.4963
  124OSM   H13B13165   0.872   6.350   6.172 -2.1767  2.5948 -2.1393
  124OSM   H13C13166   0.792   6.196   6.156  1.5285  0.5299 -1.1798
  124OSM    C1213167   0.539   6.285   6.155  0.7398  0.0234  0.0627
  124OSM   H12A13168   0.552   6.188   6.109 -1.8105 -1.0015  1.3682
  124OSM   H12B13169   0.463   6.331   6.094  0.3843 -1.0319 -0.3099
  124OSM    C1113170   0.492   6.254   6.303 -0.7042  0.3381  0.1709
  124OSM   H11A13171   0.392   6.205   6.310  0.9613 -3.1098  2.3687
  124OSM   H11B13172   0.491   6.345   6.367  0.7392  0.1209  0.5301
  124OSM      P13173   0.596   6.014   6.319  0.1039  0.1375 -0.1366
  124OSM    O1313174   0.559   6.016   6.175  0.2018  0.1963  0.0083
  124OSM    O1413175   0.724   5.954   6.354  0.0456 -0.0494 -0.4940
  124OSM    O1113176   0.494   5.933   6.403 -0.3159  0.2498 -0.6870
  124OSM    O1213177   0.590   6.169   6.368 -0.6646  0.4281 -0.5734
  124OSM    C1S13178   0.511   5.919   6.541  0.2005 -0.2544 -0.3754
  124OSM    H1S13179   0.607   5.952   6.585 -0.3189 -0.6657  1.1295
  124OSM    H1T13180   0.492   5.814   6.573 -1.4494 -0.3800 -1.6335
  124OSM     NF13181   0.418   5.989   6.757  0.7137 -0.1937 -0.0803
  124OSM    HNF13182   0.374   5.906   6.791 -0.0632  0.1827 -0.1463
  124OSM    C2S13183   0.404   6.010   6.618 -0.1232  0.4498 -0.5054
  124OSM    H2S13184   0.435   6.113   6.591 -0.5910  0.6951 -0.1207
  124OSM    C3S13185   0.261   5.993   6.569 -0.2936  0.0662 -0.3026
  124OSM    H3S13186   0.234   5.888   6.589 -1.2494  0.1783 -0.9206
  124OSM     O313187   0.239   6.011   6.430 -0.4651  0.1782  0.2109
  124OSM    HO313188   0.323   5.980   6.394  0.0829  2.0158 -0.1876
  124OSM    C4S13189   0.169   6.083   6.644  0.1965 -0.6617 -0.3783
  124OSM    H4S13190   0.186   6.187   6.610  0.5425 -1.4229 -2.7484
  124OSM    C5S13191   0.082   6.048   6.743 -0.0141  0.8633  0.5177
  124OSM    H5S13192   0.092   5.943   6.775  1.3021  1.0793  0.8912
  124OSM    C6S13193  -0.020   6.137   6.813 -0.3799  0.6466  0.0517
  124OSM    H6S13194  -0.124   6.105   6.790 -1.0492  1.6803  1.4821
  124OSM    H6T13195  -0.012   6.242   6.775 -1.2633  0.6471 -0.1666
  124OSM    C7S13196   0.014   6.144   6.958 -0.1808 -0.0170 -0.2425
  124OSM    H7S13197   0.117   6.178   6.983  0.7975 -2.1643 -1.0556
  124OSM    H7T13198   0.004   6.043   7.003 -0.8772 -0.1583 -0.7181
  124OSM    C8S13199  -0.080   6.250   7.031 -0.4521 -0.9365 -0.8794
  124OSM    H8S13200  -0.185   6.213   7.040 -0.3380 -0.7423  2.7690
  124OSM    H8T13201  -0.068   6.337   6.964 -0.8447 -1.6232 -1.8651
  124OSM    C9S13202  -0.025   6.289   7.175 -0.3968 -0.4807 -0.2940
  124OSM    H9S13203   0.081   6.323   7.166 -0.3162 -0.1228  1.6798
  124OSM    H9T13204  -0.028   6.191   7.227 -0.2113 -1.2648 -1.6938
  124OSM   C10S13205  -0.106   6.399   7.244 -0.2310 -0.2787  0.0827
  124OSM   H10S13206  -0.206   6.355   7.269 -0.8585 -0.9917 -3.2080
  124OSM   H10T13207  -0.124   6.482   7.173  1.2616 -0.1930 -0.2177
  124OSM   C11S13208  -0.055   6.438   7.385 -0.8150  0.1117  0.0011
  124OSM   H11S13209  -0.122   6.507   7.441 -0.4002 -0.1122  0.7958
  124OSM   H11T13210   0.040   6.494   7.372  0.9264 -2.6809 -0.1597
  124OSM   C12S13211  -0.043   6.310   7.475 -0.0473 -0.5352  0.1049
  124OSM   H12S13212   0.041   6.245   7.443 -0.0702 -0.5389  0.0512
  124OSM   H12T13213  -0.140   6.255   7.483 -0.1001 -0.5090 -0.3035
  124OSM   C13S13214  -0.001   6.346   7.618  0.2249  0.8147 -0.5591
  124OSM   H13S13215  -0.077   6.412   7.665 -1.4384 -1.0643 -0.4855
  124OSM   H13T13216   0.100   6.393   7.611  0.0614  1.6053  1.6322
  124OSM   C14S13217   0.013   6.219   7.700 -0.1358  0.3643 -0.1372
  124OSM   H14S13218   0.070   6.148   7.637  0.2245 -0.8155  1.4449
  124OSM   H14T13219  -0.083   6.175   7.734  0.0795  1.7595  2.6000
  124OSM   C15S13220   0.096   6.257   7.823 -0.5130 -0.9975  0.2140
  124OSM   H15S13221   0.189   6.310   7.795 -1.0168  1.0820  2.1427
  124OSM   H15T13222   0.134   6.158   7.856  0.4970 -0.9746 -0.8120
  124OSM   C16S13223   0.020   6.336   7.932 -1.0025 -0.0956  0.3925
  124OSM   H16S13224  -0.002   6.437   7.889  0.0752 -0.4454 -1.0541
  124OSM   H16T13225   0.077   6.349   8.027 -3.4322  1.0158  1.8004
  124OSM   C17S13226  -0.111   6.269   7.975  0.9118  0.9478 -0.6853
  124OSM   H17S13227  -0.098   6.159   7.991 -0.2597  0.8655 -0.2079
  124OSM   H17T13228  -0.185   6.268   7.892  2.0285  1.1244 -1.7096
  124OSM   C18S13229  -0.168   6.327   8.105 -0.5963 -0.2386  0.5801
  124OSM   H18S13230  -0.260   6.271   8.134 -0.7281  0.3814  1.3982
  124OSM   H18T13231  -0.182   6.437   8.095 -0.1098 -0.2569 -0.4156
  124OSM   H18U13232  -0.094   6.299   8.183  2.3206  3.4336 -0.5646
  124OSM    C1F13233   0.500   6.061   6.832 -0.0451  0.4287 -0.2293
  124OSM     OF13234   0.545   6.171   6.785 -0.0302 -0.4316 -0.7558
  124OSM    C2F13235   0.531   6.010   6.974 -0.1865 -0.1510  0.2676
  124OSM    H2F13236   0.636   6.041   6.996  0.1359 -1.0441  0.0339
  124OSM    H2G13237   0.522   5.900   6.971 -3.6839  0.0524 -0.5323
  124OSM    C3F13238   0.444   6.066   7.088  0.1050  0.3971 -0.3199
  124OSM    H3F13239   0.473   6.029   7.188 -0.1603  1.0739  0.0153
  124OSM    H3G13240   0.343   6.022   7.073  0.5425  0.2020 -3.1753
  124OSM    C4F13241   0.446   6.224   7.082  0.6709  0.5698 -0.0263
  124OSM    H4F13242   0.402   6.259   6.986  0.4318  1.5206  0.4240
  124OSM    H4G13243   0.553   6.256   7.091  0.3960  1.6641 -0.4664
  124OSM    C5F13244   0.359   6.280   7.200 -0.0773  0.1497 -0.0202
  124OSM    H5F13245   0.263   6.229   7.221 -0.5948  1.8310  2.0206
  124OSM    H5G13246   0.334   6.384   7.169 -2.2041 -0.4439 -0.4658
  124OSM    C6F13247   0.437   6.264   7.334 -0.1623 -0.5904 -0.2030
  124OSM    H6F13248   0.515   6.343   7.337 -0.5724 -0.1909  2.9059
  124OSM    H6G13249   0.477   6.161   7.343 -2.4503 -1.3445  3.4332
  124OSM    C7F13250   0.338   6.292   7.447  0.0987 -0.1325 -0.0079
  124OSM    H7F13251   0.263   6.210   7.453 -1.3073  1.0280 -1.2572
  124OSM    H7G13252   0.287   6.386   7.419  0.4862  0.0219 -0.1931
  124OSM    C8F13253   0.402   6.310   7.581  0.1666  0.3703  0.0880
  124OSM    H8F13254   0.325   6.354   7.649 -0.4765 -1.0207  0.2847
  124OSM    H8G13255   0.481   6.387   7.569  0.3652 -0.0338 -1.4130
  124OSM    C9F13256   0.462   6.188   7.639  0.1255 -0.1518 -0.1550
  124OSM    H9F13257   0.493   6.115   7.564  2.8508  0.3003  0.4280
  124OSM   C10F13258   0.497   6.174   7.771  0.7507 -0.1608  0.6514
  124OSM   H10F13259   0.521   6.077   7.816 -0.6097 -0.3856  0.9641
  124OSM   C11F13260   0.478   6.278   7.878  0.2216 -0.1473 -0.1052
  124OSM   H11F13261   0.384   6.265   7.935 -0.2884  0.8410 -0.6821
  124OSM   H11G13262   0.478   6.382   7.838  1.0924 -0.5551 -1.2269
  124OSM   C12F13263   0.592   6.263   7.977 -0.1331  0.0599  0.0718
  124OSM   H12F13264   0.609   6.156   7.998 -1.7075 -0.5727 -1.5650
  124OSM   H12G13265   0.558   6.318   8.067 -1.5223 -0.4805 -0.0971
  124OSM   C13F13266   0.724   6.328   7.922 -0.2987  0.0312  0.2698
  124OSM   H13F13267   0.687   6.425   7.882 -1.2960 -0.6363 -0.4503
  124OSM   H13G13268   0.759   6.262   7.841  3.8013 -0.5892  2.2705
  124OSM   C14F13269   0.837   6.344   8.020 -0.2633 -0.1616 -0.8560
  124OSM   H14F13270   0.935   6.342   7.968  2.9463  2.0993  4.3227
  124OSM   H14G13271   0.830   6.259   8.091 -2.4684  1.3301  0.8703
  124OSM   C15F13272   0.820   6.477   8.097 -0.4329  0.8101 -0.3813
  124OSM   H15F13273   0.719   6.467   8.141  0.0955 -0.4386  0.6062
  124OSM   H15G13274   0.829   6.571   8.038 -0.9079  1.5070  0.6197
  124OSM   C16F13275   0.929   6.483   8.205  0.2832 -0.0730  0.3149
  124OSM   H16F13276   1.007   6.554   8.170  0.1544  1.5550  3.0580
  124OSM   H16G13277   0.980   6.386   8.225 -0.3707 -0.3226  0.8341
  124OSM   C17F13278   0.882   6.556   8.335 -0.1933 -0.0549 -0.2223
  124OSM   H17F13279   0.806   6.630   8.302  0.4064  0.0700 -1.3528
  124OSM   H17G13280   0.976   6.603   8.369 -0.0922 -1.5595  1.7456
  124OSM   C18F13281   0.833   6.470   8.449 -0.3677 -0.7181 -0.5554
  124OSM   H18F13282   0.830   6.534   8.540  0.6253 -0.2452 -0.8378
  124OSM   H18G13283   0.908   6.388   8.454  1.6879  1.0471 -0.8627
  124OSM   H18H13284   0.737   6.423   8.421  0.0402 -1.8838 -0.0552
  125OSM      N13285   6.414   0.264   6.157  0.8081 -0.3923  0.0383
  125OSM    C1513286   6.271   0.326   6.154 -0.8616 -0.9381 -1.0914
  125OSM   H15A13287   6.281   0.434   6.160  2.3193 -1.2202  1.8764
  125OSM   H15B13288   6.223   0.301   6.247  1.8849  0.2740  0.8140
  125OSM   H15C13289   6.212   0.303   6.066 -0.5306  0.7446 -1.8041
  125OSM    C1413290   6.392   0.119   6.155  0.0292  0.0477 -0.5273
  125OSM   H14A13291   6.358   0.086   6.058  0.5079 -0.9044 -0.3818
  125OSM   H14B13292   6.323   0.092   6.233 -0.2129  0.5326 -0.5705
  125OSM   H14C13293   6.489   0.074   6.170  1.1887  2.7807  0.9743
  125OSM    C1313294   6.477   0.310   6.035 -0.4835 -0.0697  0.4442
  125OSM   H13A13295   6.502   0.415   6.040  1.4515 -0.4679 -0.1325
  125OSM   H13B13296   6.419   0.290   5.946 -0.0508  0.2942  0.0751
  125OSM   H13C13297   6.565   0.249   6.025 -1.3186 -1.6000  1.8688
  125OSM    C1213298   6.489   0.306   6.280 -0.5921  0.9370 -0.0901
  125OSM   H12A13299   6.589   0.265   6.278 -0.9617  0.0295 -0.5160
  125OSM   H12B13300   6.445   0.246   6.357  1.7374  0.5113  0.9989
  125OSM    C1113301   6.515   0.458   6.306 -0.0929  0.1703 -0.4766
  125OSM   H11A13302   6.568   0.472   6.402  2.8641  1.5746 -2.1597
  125OSM   H11B13303   6.414   0.500   6.319 -0.5413 -1.2449  0.9955
  125OSM      P13304   6.751   0.519   6.214 -0.2769  0.0230 -0.0988
  125OSM    O1313305   6.793   0.378   6.231  0.7770  0.0013  0.6029
  125OSM    O1413306   6.813   0.602   6.106 -0.1913  0.7203 -0.0819
  125OSM    O1113307   6.782   0.584   6.351  0.1314  0.0845 -0.7297
  125OSM    O1213308   6.589   0.533   6.206  0.0382  0.7814 -0.7655
  125OSM    C1S13309   6.884   0.677   6.372 -0.1574 -0.2742  0.1629
  125OSM    H1S13310   6.880   0.762   6.300  1.6602  0.4112  0.8095
  125OSM    H1T13311   6.986   0.636   6.357  0.3682  0.2432  2.0221
  125OSM     NF13312   6.974   0.846   6.533 -0.0160 -0.1327  0.1738
  125OSM    HNF13313   7.063   0.809   6.555 -0.0202  0.4833  1.3366
  125OSM    C2S13314   6.870   0.748   6.518 -0.6688  0.2494  0.2581
  125OSM    H2S13315   6.772   0.799   6.508 -0.5977  0.0991 -1.6765
  125OSM    C3S13316   6.867   0.644   6.636  0.2548 -0.9822 -0.2765
  125OSM    H3S13317   6.963   0.589   6.650  0.8282 -0.5890 -2.3008
  125OSM     O313318   6.777   0.529   6.621  0.0405  0.1593  0.1829
  125OSM    HO313319   6.768   0.516   6.527  0.9808  0.1973  0.0767
  125OSM    C4S13320   6.836   0.730   6.762 -0.5969 -0.2870  0.0281
  125OSM    H4S13321   6.918   0.796   6.794 -3.3109  2.4630  1.8002
  125OSM    C5S13322   6.729   0.736   6.841  0.2855  0.5036 -0.1668
  125OSM    H5S13323   6.639   0.672   6.837  1.0298 -0.7061  1.2848
  125OSM    C6S13324   6.716   0.829   6.953  0.6925 -0.1054 -0.2817
  125OSM    H6S13325   6.645   0.788   7.027  0.7455  1.9489  0.9629
  125OSM    H6T13326   6.682   0.923   6.906 -0.1151 -0.9322 -1.4315
  125OSM    C7S13327   6.842   0.853   7.031 -0.2881  0.6956  0.2923
  125OSM    H7S13328   6.919   0.913   6.977  1.1071 -0.2701  1.1234
  125OSM    H7T13329   6.885   0.752   7.046 -0.8098  0.1954 -1.4173
  125OSM    C8S13330   6.819   0.916   7.169 -0.5819 -0.2330  0.3177
  125OSM    H8S13331   6.742   0.861   7.226 -1.1359 -0.0312 -0.2195
  125OSM    H8T13332   6.776   1.017   7.154  1.8400  0.6040 -1.6355
  125OSM    C9S13333   6.954   0.919   7.248 -0.1199 -0.0439 -0.1852
  125OSM    H9S13334   6.934   0.989   7.331 -1.3608 -0.3138 -0.2486
  125OSM    H9T13335   7.030   0.970   7.184 -0.6852 -0.9588 -1.6295
  125OSM   C10S13336   7.009   0.795   7.305 -0.4593 -0.6166  0.0185
  125OSM   H10S13337   7.017   0.720   7.223 -0.1042 -2.7430  1.9176
  125OSM   H10T13338   6.955   0.753   7.392  1.4178 -0.9139  1.0983
  125OSM   C11S13339   7.156   0.820   7.353  0.1782  0.2208 -0.4828
  125OSM   H11S13340   7.190   0.910   7.298 -0.6048  1.7520  1.3813
  125OSM   H11T13341   7.217   0.728   7.346  0.4667  0.1689  1.8564
  125OSM   C12S13342   7.163   0.859   7.505 -0.0889 -0.3499 -0.4143
  125OSM   H12S13343   7.112   0.779   7.563  1.2686  0.5317  2.2005
  125OSM   H12T13344   7.106   0.953   7.518 -0.4375 -0.6601  0.4110
  125OSM   C13S13345   7.304   0.879   7.549 -0.3597 -0.0381  0.2209
  125OSM   H13S13346   7.357   0.964   7.500 -1.3912  1.0018  0.8692
  125OSM   H13T13347   7.366   0.791   7.519  0.2585  0.3248  0.4100
  125OSM   C14S13348   7.325   0.904   7.702  0.1896  0.8080 -0.0281
  125OSM   H14S13349   7.263   0.991   7.734 -2.4775 -0.9230 -0.1217
  125OSM   H14T13350   7.431   0.918   7.730 -0.5957  1.0371  3.2791
  125OSM   C15S13351   7.266   0.786   7.785 -0.0880  0.2294  0.7709
  125OSM   H15S13352   7.309   0.688   7.752  0.6005  0.0082  2.2310
  125OSM   H15T13353   7.156   0.786   7.775 -0.0840  1.0217  0.6634
  125OSM   C16S13354   7.289   0.800   7.936 -0.2523  0.8196 -0.3971
  125OSM   H16S13355   7.257   0.897   7.979  0.5157  0.8993  0.0115
  125OSM   H16T13356   7.397   0.804   7.963 -0.4549 -0.3352  0.7055
  125OSM   C17S13357   7.224   0.693   8.023  1.1091  0.1264  0.1443
  125OSM   H17S13358   7.251   0.587   8.004 -1.1452 -0.7396  1.4405
  125OSM   H17T13359   7.114   0.702   8.006  1.1327  0.0176 -0.0719
  125OSM   C18S13360   7.258   0.715   8.169  0.1362  0.5995 -0.1138
  125OSM   H18S13361   7.231   0.630   8.235  0.2782  0.0413 -0.7560
  125OSM   H18T13362   7.207   0.806   8.207  1.3878  1.9741 -1.6102
  125OSM   H18U13363   7.368   0.726   8.169  0.2523 -0.4512 -0.0515
  125OSM    C1F13364   6.970   0.972   6.486  0.1733 -0.1608 -0.7982
  125OSM     OF13365   6.869   1.012   6.433 -0.7361 -0.1431  0.0878
  125OSM    C2F13366   7.085   1.062   6.493  0.1636  0.1941  0.3064
  125OSM    H2F13367   7.107   1.122   6.401 -1.0460  2.7033  1.5688
  125OSM    H2G13368   7.184   1.014   6.508  0.4311  0.4735 -0.4724
  125OSM    C3F13369   7.066   1.175   6.607 -0.6883 -0.2847 -0.7894
  125OSM    H3F13370   6.985   1.243   6.573 -1.5669  0.1955  1.9876
  125OSM    H3G13371   7.160   1.234   6.612 -1.3434  0.7534 -0.4128
  125OSM    C4F13372   7.037   1.124   6.756  0.0775  0.4220  1.1991
  125OSM    H4F13373   7.122   1.057   6.781  0.6305  0.0432 -1.4036
  125OSM    H4G13374   6.947   1.059   6.751  1.1285 -0.9747 -0.7207
  125OSM    C5F13375   7.034   1.247   6.846 -0.1979 -0.2427 -0.2561
  125OSM    H5F13376   6.958   1.315   6.802 -0.7069 -0.9843 -0.5413
  125OSM    H5G13377   7.134   1.295   6.846 -0.3150  0.0052 -0.7196
  125OSM    C6F13378   6.995   1.215   6.986 -0.3451  0.2408  0.3234
  125OSM    H6F13379   7.074   1.154   7.034  2.0977  3.0599  0.1706
  125OSM    H6G13380   6.898   1.161   6.993  0.5789 -1.6563 -0.9272
  125OSM    C7F13381   6.979   1.345   7.064  0.7726  0.5710 -0.5307
  125OSM    H7F13382   6.900   1.417   7.033  1.3460  1.4067 -0.0868
  125OSM    H7G13383   7.079   1.393   7.073  0.9051  0.4590 -1.3853
  125OSM    C8F13384   6.927   1.305   7.212  0.4067  1.0050  0.3875
  125OSM    H8F13385   7.008   1.243   7.257  0.9588 -0.4258 -2.3881
  125OSM    H8G13386   6.832   1.249   7.212  0.4948  0.8530 -0.0159
  125OSM    C9F13387   6.909   1.432   7.298 -0.4979  0.4413  0.8859
  125OSM    H9F13388   6.902   1.526   7.242 -0.3439 -0.8326 -1.4093
  125OSM   C10F13389   6.950   1.435   7.422  0.0836  0.8048  0.3263
  125OSM   H10F13390   6.934   1.529   7.477 -4.1302  0.8990 -0.7261
  125OSM   C11F13391   6.993   1.315   7.510  0.3566  0.1819 -0.0520
  125OSM   H11F13392   7.094   1.285   7.474 -0.1361  0.8140 -2.0760
  125OSM   H11G13393   6.918   1.236   7.489  1.3432 -0.5122 -1.1434
  125OSM   C12F13394   6.986   1.367   7.648  0.1225  0.5082  0.8136
  125OSM   H12F13395   6.884   1.384   7.690 -0.1115  3.0980 -0.5556
  125OSM   H12G13396   7.041   1.464   7.654  1.1404  0.0962 -1.2485
  125OSM   C13F13397   7.045   1.263   7.752  0.2154 -0.0830  0.0026
  125OSM   H13F13398   7.154   1.279   7.757  0.0802  0.5250  1.2440
  125OSM   H13G13399   7.027   1.162   7.709 -0.2071 -0.7566  1.6882
  125OSM   C14F13400   6.967   1.255   7.886  0.3120  0.0671 -0.0211
  125OSM   H14F13401   6.862   1.227   7.864  0.5494 -0.0545 -1.0827
  125OSM   H14G13402   6.965   1.356   7.933  0.3899  2.0414 -3.8684
  125OSM   C15F13403   7.026   1.141   7.966 -0.1016  0.1918 -0.6393
  125OSM   H15F13404   7.133   1.163   7.987 -0.5970  1.1189  1.0832
  125OSM   H15G13405   7.019   1.049   7.905  0.4986  0.7166 -1.5289
  125OSM   C16F13406   6.955   1.125   8.109  0.0609  0.0727 -0.2876
  125OSM   H16F13407   6.859   1.070   8.102  1.0205 -1.9649  1.4899
  125OSM   H16G13408   6.939   1.229   8.146  0.7673 -0.5365  1.8737
  125OSM   C17F13409   7.040   1.048   8.213 -0.6810  0.2984  0.8703
  125OSM   H17F13410   7.143   1.085   8.194 -1.1462  1.7708  1.1092
  125OSM   H17G13411   7.043   0.944   8.172 -1.3774  0.3427  0.7017
  125OSM   C18F13412   6.993   1.060   8.359  0.1187  0.0196  0.5706
  125OSM   H18F13413   6.891   1.015   8.356 -0.2551  0.8486  0.5865
  125OSM   H18G13414   6.974   1.168   8.377 -1.2319 -0.5090  2.7002
  125OSM   H18H13415   7.053   1.008   8.436  0.2690 -1.6263 -0.6063
  126OSM      N13416   4.248   1.745   6.146 -0.2142 -0.2077 -0.0188
  126OSM    C1513417   4.220   1.863   6.055  0.6098 -0.4262  0.5936
  126OSM   H15A13418   4.138   1.919   6.096  0.3847 -1.4183  1.5810
  126OSM   H15B13419   4.205   1.834   5.952  3.1770  1.0210 -0.2796
  126OSM   H15C13420   4.300   1.935   6.063 -0.2241  0.4571  1.1944
  126OSM    C1413421   4.118   1.663   6.149  0.5344  0.1354  0.3413
  126OSM   H14A13422   4.142   1.568   6.195 -1.3917 -0.9349 -0.7540
  126OSM   H14B13423   4.088   1.640   6.047 -1.7101  1.0008  0.7430
  126OSM   H14C13424   4.036   1.718   6.192  0.2736 -0.0139  0.0392
  126OSM    C1313425   4.363   1.663   6.094 -0.2416 -0.6786  0.8565
  126OSM   H13A13426   4.344   1.628   5.993 -0.4032 -1.0690  1.0212
  126OSM   H13B13427   4.374   1.577   6.158 -0.1824 -0.8113  0.6694
  126OSM   H13C13428   4.459   1.711   6.083 -0.8978  0.4346 -0.2817
  126OSM    C1213429   4.269   1.795   6.287  0.2760  0.0504 -0.2717
  126OSM   H12A13430   4.190   1.853   6.333  1.4511 -0.6040  2.7999
  126OSM   H12B13431   4.353   1.862   6.278  1.0118 -0.6559  1.1459
  126OSM    C1113432   4.302   1.699   6.408 -0.4230  0.0625  0.1800
  126OSM   H11A13433   4.231   1.613   6.410  0.3804 -0.6165  0.0541
  126OSM   H11B13434   4.280   1.760   6.499 -0.1520 -0.4973  0.6271
  126OSM      P13435   4.491   1.533   6.465 -0.1484 -0.0828  0.0399
  126OSM    O1313436   4.395   1.430   6.439  0.6038  0.4964 -0.0733
  126OSM    O1413437   4.624   1.510   6.411  0.1849  0.0202  0.8000
  126OSM    O1113438   4.501   1.551   6.623  0.3049 -0.1496  0.2348
  126OSM    O1213439   4.446   1.666   6.407 -0.0429 -0.5302  0.2320
  126OSM    C1S13440   4.540   1.674   6.686 -0.0991 -0.0627  0.0702
  126OSM    H1S13441   4.475   1.753   6.643 -0.6753 -0.4544  0.2089
  126OSM    H1T13442   4.646   1.697   6.661  0.4593 -0.5411  1.8050
  126OSM     NF13443   4.557   1.793   6.911  0.2929 -0.0760  0.2874
  126OSM    HNF13444   4.642   1.816   6.958 -1.1527 -0.2251  3.1704
  126OSM    C2S13445   4.544   1.658   6.840  0.7802  0.0345  0.3671
  126OSM    H2S13446   4.447   1.610   6.864  0.4559 -0.4626 -1.6992
  126OSM    C3S13447   4.654   1.554   6.877 -0.1179  0.0982  0.3264
  126OSM    H3S13448   4.749   1.607   6.859 -0.0810 -0.0449  0.0964
  126OSM     O313449   4.650   1.430   6.798 -0.1673  0.0838 -0.1666
  126OSM    HO313450   4.596   1.464   6.726 -0.7651  1.0681  0.7246
  126OSM    C4S13451   4.653   1.527   7.029 -0.3614 -0.3460  0.2183
  126OSM    H4S13452   4.688   1.618   7.080  2.1622 -0.7867 -0.6301
  126OSM    C5S13453   4.608   1.422   7.100  0.2781  0.3468 -0.1375
  126OSM    H5S13454   4.566   1.332   7.054  1.1809  0.3223 -0.9651
  126OSM    C6S13455   4.597   1.407   7.247 -0.1986  0.1815 -0.4461
  126OSM    H6S13456   4.642   1.311   7.280 -1.2609 -1.2746 -2.9806
  126OSM    H6T13457   4.488   1.406   7.268  0.2104  2.8739  2.8532
  126OSM    C7S13458   4.642   1.522   7.347  0.1308  0.2578  0.4577
  126OSM    H7S13459   4.592   1.616   7.313  0.4703  0.3815  0.3001
  126OSM    H7T13460   4.748   1.545   7.327 -0.6045  3.8954 -0.0725
  126OSM    C8S13461   4.597   1.502   7.492  0.1509 -0.2422 -0.7113
  126OSM    H8S13462   4.658   1.423   7.540 -0.4266  0.5870  1.4779
  126OSM    H8T13463   4.494   1.462   7.499  0.1343 -0.1927 -0.6763
  126OSM    C9S13464   4.622   1.620   7.586  0.2130 -0.8959  0.4085
  126OSM    H9S13465   4.571   1.699   7.526 -2.7464 -1.0321  2.5243
  126OSM    H9T13466   4.731   1.634   7.599  0.2459 -1.5933  0.9425
  126OSM   C10S13467   4.543   1.605   7.721 -0.0238  0.0186 -0.5768
  126OSM   H10S13468   4.576   1.516   7.779  1.7885  2.0482  1.7254
  126OSM   H10T13469   4.436   1.592   7.696  0.1221  0.6845 -1.6170
  126OSM   C11S13470   4.565   1.740   7.792  0.5101 -0.1565 -0.2868
  126OSM   H11S13471   4.549   1.822   7.719 -0.3179  1.1146  1.2495
  126OSM   H11T13472   4.670   1.742   7.828  1.7287 -0.0504 -3.5627
  126OSM   C12S13473   4.462   1.756   7.915 -0.3498 -0.6060  0.6136
  126OSM   H12S13474   4.363   1.727   7.874 -0.3665 -0.7532  0.7572
  126OSM   H12T13475   4.457   1.861   7.949  0.4580 -0.5710  0.6516
  126OSM   C13S13476   4.473   1.666   8.031 -0.1705  0.0431  0.4257
  126OSM   H13S13477   4.570   1.681   8.084  0.2554 -0.1976 -0.2773
  126OSM   H13T13478   4.462   1.558   8.006  0.0008 -0.5243  2.5942
  126OSM   C14S13479   4.369   1.712   8.142 -0.6704 -0.0640 -0.4635
  126OSM   H14S13480   4.263   1.708   8.110 -0.4345 -1.0409 -1.2093
  126OSM   H14T13481   4.398   1.816   8.167  0.9847  0.5729 -4.2492
  126OSM   C15S13482   4.385   1.635   8.271 -0.4436  0.1021  0.6577
  126OSM   H15S13483   4.491   1.606   8.286 -0.1389  0.3231 -0.9110
  126OSM   H15T13484   4.333   1.536   8.266 -0.9618  0.2638  2.2269
  126OSM   C16S13485   4.322   1.691   8.394  0.2385 -0.6376  0.1035
  126OSM   H16S13486   4.220   1.733   8.382  0.5590 -0.2029 -1.2448
  126OSM   H16T13487   4.388   1.773   8.428  0.7800  0.0570 -2.4078
  126OSM   C17S13488   4.313   1.589   8.514  0.1024  0.1074 -0.0028
  126OSM   H17S13489   4.260   1.499   8.474 -0.3464 -0.2613  1.3773
  126OSM   H17T13490   4.240   1.625   8.589 -1.7107 -1.8034 -0.7332
  126OSM   C18S13491   4.443   1.555   8.583 -0.2416  0.2131  0.5528
  126OSM   H18S13492   4.516   1.516   8.509  1.2958  2.1705  0.9443
  126OSM   H18T13493   4.427   1.488   8.670 -0.0224  0.7954  1.0452
  126OSM   H18U13494   4.490   1.646   8.626  2.5073 -0.0702 -1.5982
  126OSM    C1F13495   4.464   1.880   6.906  0.0177 -1.0723 -0.7087
  126OSM     OF13496   4.348   1.847   6.905 -0.8410  0.5609  0.5890
  126OSM    C2F13497   4.510   2.021   6.893  0.8180 -0.5477 -0.3142
  126OSM    H2F13498   4.462   2.061   6.801 -0.0045  0.2814  0.4548
  126OSM    H2G13499   4.620   2.021   6.880  0.8990  0.7713  0.2525
  126OSM    C3F13500   4.460   2.108   7.009  0.2647  0.2959 -0.0569
  126OSM    H3F13501   4.487   2.055   7.103 -0.9153 -2.5423 -1.2052
  126OSM    H3G13502   4.349   2.119   7.015  0.2123  0.6448 -1.3450
  126OSM    C4F13503   4.511   2.252   7.012 -0.8853 -0.0376 -0.0760
  126OSM    H4F13504   4.490   2.306   6.918  0.4463  0.4200 -0.1257
  126OSM    H4G13505   4.621   2.238   7.018 -0.7127  1.1117 -0.3547
  126OSM    C5F13506   4.471   2.333   7.132 -0.5926  0.1831  0.1301
  126OSM    H5F13507   4.491   2.278   7.227 -1.0256 -1.0863 -0.4878
  126OSM    H5G13508   4.366   2.371   7.130 -0.0925  1.6909 -2.4596
  126OSM    C6F13509   4.562   2.458   7.145  0.3939 -0.3554  0.1231
  126OSM    H6F13510   4.601   2.488   7.045 -1.7525  0.4742 -0.5116
  126OSM    H6G13511   4.653   2.427   7.201  0.3685 -1.2621 -0.3189
  126OSM    C7F13512   4.494   2.573   7.219  0.1346  0.0257 -1.0065
  126OSM    H7F13513   4.403   2.602   7.162 -0.8962 -1.4037 -0.1297
  126OSM    H7G13514   4.568   2.655   7.229 -0.4434  0.4470 -0.1218
  126OSM    C8F13515   4.443   2.535   7.359 -0.2272 -0.0611  0.2406
  126OSM    H8F13516   4.362   2.461   7.343 -0.7330  0.5931 -0.3083
  126OSM    H8G13517   4.406   2.628   7.408  0.5127  1.6308 -2.2061
  126OSM    C9F13518   4.550   2.472   7.450  0.2734 -0.7929  0.2366
  126OSM    H9F13519   4.561   2.363   7.448  2.2778 -0.6117 -0.7739
  126OSM   C10F13520   4.627   2.550   7.538 -0.3255  0.3423  0.7511
  126OSM   H10F13521   4.699   2.497   7.602 -0.3149 -1.3230 -0.5770
  126OSM   C11F13522   4.611   2.701   7.565  0.2201 -0.3770  0.1568
  126OSM   H11F13523   4.516   2.747   7.529 -0.1646 -0.2738  1.2802
  126OSM   H11G13524   4.683   2.751   7.496 -0.3521  0.3635  0.0763
  126OSM   C12F13525   4.648   2.766   7.702  0.5354 -0.2139  0.7568
  126OSM   H12F13526   4.648   2.877   7.696  0.7990 -0.2734 -0.4237
  126OSM   H12G13527   4.749   2.728   7.726  1.5257 -0.4404 -3.1373
  126OSM   C13F13528   4.544   2.720   7.809 -0.3758 -0.1848 -0.1775
  126OSM   H13F13529   4.518   2.612   7.806  0.7090 -0.4663  0.0785
  126OSM   H13G13530   4.448   2.774   7.793 -0.5085 -0.2018  0.5155
  126OSM   C14F13531   4.603   2.740   7.948  0.3167 -0.1015 -0.2405
  126OSM   H14F13532   4.659   2.834   7.966 -0.1342  0.2907 -0.8490
  126OSM   H14G13533   4.685   2.666   7.960 -0.9262 -1.5878 -0.5167
  126OSM   C15F13534   4.501   2.709   8.064 -0.3555 -1.0120 -0.8349
  126OSM   H15F13535   4.462   2.607   8.045 -0.8072 -1.6766  2.8600
  126OSM   H15G13536   4.417   2.781   8.069  0.6931  0.2589 -0.9964
  126OSM   C16F13537   4.579   2.708   8.204  0.2624 -0.1760  0.2241
  126OSM   H16F13538   4.605   2.814   8.224  1.5411 -0.4001 -0.1326
  126OSM   H16G13539   4.663   2.636   8.203 -0.3302 -0.9285  1.6127
  126OSM   C17F13540   4.492   2.660   8.325 -0.2716  0.3856 -0.1912
  126OSM   H17F13541   4.390   2.702   8.309 -0.8100  0.6354  3.1262
  126OSM   H17G13542   4.535   2.695   8.421 -0.6749 -2.0789  0.9729
  126OSM   C18F13543   4.476   2.505   8.322  0.0497  0.0910 -0.4512
  126OSM   H18F13544   4.574   2.457   8.304 -0.0239  0.1216 -0.9522
  126OSM   H18G13545   4.412   2.476   8.236  0.6062 -0.7782 -0.5888
  126OSM   H18H13546   4.438   2.461   8.417 -0.5066 -0.4465 -0.9090
  127OSM      N13547   4.173   6.756   5.887  0.4110  0.0520  0.3918
  127OSM    C1513548   4.041   6.720   5.836 -0.0637 -0.1633  0.4724
  127OSM   H15A13549   4.015   6.618   5.862  0.8821  0.1091  2.7238
  127OSM   H15B13550   4.026   6.732   5.730 -2.4841  1.6698  0.9341
  127OSM   H15C13551   3.967   6.788   5.876 -1.3451 -1.1517 -0.1627
  127OSM    C1413552   4.270   6.650   5.858 -0.1650  0.2094  0.3417
  127OSM   H14A13553   4.369   6.671   5.896  1.5863 -2.1337 -2.4682
  127OSM   H14B13554   4.298   6.646   5.753  0.5013  1.9652  0.4169
  127OSM   H14C13555   4.240   6.550   5.884 -1.8313 -0.1940 -2.6951
  127OSM    C1313556   4.226   6.882   5.816 -0.3826  0.7565  0.6584
  127OSM   H13A13557   4.250   6.861   5.713  1.2402 -2.3682  1.5590
  127OSM   H13B13558   4.318   6.911   5.865 -0.6947  1.3267  0.9133
  127OSM   H13C13559   4.148   6.955   5.833 -1.7443 -0.5164  0.0467
  127OSM    C1213560   4.169   6.783   6.034 -0.4764  0.1129  0.5405
  127OSM   H12A13561   4.119   6.875   6.059 -0.4913 -0.1862  1.6633
  127OSM   H12B13562   4.272   6.797   6.063  0.7677 -2.3916 -2.1191
  127OSM    C1113563   4.109   6.673   6.125  0.1131 -0.5910  0.2586
  127OSM   H11A13564   4.002   6.665   6.098  0.1177 -0.2511  0.1266
  127OSM   H11B13565   4.121   6.701   6.232  0.1296  0.9561 -0.1158
  127OSM      P13566   4.099   6.410   6.085 -0.1986  0.1046  0.0104
  127OSM    O1313567   3.980   6.410   5.993  0.4417 -0.0800 -0.9867
  127OSM    O1413568   4.202   6.313   6.036  0.1178 -0.9128 -0.4059
  127OSM    O1113569   4.063   6.382   6.244 -0.2731  0.0442  0.3126
  127OSM    O1213570   4.168   6.553   6.094  1.0357  0.5617 -0.0576
  127OSM    C1S13571   4.168   6.391   6.347 -0.0931 -0.5759  0.5855
  127OSM    H1S13572   4.194   6.498   6.359  1.9051 -0.9758  0.0749
  127OSM    H1T13573   4.263   6.337   6.326 -0.4107 -0.3810 -1.5539
  127OSM     NF13574   4.213   6.374   6.585 -0.1596  0.1285  0.2805
  127OSM    HNF13575   4.283   6.309   6.612 -1.4902 -0.9523  1.2651
  127OSM    C2S13576   4.118   6.338   6.486 -0.0569  0.2449 -0.0104
  127OSM    H2S13577   4.031   6.400   6.516  0.7491  0.8554  1.1276
  127OSM    C3S13578   4.060   6.185   6.476 -0.6485 -0.8922 -0.4796
  127OSM    H3S13579   4.143   6.117   6.446  1.4798 -0.4273  3.6821
  127OSM     O313580   3.968   6.169   6.372 -0.1501  0.8595 -0.0624
  127OSM    HO313581   3.979   6.246   6.316 -0.4029  0.6418 -0.4155
  127OSM    C4S13582   4.008   6.139   6.609 -0.1021 -0.0424  0.1478
  127OSM    H4S13583   4.074   6.076   6.670  0.2277 -1.3603 -1.4886
  127OSM    C5S13584   3.877   6.144   6.656 -0.1862 -0.8411  0.3879
  127OSM    H5S13585   3.795   6.162   6.585 -0.4786  1.7745  1.2586
  127OSM    C6S13586   3.827   6.086   6.782 -0.0458  0.1731 -0.4834
  127OSM    H6S13587   3.735   6.025   6.766  0.9625 -0.9884 -2.1073
  127OSM    H6T13588   3.793   6.172   6.845 -0.1605  0.4816 -0.9603
  127OSM    C7S13589   3.928   6.005   6.866 -0.4491 -0.1509 -0.1523
  127OSM    H7S13590   4.016   6.060   6.906 -0.4970 -0.7135  0.7507
  127OSM    H7T13591   3.965   5.926   6.796  0.0078 -0.3344  0.2925
  127OSM    C8S13592   3.867   5.924   6.979  0.2285  0.2147 -0.5916
  127OSM    H8S13593   3.946   5.860   7.024  2.4132  3.2294  0.2514
  127OSM    H8T13594   3.777   5.863   6.960 -0.5853  0.1341  2.7509
  127OSM    C9S13595   3.830   6.030   7.093  0.3029  0.6243  0.6935
  127OSM    H9S13596   3.749   6.089   7.044 -1.4180 -2.9295 -1.0768
  127OSM    H9T13597   3.922   6.091   7.107  1.0678 -0.2190 -0.4450
  127OSM   C10S13598   3.764   5.961   7.218  0.3572 -0.8397  0.9062
  127OSM   H10S13599   3.841   5.900   7.269  2.0786  0.7869  0.3368
  127OSM   H10T13600   3.678   5.907   7.172  0.8497  0.1068 -1.2171
  127OSM   C11S13601   3.704   6.064   7.324  0.6274  0.0883 -0.4696
  127OSM   H11S13602   3.618   6.113   7.274 -0.4414  0.0937  1.2964
  127OSM   H11T13603   3.781   6.143   7.338 -1.1606  2.0476 -1.2216
  127OSM   C12S13604   3.658   5.993   7.453  0.3956  0.6290 -0.2679
  127OSM   H12S13605   3.732   5.932   7.509 -0.3969 -1.1261 -1.0367
  127OSM   H12T13606   3.581   5.921   7.416  1.0438  0.5742 -1.5519
  127OSM   C13S13607   3.590   6.091   7.551 -0.7663 -0.5154  0.0308
  127OSM   H13S13608   3.526   6.159   7.490  0.7783 -0.8185 -2.0207
  127OSM   H13T13609   3.666   6.154   7.602  0.3435 -2.2141  0.5677
  127OSM   C14S13610   3.529   6.024   7.675  0.0604 -0.6500  0.3243
  127OSM   H14S13611   3.604   5.953   7.716  0.5616  0.0856  0.7074
  127OSM   H14T13612   3.444   5.960   7.644 -0.9190  1.3237 -1.3077
  127OSM   C15S13613   3.496   6.124   7.785 -0.0395  0.3716 -0.4237
  127OSM   H15S13614   3.408   6.183   7.752 -3.8004 -2.8503  2.8415
  127OSM   H15T13615   3.574   6.201   7.800  1.2623 -0.4083 -2.7040
  127OSM   C16S13616   3.465   6.055   7.923 -0.5792 -0.7898  0.6273
  127OSM   H16S13617   3.543   5.979   7.946  0.6226 -0.4074 -1.9032
  127OSM   H16T13618   3.383   5.983   7.905 -2.5731  1.8603 -1.8228
  127OSM   C17S13619   3.452   6.147   8.040 -0.1975 -0.4804 -0.2336
  127OSM   H17S13620   3.386   6.230   8.008  0.2264 -0.7695 -1.9274
  127OSM   H17T13621   3.556   6.179   8.065 -0.3527  0.1802 -0.4185
  127OSM   C18S13622   3.391   6.068   8.160 -0.3566 -0.1311 -0.9101
  127OSM   H18S13623   3.476   6.017   8.211  0.2481 -0.2220 -1.9753
  127OSM   H18T13624   3.315   5.997   8.121 -0.7305 -1.4566  1.9612
  127OSM   H18U13625   3.342   6.137   8.232  0.0270  0.5975 -1.3415
  127OSM    C1F13626   4.234   6.503   6.611 -0.2513 -0.3665 -0.4030
  127OSM     OF13627   4.167   6.595   6.565 -0.3411 -0.4330  0.0534
  127OSM    C2F13628   4.356   6.531   6.691 -0.0344 -0.7556 -0.2054
  127OSM    H2F13629   4.427   6.578   6.620 -0.6802 -1.1514 -1.1292
  127OSM    H2G13630   4.412   6.438   6.718  2.4412  1.3331  2.5948
  127OSM    C3F13631   4.331   6.615   6.813  0.4520 -0.0007 -0.4390
  127OSM    H3F13632   4.249   6.586   6.882  0.4366  2.0200  0.4499
  127OSM    H3G13633   4.307   6.719   6.782  2.3699  0.2664 -1.1643
  127OSM    C4F13634   4.456   6.628   6.895  0.8422  0.9372 -0.0256
  127OSM    H4F13635   4.434   6.701   6.977 -0.1793 -0.1341  0.6885
  127OSM    H4G13636   4.548   6.667   6.847  0.5057  2.3132  0.3942
  127OSM    C5F13637   4.497   6.489   6.962  0.7029 -0.0252 -0.3267
  127OSM    H5F13638   4.584   6.462   6.899  0.8047  2.0637 -1.1864
  127OSM    H5G13639   4.412   6.418   6.958  0.7186 -0.1109  0.7364
  127OSM    C6F13640   4.527   6.503   7.113 -0.6441  0.1935  0.5109
  127OSM    H6F13641   4.592   6.589   7.142 -0.3015 -0.1474  0.7791
  127OSM    H6G13642   4.582   6.411   7.143 -3.3871 -1.1578  1.7256
  127OSM    C7F13643   4.403   6.490   7.208 -0.2899 -0.2344  0.1337
  127OSM    H7F13644   4.344   6.400   7.181 -0.1787  0.1032 -1.3165
  127OSM    H7G13645   4.356   6.579   7.163 -0.9337  0.0262  1.2717
  127OSM    C8F13646   4.430   6.505   7.360  0.3687 -0.2689 -0.0498
  127OSM    H8F13647   4.485   6.412   7.383  0.1077 -0.5730 -0.6166
  127OSM    H8G13648   4.330   6.500   7.409  0.3537  1.1281  0.1066
  127OSM    C9F13649   4.508   6.620   7.408 -0.3523 -0.0783  0.1728
  127OSM    H9F13650   4.616   6.627   7.388 -0.4586  2.2504  0.1182
  127OSM   C10F13651   4.461   6.716   7.488  0.0552 -0.3248  0.3408
  127OSM   H10F13652   4.531   6.793   7.522  1.1265 -0.6035 -1.1723
  127OSM   C11F13653   4.323   6.742   7.547  0.2955 -0.2113 -0.6956
  127OSM   H11F13654   4.245   6.702   7.480 -0.5712 -0.2130  0.2809
  127OSM   H11G13655   4.299   6.850   7.542  0.4811 -0.1566 -0.4215
  127OSM   C12F13656   4.284   6.688   7.685 -0.7205 -0.7216  0.1866
  127OSM   H12F13657   4.305   6.579   7.688 -2.4974 -1.1440 -1.2781
  127OSM   H12G13658   4.176   6.705   7.705 -0.5079 -0.7287  1.4141
  127OSM   C13F13659   4.375   6.734   7.802  0.4051 -0.5300 -0.9980
  127OSM   H13F13660   4.364   6.842   7.824  1.5427 -0.4995 -0.5324
  127OSM   H13G13661   4.479   6.719   7.767  0.1264 -0.7427 -1.7397
  127OSM   C14F13662   4.354   6.639   7.922  0.4344 -0.3444 -0.0547
  127OSM   H14F13663   4.442   6.571   7.929 -1.7165 -3.2739  1.3015
  127OSM   H14G13664   4.273   6.567   7.898  1.1739 -0.9257 -0.8661
  127OSM   C15F13665   4.337   6.722   8.049 -0.0408  0.2267  0.3405
  127OSM   H15F13666   4.295   6.660   8.131  1.8458  0.6125  1.6689
  127OSM   H15G13667   4.259   6.796   8.023 -0.4632 -0.4339 -0.3063
  127OSM   C16F13668   4.463   6.786   8.098 -0.3252 -0.3352  0.1797
  127OSM   H16F13669   4.497   6.870   8.034  0.8946  0.1142  1.3616
  127OSM   H16G13670   4.556   6.726   8.093 -0.5257 -0.5373 -1.5884
  127OSM   C17F13671   4.447   6.834   8.241 -0.3992  0.3499 -0.6378
  127OSM   H17F13672   4.393   6.749   8.287 -0.4917  0.6328 -0.2131
  127OSM   H17G13673   4.395   6.932   8.248  1.5867  1.4355 -0.3998
  127OSM   C18F13674   4.588   6.859   8.307  0.8540  0.7943  0.2267
  127OSM   H18F13675   4.573   6.847   8.416  0.5592 -2.8399 -0.0701
  127OSM   H18G13676   4.642   6.954   8.285 -0.0457  1.6637  1.6775
  127OSM   H18H13677   4.649   6.773   8.270  2.4511  2.2437 -0.6638
  128OSM      N13678   5.361   3.737   6.175 -0.1183  0.5724  0.1211
  128OSM    C1513679   5.491   3.684   6.118 -0.3742 -0.1076 -0.0138
  128OSM   H15A13680   5.531   3.755   6.048  3.5144 -0.9215  1.1458
  128OSM   H15B13681   5.468   3.593   6.064  0.2584 -0.5304  0.4254
  128OSM   H15C13682   5.559   3.664   6.199  0.1473 -1.6519 -0.7990
  128OSM    C1413683   5.288   3.797   6.065 -0.4334 -0.2426  0.1063
  128OSM   H14A13684   5.343   3.882   6.029 -3.5441  0.7802 -2.7442
  128OSM   H14B13685   5.189   3.828   6.094  0.3169  1.5137  0.9234
  128OSM   H14C13686   5.268   3.746   5.971 -0.3661  2.4326 -1.4483
  128OSM    C1313687   5.287   3.614   6.220 -0.0055 -0.2295 -0.7475
  128OSM   H13A13688   5.255   3.555   6.135 -1.1030 -2.9303  1.3839
  128OSM   H13B13689   5.198   3.650   6.270  0.6265  1.8218 -1.0375
  128OSM   H13C13690   5.338   3.549   6.290 -2.2141  0.0135  1.2338
  128OSM    C1213691   5.388   3.831   6.293  0.1718 -0.7725  0.0894
  128OSM   H12A13692   5.443   3.776   6.367  1.0541 -0.5805 -0.4111
  128OSM   H12B13693   5.298   3.868   6.340  0.7736 -0.0552  0.7153
  128OSM    C1113694   5.467   3.958   6.271 -0.1640  0.2775 -0.2353
  128OSM   H11A13695   5.459   4.026   6.359  1.8203  1.1180 -0.6490
  128OSM   H11B13696   5.423   4.004   6.181  1.2239  1.1357 -0.5216
  128OSM      P13697   5.697   4.006   6.162  0.0011 -0.2065 -0.3623
  128OSM    O1313698   5.786   3.913   6.090 -0.3720 -0.7680  0.4322
  128OSM    O1413699   5.623   4.103   6.076  0.1642 -0.6376 -0.2724
  128OSM    O1113700   5.790   4.082   6.262  0.4400 -0.3694  0.3639
  128OSM    O1213701   5.602   3.927   6.257 -0.5802 -0.4035  0.8426
  128OSM    C1S13702   5.812   4.031   6.392  0.4348 -0.5359  0.3073
  128OSM    H1S13703   5.855   3.929   6.376  0.9589 -0.4412  1.0609
  128OSM    H1T13704   5.721   4.017   6.454 -0.5006  0.2091 -0.8659
  128OSM     NF13705   5.943   4.059   6.591 -0.0922  0.4463 -0.0236
  128OSM    HNF13706   5.903   4.093   6.676 -1.7323 -0.6616 -0.2931
  128OSM    C2S13707   5.911   4.123   6.467 -0.6166  0.2892  0.2953
  128OSM    H2S13708   6.004   4.136   6.408  0.3687 -1.7211  1.3213
  128OSM    C3S13709   5.849   4.264   6.487 -0.1880  0.0441 -0.0246
  128OSM    H3S13710   5.745   4.256   6.524  1.0207 -1.3292  3.4694
  128OSM     O313711   5.837   4.339   6.364  0.2336 -0.0088 -0.1606
  128OSM    HO313712   5.835   4.273   6.294 -0.5164 -0.6836  0.4824
  128OSM    C4S13713   5.927   4.344   6.587  0.3963  0.0529 -0.3209
  128OSM    H4S13714   5.873   4.349   6.683  1.0635 -1.0622  0.1370
  128OSM    C5S13715   6.031   4.428   6.578 -0.2018  0.0081  0.6443
  128OSM    H5S13716   6.077   4.431   6.478 -1.2907  1.8987  0.1492
  128OSM    C6S13717   6.098   4.511   6.685  0.2168  0.0626  0.1123
  128OSM    H6S13718   6.082   4.617   6.657  0.1386 -0.0670 -0.3344
  128OSM    H6T13719   6.208   4.497   6.687  0.6297  2.3872 -1.8708
  128OSM    C7S13720   6.034   4.496   6.825  0.7759 -0.1245  0.2572
  128OSM    H7S13721   6.059   4.398   6.872  1.0763  0.2858  0.9753
  128OSM    H7T13722   5.924   4.491   6.805  1.0126  1.4580 -1.6377
  128OSM    C8S13723   6.061   4.623   6.912  0.9624  0.7179  0.6052
  128OSM    H8S13724   6.007   4.711   6.871 -1.7613 -0.4127  1.5670
  128OSM    H8T13725   6.171   4.641   6.909  1.7213 -3.1914 -2.2466
  128OSM    C9S13726   6.000   4.601   7.053  0.0920 -0.6455  0.5686
  128OSM    H9S13727   6.036   4.507   7.101 -0.7680 -0.9280  0.6789
  128OSM    H9T13728   5.891   4.585   7.040 -0.5648  2.5415  1.2862
  128OSM   C10S13729   6.036   4.715   7.160  0.6714  0.1710 -0.5390
  128OSM   H10S13730   6.001   4.812   7.119  1.3573  0.2909 -0.8661
  128OSM   H10T13731   6.146   4.718   7.176  0.4329 -0.2708  1.5139
  128OSM   C11S13732   5.973   4.701   7.298  0.2324  0.5532  0.4990
  128OSM   H11S13733   5.969   4.596   7.332 -2.0477  0.2338 -0.5549
  128OSM   H11T13734   5.864   4.723   7.284  0.2748  0.7037  0.4036
  128OSM   C12S13735   6.030   4.787   7.403 -0.2955 -0.1407  0.3310
  128OSM   H12S13736   6.033   4.892   7.368  1.0265 -0.1773  0.2838
  128OSM   H12T13737   6.132   4.743   7.410 -1.4479 -2.9187  1.0107
  128OSM   C13S13738   5.956   4.760   7.533 -0.3406  0.5434  0.0606
  128OSM   H13S13739   5.979   4.653   7.556  1.6011  0.8959 -0.0978
  128OSM   H13T13740   5.848   4.774   7.514 -0.5060  0.2856  0.7631
  128OSM   C14S13741   6.006   4.849   7.652 -0.5244 -1.1274  0.4490
  128OSM   H14S13742   5.971   4.951   7.626 -3.7705 -2.6699 -1.9247
  128OSM   H14T13743   6.116   4.835   7.657 -0.3914 -0.1157  0.6142
  128OSM   C15S13744   5.941   4.815   7.791  0.0595 -0.1286  0.2458
  128OSM   H15S13745   5.971   4.713   7.824 -1.2527 -0.1656  1.4578
  128OSM   H15T13746   5.831   4.811   7.778  0.2624  0.1155 -1.9451
  128OSM   C16S13747   5.983   4.904   7.904  0.7052  0.5756 -0.2637
  128OSM   H16S13748   5.975   5.015   7.901  1.1328  0.7051  1.8052
  128OSM   H16T13749   6.091   4.886   7.921  0.2969 -1.4267  0.5412
  128OSM   C17S13750   5.914   4.865   8.037 -0.6810 -0.1809  0.7917
  128OSM   H17S13751   5.941   4.759   8.055 -0.2431 -0.5149 -1.5393
  128OSM   H17T13752   5.803   4.864   8.026 -0.5752 -1.2342 -0.3252
  128OSM   C18S13753   5.950   4.953   8.149 -0.7619  0.2113 -0.1612
  128OSM   H18S13754   5.894   4.929   8.242 -1.0672  0.7644 -0.1975
  128OSM   H18T13755   5.937   5.062   8.130 -1.7063  0.8106  3.2476
  128OSM   H18U13756   6.057   4.945   8.176 -0.8140 -0.1982 -0.0769
  128OSM    C1F13757   6.019   3.952   6.607  0.3383  0.0764  0.8052
  128OSM     OF13758   6.076   3.892   6.516 -0.1136  0.3541  0.2069
  128OSM    C2F13759   6.018   3.900   6.747 -0.2712  0.0427  0.0453
  128OSM    H2F13760   5.914   3.913   6.786 -0.2827  0.1000 -0.0044
  128OSM    H2G13761   6.092   3.961   6.803 -1.2665  0.6771  0.7141
  128OSM    C3F13762   6.073   3.761   6.762 -0.1730  0.2605 -0.0694
  128OSM    H3F13763   6.169   3.749   6.707  0.3380 -0.6119  0.9814
  128OSM    H3G13764   5.995   3.686   6.738 -0.5036 -0.4668  2.8757
  128OSM    C4F13765   6.110   3.714   6.905  0.0759  0.0579  0.3867
  128OSM    H4F13766   6.109   3.603   6.909 -0.0120 -0.0747 -1.7544
  128OSM    H4G13767   6.035   3.733   6.984  1.0657 -0.9136  1.5850
  128OSM    C5F13768   6.240   3.783   6.950  0.6342  0.3873 -0.4480
  128OSM    H5F13769   6.239   3.889   6.918  2.4581  0.4561 -0.4027
  128OSM    H5G13770   6.329   3.742   6.897  0.1043  0.8177 -1.7005
  128OSM    C6F13771   6.258   3.791   7.107 -0.3437  0.4347  1.3353
  128OSM    H6F13772   6.156   3.818   7.144 -0.9963 -0.9233  0.6286
  128OSM    H6G13773   6.330   3.873   7.127 -1.0841  1.3637  0.2652
  128OSM    C7F13774   6.305   3.665   7.174  0.1124  0.1141  0.5048
  128OSM    H7F13775   6.408   3.639   7.141  0.1974  1.2162 -0.1683
  128OSM    H7G13776   6.237   3.581   7.151 -3.5768  2.9918 -0.0030
  128OSM    C8F13777   6.306   3.654   7.327 -0.3431  0.8317 -0.3090
  128OSM    H8F13778   6.340   3.549   7.341 -0.0799  0.7595 -1.3507
  128OSM    H8G13779   6.205   3.669   7.370 -0.6116 -0.1159 -0.5787
  128OSM    C9F13780   6.407   3.753   7.377  0.3892  0.0086  0.2607
  128OSM    H9F13781   6.495   3.754   7.311  0.5394 -0.9961  0.4418
  128OSM   C10F13782   6.401   3.835   7.484  0.3174  0.2078  0.4481
  128OSM   H10F13783   6.486   3.901   7.507  1.0806 -0.5579 -0.1236
  128OSM   C11F13784   6.284   3.839   7.575 -0.2446  0.0691  0.1538
  128OSM   H11F13785   6.327   3.844   7.678  1.6065 -2.6234 -0.3963
  128OSM   H11G13786   6.228   3.743   7.574 -0.8365  0.3548 -2.8488
  128OSM   C12F13787   6.173   3.942   7.545 -0.3899 -0.3479  0.3667
  128OSM   H12F13788   6.116   3.905   7.457  0.0303  3.3667 -1.6955
  128OSM   H12G13789   6.212   4.044   7.522 -2.3977  0.1540 -1.1445
  128OSM   C13F13790   6.078   3.950   7.654  0.3692  0.0732  0.1310
  128OSM   H13F13791   6.066   3.852   7.706 -2.8872  0.5892  0.5907
  128OSM   H13G13792   5.980   3.986   7.614 -1.5506 -1.4405  3.0589
  128OSM   C14F13793   6.117   4.049   7.767 -0.2285  0.0967 -0.5767
  128OSM   H14F13794   6.116   4.156   7.737 -0.3559  1.0894  2.5854
  128OSM   H14G13795   6.216   4.007   7.794  1.0602  1.8383 -2.3154
  128OSM   C15F13796   6.022   4.029   7.888  0.8737  0.7527 -0.0051
  128OSM   H15F13797   6.027   3.925   7.926 -1.7712  1.9761  4.4661
  128OSM   H15G13798   5.914   4.037   7.864  0.6315 -2.5045 -0.4901
  128OSM   C16F13799   6.055   4.111   8.009 -0.2553  0.3676  0.3357
  128OSM   H16F13800   6.055   4.218   7.982  0.3297 -0.4203 -3.2570
  128OSM   H16G13801   6.162   4.094   8.037  0.5045  0.1671 -2.4335
  128OSM   C17F13802   5.965   4.085   8.128  0.0215 -0.0495 -0.3344
  128OSM   H17F13803   5.976   3.980   8.161  0.2262 -0.0645 -0.4501
  128OSM   H17G13804   5.860   4.098   8.094 -0.6524 -1.6679  0.9896
  128OSM   C18F13805   5.991   4.169   8.251  0.3523  0.1215  1.0501
  128OSM   H18F13806   5.979   4.276   8.222 -3.3655 -0.5301 -0.4248
  128OSM   H18G13807   6.084   4.153   8.310  2.9329 -1.2026 -2.9151
  128OSM   H18H13808   5.903   4.156   8.317 -0.4164 -0.7358 -0.1015
  129OSM      N13809   2.530   5.716   6.252 -0.8570  0.5949 -0.1780
  129OSM    C1513810   2.596   5.830   6.323  0.3183  0.9530  0.3600
  129OSM   H15A13811   2.532   5.871   6.400 -0.1061  0.4055  0.3041
  129OSM   H15B13812   2.625   5.906   6.252  1.6396 -1.9546 -2.4623
  129OSM   H15C13813   2.683   5.795   6.377  0.5452  1.1570  0.1263
  129OSM    C1413814   2.391   5.749   6.227  0.2172  0.1105 -0.1848
  129OSM   H14A13815   2.340   5.769   6.321  1.9458  0.2333  0.7743
  129OSM   H14B13816   2.334   5.669   6.182  0.5169  0.7808 -1.7928
  129OSM   H14C13817   2.379   5.837   6.166  2.2360  0.8822  0.4434
  129OSM    C1313818   2.613   5.692   6.126  0.0815 -0.4484  0.2449
  129OSM   H13A13819   2.557   5.656   6.040 -0.3422 -1.2381  0.8354
  129OSM   H13B13820   2.697   5.625   6.140 -0.2001 -0.7843  0.3485
  129OSM   H13C13821   2.655   5.788   6.101 -0.1784 -0.5701 -0.6927
  129OSM    C1213822   2.533   5.591   6.339 -0.2559  0.5710  0.8694
  129OSM   H12A13823   2.474   5.609   6.428  2.2366  2.9596  2.1819
  129OSM   H12B13824   2.630   5.570   6.380 -0.2354  0.1600  0.6121
  129OSM    C1113825   2.493   5.456   6.265 -0.0244 -0.7369  0.2950
  129OSM   H11A13826   2.398   5.464   6.207  0.1039  0.2576  0.2186
  129OSM   H11B13827   2.479   5.400   6.360 -2.6412 -0.1832  0.3211
  129OSM      P13828   2.726   5.358   6.234 -0.3544  0.0486 -0.1336
  129OSM    O1313829   2.723   5.215   6.268 -0.0082 -0.3415 -0.5738
  129OSM    O1413830   2.826   5.396   6.133  0.0767 -0.3441  0.4385
  129OSM    O1113831   2.756   5.427   6.365 -0.1107 -0.1740  0.3802
  129OSM    O1213832   2.586   5.394   6.184 -0.3280  0.3717  0.2625
  129OSM    C1S13833   2.868   5.502   6.410  0.3914 -0.3043 -0.2877
  129OSM    H1S13834   2.850   5.607   6.381  2.3533  0.1139 -0.0840
  129OSM    H1T13835   2.969   5.476   6.372  1.2952 -0.2457  1.9241
  129OSM     NF13836   2.940   5.613   6.616 -0.2852  0.5268  0.4097
  129OSM    HNF13837   3.032   5.591   6.648  0.4163 -0.4666 -2.0556
  129OSM    C2S13838   2.862   5.500   6.563 -0.0500  0.5323 -0.4269
  129OSM    H2S13839   2.758   5.525   6.591  0.1856  0.8522  0.2026
  129OSM    C3S13840   2.902   5.359   6.627 -0.4770  0.0459 -0.1986
  129OSM    H3S13841   3.008   5.337   6.603 -0.7743 -0.0071 -1.5353
  129OSM     O313842   2.814   5.260   6.580  0.1056 -0.0126  0.2400
  129OSM    HO313843   2.764   5.305   6.512 -0.8597 -2.2557 -0.6319
  129OSM    C4S13844   2.884   5.365   6.778 -0.2112 -0.1487 -0.7891
  129OSM    H4S13845   2.786   5.330   6.814  1.0055 -1.9418  0.9791
  129OSM    C5S13846   2.981   5.400   6.872  0.4181 -0.8248  0.4808
  129OSM    H5S13847   3.078   5.439   6.840  0.7202 -1.1418  1.0128
  129OSM    C6S13848   2.968   5.414   7.025  0.1746  0.3072  0.3486
  129OSM    H6S13849   2.883   5.356   7.067 -0.5301  1.0557 -0.0087
  129OSM    H6T13850   2.966   5.524   7.043  0.4431  0.7018 -1.7609
  129OSM    C7S13851   3.104   5.376   7.093  0.5192 -0.4245  0.4206
  129OSM    H7S13852   3.191   5.430   7.049  1.3188 -0.2868  2.1047
  129OSM    H7T13853   3.120   5.266   7.080 -0.1918 -0.2617 -2.6998
  129OSM    C8S13854   3.102   5.409   7.240  0.4681  0.2324  0.1157
  129OSM    H8S13855   3.123   5.518   7.248 -0.6562  0.6104 -1.6358
  129OSM    H8T13856   3.191   5.361   7.287  1.3085 -0.6324 -2.2166
  129OSM    C9S13857   2.983   5.359   7.328 -1.0482  0.3559 -0.3088
  129OSM    H9S13858   2.973   5.250   7.307  0.3829  0.2884 -0.7490
  129OSM    H9T13859   2.883   5.398   7.299 -0.4969  1.7202 -0.4084
  129OSM   C10S13860   3.010   5.370   7.478  0.7851  0.0233  0.9398
  129OSM   H10S13861   3.013   5.478   7.504 -0.0744  1.1219 -2.9300
  129OSM   H10T13862   3.106   5.321   7.507  1.3309  0.2874 -0.3692
  129OSM   C11S13863   2.907   5.300   7.570 -0.1091 -0.2096 -0.3108
  129OSM   H11S13864   2.887   5.205   7.517 -0.0752 -0.5218  0.2297
  129OSM   H11T13865   2.815   5.362   7.573 -0.0130 -0.0972  0.9290
  129OSM   C12S13866   2.960   5.289   7.715  0.7223 -0.4047 -1.0817
  129OSM   H12S13867   3.018   5.380   7.742  1.7682 -2.5264  5.4963
  129OSM   H12T13868   3.027   5.201   7.726 -0.9747 -1.8147 -1.4913
  129OSM   C13S13869   2.843   5.282   7.810  0.1054  0.7216 -0.4578
  129OSM   H13S13870   2.763   5.214   7.774 -0.3129  0.9067  0.1117
  129OSM   H13T13871   2.794   5.382   7.812 -1.5419 -0.0603 -0.2914
  129OSM   C14S13872   2.886   5.245   7.957  0.2345 -0.2922  1.0553
  129OSM   H14S13873   2.961   5.323   7.982 -0.4241  1.6606 -2.4028
  129OSM   H14T13874   2.938   5.148   7.962  1.3224  0.3349  2.5388
  129OSM   C15S13875   2.776   5.250   8.061 -0.2477 -0.9286  0.0268
  129OSM   H15S13876   2.682   5.204   8.022 -0.4605 -0.1525 -0.3979
  129OSM   H15T13877   2.734   5.350   8.086 -1.1810 -1.5228  0.8942
  129OSM   C16S13878   2.804   5.181   8.199  0.3735 -0.7179 -0.3911
  129OSM   H16S13879   2.868   5.254   8.252 -1.5411  1.3460 -0.8051
  129OSM   H16T13880   2.852   5.083   8.176  1.7622  0.1118 -1.1955
  129OSM   C17S13881   2.673   5.168   8.276 -0.1075  0.5645 -0.0824
  129OSM   H17S13882   2.614   5.090   8.224 -2.7185  0.8589  2.2030
  129OSM   H17T13883   2.624   5.268   8.276  1.1980  1.2351 -1.4324
  129OSM   C18S13884   2.693   5.122   8.420 -0.1029  0.6927 -0.0035
  129OSM   H18S13885   2.739   5.020   8.419 -1.4186 -0.0284  2.7255
  129OSM   H18T13886   2.597   5.105   8.473  0.6641 -1.3241  0.8630
  129OSM   H18U13887   2.749   5.206   8.465 -0.8983  2.5678 -2.3183
  129OSM    C1F13888   2.901   5.746   6.602 -1.4740  0.2175 -0.0316
  129OSM     OF13889   2.810   5.779   6.529  0.4661 -0.5858 -0.0999
  129OSM    C2F13890   2.993   5.839   6.669 -0.2573 -0.8768  0.1734
  129OSM    H2F13891   3.070   5.882   6.603 -1.2926  3.0303  1.2824
  129OSM    H2G13892   3.046   5.776   6.744  0.4148 -3.1510 -2.0496
  129OSM    C3F13893   2.924   5.954   6.753  1.1767  0.0160 -0.4734
  129OSM    H3F13894   2.853   6.014   6.692  0.9224  0.4291  0.2239
  129OSM    H3G13895   2.998   6.014   6.810  0.3933 -1.0813  1.8092
  129OSM    C4F13896   2.839   5.884   6.863  0.1723  0.0627 -0.1237
  129OSM    H4F13897   2.892   5.789   6.885  0.5304 -0.5488 -3.2477
  129OSM    H4G13898   2.743   5.853   6.815  0.5289 -0.0222 -0.7864
  129OSM    C5F13899   2.820   5.958   6.998  0.8961 -0.1370  0.2464
  129OSM    H5F13900   2.758   6.048   6.977 -2.0835 -2.0677  0.1449
  129OSM    H5G13901   2.919   5.990   7.037  1.2019 -0.0010 -0.6133
  129OSM    C6F13902   2.744   5.881   7.108 -0.0856 -0.3271  0.0675
  129OSM    H6F13903   2.803   5.787   7.116  0.7217  0.1987  0.4722
  129OSM    H6G13904   2.638   5.865   7.078  0.0030  0.6459 -0.8242
  129OSM    C7F13905   2.746   5.964   7.234  0.0174  0.4573  0.1079
  129OSM    H7F13906   2.658   6.032   7.230  0.3270  0.7942 -1.8100
  129OSM    H7G13907   2.842   6.018   7.246  1.9500 -1.8137 -3.5782
  129OSM    C8F13908   2.703   5.870   7.356 -0.6047  0.1844  0.3755
  129OSM    H8F13909   2.645   5.790   7.304 -0.5551  0.7366 -0.5610
  129OSM    H8G13910   2.635   5.924   7.426  0.0486  1.7269 -0.1276
  129OSM    C9F13911   2.808   5.794   7.434  0.3675  0.5727 -0.2756
  129OSM    H9F13912   2.887   5.748   7.373 -0.3382  1.1989 -1.7112
  129OSM   C10F13913   2.813   5.762   7.561 -0.3808  0.2944 -0.3007
  129OSM   H10F13914   2.896   5.697   7.595 -0.9493 -0.3791 -0.1655
  129OSM   C11F13915   2.713   5.811   7.663  0.2016 -0.1591 -0.0039
  129OSM   H11F13916   2.613   5.768   7.641 -1.2762  2.4703  1.0829
  129OSM   H11G13917   2.704   5.922   7.662 -0.1981 -0.1643 -1.9184
  129OSM   C12F13918   2.753   5.759   7.810  0.2514  0.0524 -0.0248
  129OSM   H12F13919   2.840   5.818   7.846  0.8603 -0.4834 -0.5912
  129OSM   H12G13920   2.783   5.652   7.811 -0.9485 -0.2998  1.6451
  129OSM   C13F13921   2.650   5.778   7.916  0.0953 -0.1678 -0.3396
  129OSM   H13F13922   2.548   5.745   7.886 -0.5689 -0.6238  2.1441
  129OSM   H13G13923   2.637   5.886   7.937 -2.0186 -0.0851 -1.7552
  129OSM   C14F13924   2.683   5.709   8.047 -0.5096  0.0485 -0.3514
  129OSM   H14F13925   2.790   5.724   8.072 -0.7822  0.7057  0.4632
  129OSM   H14G13926   2.677   5.599   8.032  0.6379 -0.2080  0.8912
  129OSM   C15F13927   2.580   5.759   8.153  0.2912  0.1030 -0.1987
  129OSM   H15F13928   2.478   5.764   8.109  0.6503 -0.5395 -1.1350
  129OSM   H15G13929   2.601   5.865   8.178  0.3299 -0.0056  0.2437
  129OSM   C16F13930   2.583   5.674   8.283 -0.6622 -0.9399  0.8063
  129OSM   H16F13931   2.586   5.566   8.259  2.4922 -0.1439 -3.3372
  129OSM   H16G13932   2.487   5.688   8.337 -1.4147  0.9070 -0.8845
  129OSM   C17F13933   2.704   5.692   8.370 -0.2821  0.4355 -0.1862
  129OSM   H17F13934   2.673   5.755   8.456  1.3478 -0.7118  1.3350
  129OSM   H17G13935   2.782   5.740   8.308 -0.1136 -1.1512 -1.2569
  129OSM   C18F13936   2.759   5.569   8.434  0.3246 -0.8998  0.7943
  129OSM   H18F13937   2.684   5.528   8.505  0.4299  0.9997  2.0563
  129OSM   H18G13938   2.847   5.606   8.491  0.8649  0.6718 -0.9518
  129OSM   H18H13939   2.770   5.493   8.354  0.1250 -1.6293  1.4482
  130OSM      N13940   0.673   1.797   6.113  0.4287 -0.1624 -0.3317
  130OSM    C1513941   0.651   1.653   6.075 -0.5180 -0.0983  0.3032
  130OSM   H15A13942   0.720   1.629   5.995 -0.0279 -2.3139  1.3010
  130OSM   H15B13943   0.548   1.644   6.046 -0.8646 -1.5844  1.8672
  130OSM   H15C13944   0.680   1.591   6.159 -1.6625 -1.8960 -0.5946
  130OSM    C1413945   0.823   1.822   6.157 -0.1336  0.0109  0.5120
  130OSM   H14A13946   0.892   1.798   6.077 -0.3419  0.4643  0.1936
  130OSM   H14B13947   0.849   1.767   6.246 -1.8327 -1.1822  0.3066
  130OSM   H14C13948   0.856   1.925   6.164  2.6964 -0.8335  1.0108
  130OSM    C1313949   0.644   1.886   5.998 -0.2539 -0.4329  0.1402
  130OSM   H13A13950   0.721   1.870   5.924 -0.1800  0.2619  0.0602
  130OSM   H13B13951   0.656   1.986   6.037 -1.0461 -0.2525 -0.0640
  130OSM   H13C13952   0.545   1.874   5.956 -0.2655  1.6843 -0.5651
  130OSM    C1213953   0.576   1.830   6.227 -0.5998 -0.0654 -0.5555
  130OSM   H12A13954   0.603   1.770   6.313  0.8007  0.2302 -0.7583
  130OSM   H12B13955   0.473   1.807   6.207 -0.7453 -1.1234  1.1116
  130OSM    C1113956   0.565   1.977   6.274  0.6114 -1.0638 -0.0662
  130OSM   H11A13957   0.668   1.999   6.309  0.2960  0.9929 -0.2809
  130OSM   H11B13958   0.490   1.993   6.354 -2.2046  0.6067 -2.7829
  130OSM      P13959   0.520   2.226   6.193  0.3873 -0.2846  0.6080
  130OSM    O1313960   0.643   2.290   6.145  0.2733  0.2220  0.4742
  130OSM    O1413961   0.393   2.272   6.134 -0.1814  0.3502  0.2178
  130OSM    O1113962   0.515   2.228   6.349 -0.6797  0.2383 -0.4474
  130OSM    O1213963   0.528   2.073   6.168  0.1117  0.8003  0.3344
  130OSM    C1S13964   0.596   2.334   6.418 -0.3800  0.2982  0.0838
  130OSM    H1S13965   0.589   2.439   6.383  2.7085  0.5745  0.0033
  130OSM    H1T13966   0.704   2.306   6.412 -0.5701 -0.1262 -3.2498
  130OSM     NF13967   0.631   2.451   6.626  1.1589  0.1584  0.8997
  130OSM    HNF13968   0.716   2.428   6.672  0.9052  0.2458  1.4322
  130OSM    C2S13969   0.561   2.335   6.567  0.2877  0.5035  0.0987
  130OSM    H2S13970   0.452   2.353   6.581 -0.0343 -0.3059 -1.2242
  130OSM    C3S13971   0.597   2.207   6.637  0.2990  1.0097  0.7091
  130OSM    H3S13972   0.703   2.176   6.629 -0.0042  0.2706 -0.7967
  130OSM     O313973   0.529   2.094   6.570  0.0468 -0.0136  0.0489
  130OSM    HO313974   0.499   2.143   6.493 -0.9914  3.4572  2.4150
  130OSM    C4S13975   0.574   2.212   6.787 -0.0966  0.2873  0.5120
  130OSM    H4S13976   0.671   2.236   6.832  1.4085 -1.6137 -1.5177
  130OSM    C5S13977   0.474   2.173   6.866 -0.3920 -0.0143 -0.5025
  130OSM    H5S13978   0.379   2.138   6.823 -0.7902  1.2214 -0.6850
  130OSM    C6S13979   0.479   2.192   7.019  0.2623  0.7899 -0.0695
  130OSM    H6S13980   0.392   2.145   7.070  1.1664 -1.7487 -0.7169
  130OSM    H6T13981   0.483   2.300   7.044  2.6880  0.5801  0.7174
  130OSM    C7S13982   0.613   2.148   7.081 -0.5373  0.4598 -0.0836
  130OSM    H7S13983   0.689   2.223   7.050  1.6911 -2.1600 -1.3189
  130OSM    H7T13984   0.637   2.046   7.046  0.0463  0.4660  0.2827
  130OSM    C8S13985   0.611   2.121   7.234  0.2864 -0.4112 -0.0081
  130OSM    H8S13986   0.567   2.212   7.281  0.0258  0.1534 -1.3102
  130OSM    H8T13987   0.714   2.099   7.270 -0.2031 -1.6836  0.6826
  130OSM    C9S13988   0.535   1.993   7.273 -0.0091 -0.5401  0.2491
  130OSM    H9S13989   0.554   1.913   7.199  0.3181  0.6252 -0.9698
  130OSM    H9T13990   0.424   2.000   7.270 -0.0617  0.2040  2.1513
  130OSM   C10S13991   0.568   1.940   7.408  0.0511 -0.3421 -0.0151
  130OSM   H10S13992   0.573   2.024   7.480  0.3882 -1.4676  1.3180
  130OSM   H10T13993   0.665   1.887   7.415  1.3057  2.0889  2.6016
  130OSM   C11S13994   0.470   1.848   7.473  0.0007 -0.1839 -0.1920
  130OSM   H11S13995   0.436   1.758   7.418  0.2620 -0.3483 -0.0847
  130OSM   H11T13996   0.377   1.908   7.480  0.2212  0.2246 -0.6625
  130OSM   C12S13997   0.500   1.814   7.620 -0.0276 -0.6441  0.6870
  130OSM   H12S13998   0.510   1.905   7.683 -0.7767 -0.5049  0.6076
  130OSM   H12T13999   0.595   1.757   7.614  0.3413  0.1067 -2.1360
  130OSM   C13S14000   0.398   1.732   7.686  1.2832  0.6783 -0.0991
  130OSM   H13S14001   0.372   1.640   7.629  2.2410  1.5449 -2.0155
  130OSM   H13T14002   0.299   1.783   7.690  0.8739  0.0370  5.0936
  130OSM   C14S14003   0.432   1.709   7.838 -0.5991  0.6181  0.8134
  130OSM   H14S14004   0.435   1.813   7.875  2.7218  1.6157 -1.6939
  130OSM   H14T14005   0.532   1.663   7.858  1.4755  4.0494 -0.7357
  130OSM   C15S14006   0.331   1.626   7.929 -0.1286 -0.2353 -0.6948
  130OSM   H15S14007   0.322   1.520   7.895  1.0198 -0.8289  0.7198
  130OSM   H15T14008   0.231   1.675   7.928 -0.3080 -0.4801  1.2112
  130OSM   C16S14009   0.369   1.628   8.079 -0.2663 -0.0712  0.0946
  130OSM   H16S14010   0.405   1.726   8.117  0.2444 -1.0805  2.4632
  130OSM   H16T14011   0.453   1.560   8.107 -0.1362 -1.5942 -3.4641
  130OSM   C17S14012   0.252   1.594   8.172 -0.0765 -0.1971 -0.3458
  130OSM   H17S14013   0.193   1.513   8.125 -2.2154  0.4566  1.0524
  130OSM   H17T14014   0.180   1.678   8.162 -1.5679 -1.4304 -0.2509
  130OSM   C18S14015   0.287   1.571   8.315  0.6511 -0.2283 -0.1212
  130OSM   H18S14016   0.333   1.660   8.364  0.3138 -0.2633  0.2649
  130OSM   H18T14017   0.362   1.489   8.322  0.3849 -0.3947  1.1124
  130OSM   H18U14018   0.195   1.532   8.364 -0.3285  2.1816  0.1043
  130OSM    C1F14019   0.598   2.582   6.597  0.0216 -0.1884 -0.4462
  130OSM     OF14020   0.504   2.612   6.526 -0.7543  0.1113 -0.0667
  130OSM    C2F14021   0.682   2.683   6.671  0.1548  0.1939 -0.2859
  130OSM    H2F14022   0.761   2.717   6.601  0.3421 -0.1124 -0.2241
  130OSM    H2G14023   0.739   2.639   6.756  0.0666 -0.2322 -0.4509
  130OSM    C3F14024   0.601   2.796   6.724 -0.1031 -0.1668  0.6313
  130OSM    H3F14025   0.564   2.850   6.634  1.9491  1.4853  0.6917
  130OSM    H3G14026   0.664   2.866   6.783 -0.6155  1.2396 -0.4171
  130OSM    C4F14027   0.496   2.752   6.822 -0.0831 -0.2450  0.1079
  130OSM    H4F14028   0.428   2.682   6.770  1.4635 -1.7062 -0.0128
  130OSM    H4G14029   0.438   2.835   6.867  1.7595  0.1099  1.9740
  130OSM    C5F14030   0.549   2.669   6.943  0.4130  0.5483  0.1167
  130OSM    H5F14031   0.629   2.725   6.995  0.4932  1.0816 -0.5610
  130OSM    H5G14032   0.582   2.571   6.902 -1.6532  0.0683 -0.5500
  130OSM    C6F14033   0.446   2.639   7.055 -0.2450 -0.2968  0.4766
  130OSM    H6F14034   0.372   2.567   7.014 -0.7333  1.2063 -1.4458
  130OSM    H6G14035   0.396   2.738   7.066  2.0643  1.2368 -1.6843
  130OSM    C7F14036   0.494   2.598   7.191 -0.0175  0.3051 -0.3878
  130OSM    H7F14037   0.534   2.687   7.244 -0.3846  0.0766  0.2902
  130OSM    H7G14038   0.579   2.526   7.191  0.5225  0.9330 -0.4179
  130OSM    C8F14039   0.384   2.526   7.281 -0.0891  0.4443  0.6772
  130OSM    H8F14040   0.330   2.450   7.220  0.7700  0.2077  0.2022
  130OSM    H8G14041   0.298   2.595   7.298 -1.8055 -1.4175 -0.0495
  130OSM    C9F14042   0.431   2.463   7.409  0.2353  0.4272 -0.8055
  130OSM    H9F14043   0.490   2.372   7.396 -1.2396 -0.3480 -2.6446
  130OSM   C10F14044   0.409   2.514   7.534  0.2709  0.8844  0.0440
  130OSM   H10F14045   0.441   2.463   7.626  0.4182 -0.4885 -0.7375
  130OSM   C11F14046   0.323   2.635   7.562  0.7774  0.0597 -0.5800
  130OSM   H11F14047   0.220   2.604   7.590  0.9706  0.2578  0.4084
  130OSM   H11G14048   0.309   2.704   7.476  0.4166  0.3227 -0.3152
  130OSM   C12F14049   0.369   2.731   7.682 -0.1242  0.4065  0.2372
  130OSM   H12F14050   0.323   2.831   7.663  1.3319  0.9275 -0.7498
  130OSM   H12G14051   0.475   2.753   7.657 -0.7457  1.2967 -1.8988
  130OSM   C13F14052   0.354   2.688   7.831 -0.1236 -0.8412  0.6257
  130OSM   H13F14053   0.429   2.606   7.845 -0.0121 -0.7772  0.4068
  130OSM   H13G14054   0.257   2.639   7.852  0.6767 -2.9442 -0.2667
  130OSM   C14F14055   0.390   2.805   7.932 -0.4163  0.0083  0.1373
  130OSM   H14F14056   0.307   2.879   7.934 -0.5362 -0.1196  2.1828
  130OSM   H14G14057   0.490   2.835   7.893 -1.5987 -0.0178 -3.3123
  130OSM   C15F14058   0.426   2.758   8.075 -0.7745  0.3618  0.2851
  130OSM   H15F14059   0.491   2.839   8.113 -0.9496  0.6877 -0.0976
  130OSM   H15G14060   0.475   2.659   8.086 -1.4612  0.2277  2.5013
  130OSM   C16F14061   0.309   2.757   8.175 -0.0810 -0.1840  0.1967
  130OSM   H16F14062   0.240   2.672   8.158 -0.6840  0.2417  0.4788
  130OSM   H16G14063   0.248   2.849   8.163 -2.3996 -1.3597  2.1456
  130OSM   C17F14064   0.360   2.746   8.315 -0.0344 -0.0310 -0.3985
  130OSM   H17F14065   0.293   2.803   8.382  1.0611  0.1835  0.5596
  130OSM   H17G14066   0.460   2.793   8.332  0.2776 -0.7030 -0.3190
  130OSM   C18F14067   0.368   2.604   8.376 -0.2472 -0.2125 -0.1898
  130OSM   H18F14068   0.266   2.559   8.376 -0.7991  0.9884  0.9879
  130OSM   H18G14069   0.417   2.630   8.473  1.4893 -0.2084 -1.0344
  130OSM   H18H14070   0.437   2.532   8.327 -0.1014 -0.7772  0.8174
  131OSM      N14071   0.721   3.117   5.756  0.3676  0.4680  0.6971
  131OSM    C1514072   0.663   2.978   5.736  0.4675 -0.8944  0.3212
  131OSM   H15A14073   0.738   2.910   5.697 -1.6370 -3.5800  0.6608
  131OSM   H15B14074   0.585   2.976   5.661  1.6065 -1.5728 -0.8993
  131OSM   H15C14075   0.627   2.946   5.832 -1.4598 -0.8770 -0.3564
  131OSM    C1414076   0.804   3.148   5.638 -0.2979 -0.1174  1.1768
  131OSM   H14A14077   0.873   3.230   5.648 -0.8418  0.8648 -1.9268
  131OSM   H14B14078   0.755   3.164   5.543 -0.5468 -3.2503  0.6836
  131OSM   H14C14079   0.861   3.059   5.616 -0.7077 -0.0602 -0.1786
  131OSM    C1314080   0.621   3.226   5.769 -0.2411  0.0312 -0.1009
  131OSM   H13A14081   0.535   3.200   5.830  0.5776  1.2417  1.6497
  131OSM   H13B14082   0.598   3.274   5.676  2.8986 -1.6257 -1.8761
  131OSM   H13C14083   0.663   3.300   5.835  0.9120 -2.6381  2.4475
  131OSM    C1214084   0.812   3.108   5.878  0.1576  0.4654 -0.1554
  131OSM   H12A14085   0.874   3.196   5.874 -1.4122  1.6205 -0.3387
  131OSM   H12B14086   0.873   3.019   5.876 -1.7391 -0.9306  0.4236
  131OSM    C1114087   0.739   3.113   6.018  0.2202 -0.0659  0.1281
  131OSM   H11A14088   0.818   3.081   6.089  1.5994 -0.3835 -1.4637
  131OSM   H11B14089   0.651   3.045   6.018  0.5133 -0.4574  0.9039
  131OSM      P14090   0.801   3.364   6.087 -0.2527 -0.0939  0.2151
  131OSM    O1314091   0.923   3.367   6.002  0.2658 -0.0704 -0.0301
  131OSM    O1414092   0.727   3.494   6.108 -0.1671 -0.5206  0.4509
  131OSM    O1114093   0.843   3.306   6.234  0.3872  0.1591  0.0024
  131OSM    O1214094   0.700   3.250   6.032 -0.2982  0.1543 -0.6827
  131OSM    C1S14095   0.736   3.297   6.323 -0.1022  0.8674  0.1094
  131OSM    H1S14096   0.693   3.196   6.304 -0.9723  1.3223 -0.3868
  131OSM    H1T14097   0.652   3.367   6.304 -2.1254 -1.3457  0.4492
  131OSM     NF14098   0.659   3.335   6.560  0.7395  0.3290  0.3304
  131OSM    HNF14099   0.617   3.422   6.585 -0.5015 -0.2173  0.2438
  131OSM    C2S14100   0.781   3.322   6.479 -0.6219 -0.3009 -0.0285
  131OSM    H2S14101   0.836   3.231   6.509  0.3893  0.2491 -0.1664
  131OSM    C3S14102   0.872   3.439   6.498 -0.2163  0.1254 -0.5019
  131OSM    H3S14103   0.815   3.533   6.483 -1.2439 -0.6659 -1.7211
  131OSM     O314104   0.989   3.431   6.419  0.1320  0.0132 -0.4962
  131OSM    HO314105   0.957   3.369   6.354 -1.9912 -1.8043  2.0765
  131OSM    C4S14106   0.916   3.447   6.655 -0.2856 -0.0913 -0.4590
  131OSM    H4S14107   0.840   3.502   6.713 -0.6236  0.4446 -1.3816
  131OSM    C5S14108   1.033   3.400   6.709 -0.2149 -1.0017  0.1820
  131OSM    H5S14109   1.103   3.346   6.644 -1.0790 -0.4802 -1.2081
  131OSM    C6S14110   1.088   3.411   6.850 -0.0149 -0.6187 -0.5725
  131OSM    H6S14111   1.153   3.501   6.858 -2.9561  1.5779  0.3988
  131OSM    H6T14112   1.149   3.319   6.867  2.1141  0.7178 -0.6447
  131OSM    C7S14113   0.986   3.427   6.962 -0.0861  0.0859  0.9062
  131OSM    H7S14114   0.904   3.352   6.966  0.0281 -0.2850 -1.9264
  131OSM    H7T14115   0.929   3.521   6.951  1.3133  1.0080  1.2646
  131OSM    C8S14116   1.052   3.444   7.107  0.2422  0.4968  0.0935
  131OSM    H8S14117   1.117   3.533   7.120  0.0101  0.4913  1.4297
  131OSM    H8T14118   1.117   3.354   7.114 -0.3994 -0.2468 -2.3935
  131OSM    C9S14119   0.938   3.456   7.210 -0.1654 -0.1772 -0.3679
  131OSM    H9S14120   0.861   3.389   7.167 -1.1713  2.8457 -3.7038
  131OSM    H9T14121   0.893   3.558   7.203 -0.6398 -0.3138  0.5109
  131OSM   C10S14122   0.979   3.426   7.352 -0.5496  1.0627 -1.2956
  131OSM   H10S14123   1.050   3.501   7.395  0.8382 -2.7105  3.9754
  131OSM   H10T14124   1.036   3.333   7.368 -2.6414 -0.0332  0.2146
  131OSM   C11S14125   0.858   3.425   7.451 -0.4152  0.4821 -0.3201
  131OSM   H11S14126   0.802   3.330   7.436  1.1683 -0.8419  1.5869
  131OSM   H11T14127   0.787   3.506   7.426 -0.1868  0.7607 -0.0827
  131OSM   C12S14128   0.897   3.430   7.595  0.7627 -0.1290 -0.4341
  131OSM   H12S14129   0.943   3.526   7.628 -1.1860  1.1361 -1.1770
  131OSM   H12T14130   0.958   3.338   7.606 -0.5307 -1.1591 -1.5269
  131OSM   C13S14131   0.767   3.421   7.672 -0.4001  0.2893 -0.1354
  131OSM   H13S14132   0.717   3.326   7.645 -0.8809  0.0293  1.5273
  131OSM   H13T14133   0.696   3.505   7.655 -0.2122  0.7486  1.1747
  131OSM   C14S14134   0.780   3.417   7.826 -0.0594 -0.0818  0.5536
  131OSM   H14S14135   0.787   3.521   7.864 -0.0553  0.2203 -0.2505
  131OSM   H14T14136   0.873   3.357   7.838  0.7411  0.8893 -0.5512
  131OSM   C15S14137   0.655   3.344   7.883 -0.6271  0.2798 -0.5040
  131OSM   H15S14138   0.613   3.262   7.820 -1.6224  1.4103 -1.3553
  131OSM   H15T14139   0.578   3.422   7.898  1.6251  2.7691 -1.0352
  131OSM   C16S14140   0.677   3.268   8.013  0.4684 -0.2066 -0.5432
  131OSM   H16S14141   0.725   3.345   8.077  0.7153 -0.3820 -0.5142
  131OSM   H16T14142   0.753   3.189   7.992 -0.7611 -1.3933 -0.6611
  131OSM   C17S14143   0.550   3.210   8.065 -0.7913  0.2092 -0.1615
  131OSM   H17S14144   0.497   3.173   7.975  0.6603  0.3614 -1.1113
  131OSM   H17T14145   0.498   3.297   8.111 -2.5349 -0.3744 -0.9436
  131OSM   C18S14146   0.583   3.096   8.162  0.1622 -0.3041 -0.3129
  131OSM   H18S14147   0.659   3.024   8.127 -1.5003 -2.4982  0.3762
  131OSM   H18T14148   0.487   3.048   8.191 -0.3340 -0.5454 -2.2529
  131OSM   H18U14149   0.626   3.141   8.254  1.2024  0.2004 -1.0255
  131OSM    C1F14150   0.585   3.229   6.604  0.0978 -0.0941  0.3268
  131OSM     OF14151   0.620   3.113   6.589  0.3206  0.4576  0.6245
  131OSM    C2F14152   0.458   3.255   6.677 -0.0546 -0.4391 -0.5460
  131OSM    H2F14153   0.403   3.162   6.699  0.6702 -0.7989 -0.2250
  131OSM    H2G14154   0.386   3.310   6.612 -1.0454 -1.2607 -0.1637
  131OSM    C3F14155   0.475   3.341   6.800  0.6160  0.0478 -0.1345
  131OSM    H3F14156   0.376   3.359   6.846 -0.1991  1.1721 -2.1832
  131OSM    H3G14157   0.504   3.443   6.768 -1.8067  1.0787  0.7252
  131OSM    C4F14158   0.583   3.288   6.899 -0.1276 -0.2652  0.4348
  131OSM    H4F14159   0.588   3.355   6.988 -2.3437  1.1541 -0.4234
  131OSM    H4G14160   0.673   3.305   6.837 -2.5561  2.1903 -2.8033
  131OSM    C5F14161   0.578   3.140   6.945  0.4205  0.0076 -0.1421
  131OSM    H5F14162   0.678   3.109   6.983  0.9957  1.7243 -0.1682
  131OSM    H5G14163   0.553   3.073   6.860 -0.7944 -1.8075  1.5496
  131OSM    C6F14164   0.475   3.101   7.048  0.0060 -0.5013 -0.1690
  131OSM    H6F14165   0.434   3.000   7.028 -2.3297  0.4524 -0.6849
  131OSM    H6G14166   0.377   3.152   7.034 -0.3169 -0.6812  1.3477
  131OSM    C7F14167   0.515   3.109   7.191  0.0238  0.2499  0.0317
  131OSM    H7F14168   0.548   3.213   7.208  1.5187  0.0601 -1.3463
  131OSM    H7G14169   0.598   3.035   7.203 -0.8772 -1.1738 -1.8352
  131OSM    C8F14170   0.404   3.091   7.294  0.3455  0.5259 -0.4120
  131OSM    H8F14171   0.334   3.014   7.255 -1.9048  1.8523  0.7708
  131OSM    H8G14172   0.343   3.183   7.291 -1.8485 -0.8566 -0.4353
  131OSM    C9F14173   0.459   3.069   7.435  0.7216 -0.3576 -0.4771
  131OSM    H9F14174   0.498   2.970   7.465 -1.4643 -0.3420  2.9842
  131OSM   C10F14175   0.453   3.151   7.540 -1.2655  0.1316  1.2111
  131OSM   H10F14176   0.497   3.128   7.638 -0.3779  2.0600  1.3104
  131OSM   C11F14177   0.406   3.293   7.532  0.3838  0.3574 -0.5644
  131OSM   H11F14178   0.389   3.330   7.428  2.8843  2.1587 -0.4341
  131OSM   H11G14179   0.482   3.360   7.577 -1.0540  0.6330  1.6280
  131OSM   C12F14180   0.283   3.327   7.619  0.1332  0.5978 -0.1018
  131OSM   H12F14181   0.198   3.281   7.565  0.7451 -1.8275  0.8605
  131OSM   H12G14182   0.269   3.437   7.629 -1.9818  0.2673  1.1460
  131OSM   C13F14183   0.295   3.268   7.756  0.3514 -0.0512  0.0521
  131OSM   H13F14184   0.379   3.308   7.816 -0.1365  0.4260  0.4291
  131OSM   H13G14185   0.296   3.158   7.742  0.0092 -0.0178 -0.2653
  131OSM   C14F14186   0.167   3.309   7.842 -0.4157 -0.2118  0.3103
  131OSM   H14F14187   0.082   3.261   7.789  0.9235 -1.9619 -0.3096
  131OSM   H14G14188   0.165   3.420   7.848 -0.2563 -0.1539 -0.5945
  131OSM   C15F14189   0.175   3.242   7.988 -0.0990  0.1719  0.7007
  131OSM   H15F14190   0.280   3.259   8.019  0.0845 -0.8381  0.6735
  131OSM   H15G14191   0.154   3.135   7.964 -1.4997  0.4907  0.4251
  131OSM   C16F14192   0.085   3.295   8.098  0.7819 -0.3899 -0.6421
  131OSM   H16F14193  -0.024   3.277   8.084  0.0237  2.5866  0.6091
  131OSM   H16G14194   0.102   3.405   8.102  0.9054 -0.4459  0.4869
  131OSM   C17F14195   0.128   3.246   8.237 -0.3420 -0.0947  0.5185
  131OSM   H17F14196   0.229   3.292   8.251 -0.1393 -0.5697  0.6670
  131OSM   H17G14197   0.140   3.136   8.229  2.1654  0.1687 -0.2710
  131OSM   C18F14198   0.048   3.291   8.358 -0.1097 -0.0977  0.5571
  131OSM   H18F14199   0.094   3.380   8.407  1.8965 -0.7519 -0.0529
  131OSM   H18G14200   0.044   3.208   8.431  0.2015 -0.9280 -0.3470
  131OSM   H18H14201  -0.053   3.308   8.314  1.5819 -0.0040 -3.8431
  132OSM      N14202   1.057   3.705   6.066  0.1253 -0.8436  0.0268
  132OSM    C1514203   1.139   3.591   6.120 -0.0231 -0.5034 -1.1584
  132OSM   H15A14204   1.233   3.593   6.068 -0.1175  1.5977 -1.3546
  132OSM   H15B14205   1.076   3.504   6.115 -0.6948 -0.1819  0.8808
  132OSM   H15C14206   1.155   3.605   6.226  0.4526  3.5095 -1.5713
  132OSM    C1414207   1.145   3.830   6.065  0.0841  0.2968 -0.3612
  132OSM   H14A14208   1.181   3.853   6.165  1.2697 -1.0813 -0.4362
  132OSM   H14B14209   1.095   3.918   6.027  2.6973  1.7160 -0.7659
  132OSM   H14C14210   1.227   3.809   5.998  0.4826 -0.1388  0.2526
  132OSM    C1314211   1.017   3.675   5.925  0.1847 -1.0836  0.3485
  132OSM   H13A14212   1.004   3.761   5.860 -0.2591 -2.5578 -1.6058
  132OSM   H13B14213   0.937   3.603   5.918 -1.7586  0.6189  2.9090
  132OSM   H13C14214   1.104   3.627   5.882  0.9822 -1.4493  2.2778
  132OSM    C1214215   0.929   3.727   6.137  0.5110 -0.3857 -0.2978
  132OSM   H12A14216   0.878   3.632   6.145  1.7356 -1.0481 -0.0932
  132OSM   H12B14217   0.866   3.785   6.071 -0.3134 -2.7983 -1.7737
  132OSM    C1114218   0.934   3.792   6.278 -0.2458  0.6141  0.2579
  132OSM   H11A14219   1.032   3.775   6.328 -0.0525  0.6194 -0.1134
  132OSM   H11B14220   0.853   3.746   6.338 -2.7959  0.9164 -2.6761
  132OSM      P14221   0.778   3.995   6.226 -0.0684  0.4394  0.2275
  132OSM    O1314222   0.815   4.124   6.158  0.2210 -0.1555 -0.6537
  132OSM    O1414223   0.706   3.891   6.147  0.2286 -0.3488  0.0076
  132OSM    O1114224   0.697   4.031   6.348  0.1330  0.2042 -0.0620
  132OSM    O1214225   0.919   3.934   6.271 -0.2530  0.0255  0.4023
  132OSM    C1S14226   0.757   4.059   6.479  0.4649 -0.1453 -0.3032
  132OSM    H1S14227   0.866   4.037   6.479 -0.0929 -3.3811  0.5798
  132OSM    H1T14228   0.723   3.987   6.557  5.0214 -1.6425  0.6008
  132OSM     NF14229   0.780   4.220   6.662 -0.6191 -0.4259 -0.0516
  132OSM    HNF14230   0.709   4.227   6.731  0.3575  0.7284  0.8747
  132OSM    C2S14231   0.741   4.210   6.520 -0.1732 -0.0823  0.7265
  132OSM    H2S14232   0.817   4.259   6.456  0.0717 -2.7287 -1.1410
  132OSM    C3S14233   0.596   4.262   6.487  0.1379  0.0173 -0.7174
  132OSM    H3S14234   0.526   4.186   6.528 -2.7188  2.5626 -0.4249
  132OSM     O314235   0.558   4.268   6.351 -0.1832 -0.1596  0.2039
  132OSM    HO314236   0.627   4.215   6.310  0.2850  0.9004 -0.4149
  132OSM    C4S14237   0.575   4.388   6.576  0.3096 -0.0961 -0.4888
  132OSM    H4S14238   0.509   4.366   6.661  0.4163 -1.8886 -0.8331
  132OSM    C5S14239   0.615   4.514   6.550 -0.0082 -0.2656 -0.0740
  132OSM    H5S14240   0.680   4.535   6.463 -2.2869 -0.1041 -1.8216
  132OSM    C6S14241   0.574   4.628   6.639 -0.3154  0.1771 -0.2048
  132OSM    H6S14242   0.504   4.698   6.588 -1.9362  0.2023  1.9253
  132OSM    H6T14243   0.660   4.690   6.671 -2.0810  2.0698  1.1358
  132OSM    C7S14244   0.508   4.613   6.776  0.1792 -0.7501  0.5967
  132OSM    H7S14245   0.583   4.543   6.819  2.4803  0.4203 -1.2763
  132OSM    H7T14246   0.407   4.568   6.772  0.2604 -1.0204  1.4339
  132OSM    C8S14247   0.484   4.736   6.863 -0.7433  0.2625  0.2953
  132OSM    H8S14248   0.408   4.802   6.816 -0.5766 -0.8982 -1.7584
  132OSM    H8T14249   0.578   4.795   6.861  0.2483 -1.2466  0.1715
  132OSM    C9S14250   0.440   4.699   7.000  0.2252 -0.0031 -0.2545
  132OSM    H9S14251   0.492   4.604   7.026 -2.1658 -2.3726 -3.2849
  132OSM    H9T14252   0.332   4.675   6.994  0.0754  0.1013  1.5688
  132OSM   C10S14253   0.472   4.793   7.115 -0.1877 -0.5549 -0.1097
  132OSM   H10S14254   0.422   4.890   7.093 -2.0433 -1.3705  0.3135
  132OSM   H10T14255   0.579   4.822   7.123 -0.8424  1.5329  2.3642
  132OSM   C11S14256   0.406   4.746   7.250 -0.1289  0.5152  0.3871
  132OSM   H11S14257   0.471   4.664   7.289  0.4994  1.3428  1.1244
  132OSM   H11T14258   0.302   4.710   7.241  0.2844 -0.2662 -1.9367
  132OSM   C12S14259   0.413   4.859   7.353  0.3453 -0.3444 -0.0438
  132OSM   H12S14260   0.343   4.944   7.339  1.0037  0.2603  0.2579
  132OSM   H12T14261   0.511   4.905   7.327  0.2276  0.9447  1.6437
  132OSM   C13S14262   0.414   4.822   7.503 -0.3732  0.0843  0.1126
  132OSM   H13S14263   0.481   4.735   7.517  0.7479  0.3678 -2.8170
  132OSM   H13T14264   0.311   4.782   7.519 -0.6107  0.0970 -1.2022
  132OSM   C14S14265   0.445   4.929   7.602 -0.0616 -0.1285  0.3792
  132OSM   H14S14266   0.391   5.026   7.590 -0.6843  0.0695  3.7724
  132OSM   H14T14267   0.555   4.947   7.601 -0.4518  2.7038  0.0404
  132OSM   C15S14268   0.387   4.880   7.735  0.4538 -0.5584  0.5710
  132OSM   H15S14269   0.451   4.794   7.766 -0.0189 -1.3508 -0.5782
  132OSM   H15T14270   0.282   4.850   7.718  0.1640 -0.3681  1.9642
  132OSM   C16S14271   0.407   4.978   7.848  0.0258  1.0226 -0.5733
  132OSM   H16S14272   0.339   5.064   7.837  0.2332  1.4438  1.1527
  132OSM   H16T14273   0.508   5.021   7.834  1.4040 -1.7004  0.1859
  132OSM   C17S14274   0.383   4.919   7.988  0.1837  0.1530  0.4224
  132OSM   H17S14275   0.467   4.855   8.023  0.0168  0.3786  1.2717
  132OSM   H17T14276   0.296   4.852   7.977 -0.2467  0.9005 -0.9308
  132OSM   C18S14277   0.364   5.024   8.097  0.3327  0.3814 -0.0618
  132OSM   H18S14278   0.319   4.971   8.183  0.8459  1.6886  1.0448
  132OSM   H18T14279   0.298   5.107   8.064 -1.0842  0.1670  2.0871
  132OSM   H18U14280   0.462   5.067   8.128  1.2448  0.1959 -2.4221
  132OSM    C1F14281   0.903   4.202   6.701 -0.7443  0.0677 -0.8286
  132OSM     OF14282   0.992   4.168   6.620  0.5078 -0.1093 -0.7356
  132OSM    C2F14283   0.923   4.212   6.843 -0.5628  0.4880 -0.0256
  132OSM    H2F14284   0.886   4.111   6.872 -2.2879  0.9288 -0.5219
  132OSM    H2G14285   0.856   4.286   6.893  0.1253  0.9010  0.2965
  132OSM    C3F14286   1.071   4.225   6.888 -0.0353 -0.0855  0.7893
  132OSM    H3F14287   1.114   4.322   6.856  0.9423 -0.2163  1.6336
  132OSM    H3G14288   1.126   4.143   6.837 -0.0651  1.0121 -1.0654
  132OSM    C4F14289   1.093   4.218   7.037 -0.1628 -0.3144  0.2535
  132OSM    H4F14290   1.062   4.118   7.072 -0.9759 -0.6347 -1.2893
  132OSM    H4G14291   1.025   4.291   7.086 -1.3289 -1.6199  0.6470
  132OSM    C5F14292   1.237   4.249   7.090  0.8035 -0.2039  0.1434
  132OSM    H5F14293   1.282   4.321   7.019 -0.2454 -2.4222 -2.9569
  132OSM    H5G14294   1.299   4.158   7.075 -1.1363 -1.8215  1.4903
  132OSM    C6F14295   1.235   4.294   7.238  0.1992  0.2296  0.2455
  132OSM    H6F14296   1.155   4.240   7.293 -0.1292  0.7517  0.2878
  132OSM    H6G14297   1.194   4.397   7.245  0.3241  0.1557  2.6744
  132OSM    C7F14298   1.369   4.289   7.310 -0.2531  0.3454 -0.4815
  132OSM    H7F14299   1.445   4.364   7.277 -0.0887  0.3821 -0.0261
  132OSM    H7G14300   1.419   4.193   7.285 -0.9673 -0.3198  0.5802
  132OSM    C8F14301   1.342   4.296   7.468  0.2484 -0.3791  0.5150
  132OSM    H8F14302   1.440   4.268   7.511  1.8121  1.4286 -1.5925
  132OSM    H8G14303   1.272   4.211   7.482  1.8059 -2.2856 -2.2345
  132OSM    C9F14304   1.292   4.432   7.514  0.0966 -0.3786 -0.3788
  132OSM    H9F14305   1.359   4.519   7.499 -0.2544  0.5645  2.7696
  132OSM   C10F14306   1.173   4.467   7.564  0.5234  0.3267 -0.1973
  132OSM   H10F14307   1.147   4.564   7.607  1.7203  1.1543 -1.2826
  132OSM   C11F14308   1.068   4.365   7.591 -0.1019 -0.3811 -0.2117
  132OSM   H11F14309   1.065   4.300   7.502 -1.3221  1.0612 -1.2708
  132OSM   H11G14310   0.974   4.424   7.592  1.3107  2.0202 -0.8672
  132OSM   C12F14311   1.081   4.281   7.719  0.4871 -0.3213  0.3691
  132OSM   H12F14312   1.174   4.222   7.735  0.9625  0.2373 -0.2882
  132OSM   H12G14313   0.997   4.208   7.726 -0.7269  0.7317 -2.1133
  132OSM   C13F14314   1.073   4.362   7.853  0.2969 -0.2763 -0.3869
  132OSM   H13F14315   1.002   4.447   7.855 -0.6213 -1.0352  1.0436
  132OSM   H13G14316   1.173   4.394   7.888 -0.4767  0.2131  1.4940
  132OSM   C14F14317   1.032   4.264   7.963  0.4994 -0.5103 -0.5216
  132OSM   H14F14318   1.063   4.158   7.960 -0.7592 -0.8753 -2.9881
  132OSM   H14G14319   0.923   4.241   7.960  0.0271  1.3243  0.7137
  132OSM   C15F14320   1.060   4.315   8.110  1.1654  0.6762 -0.0155
  132OSM   H15F14321   1.022   4.419   8.117  0.1474  0.3118  0.0758
  132OSM   H15G14322   1.170   4.313   8.125  1.3358  1.3368 -1.0537
  132OSM   C16F14323   0.983   4.230   8.217 -0.4326 -0.5151  0.0679
  132OSM   H16F14324   1.029   4.129   8.214 -1.3620 -1.0370  2.0372
  132OSM   H16G14325   0.878   4.221   8.183 -0.8594 -0.5420  1.3572
  132OSM   C17F14326   0.990   4.282   8.355  0.2586 -0.2397 -0.9117
  132OSM   H17F14327   0.938   4.379   8.370 -1.5799 -1.4015  0.7653
  132OSM   H17G14328   1.098   4.303   8.369  0.0140 -0.2246  1.3614
  132OSM   C18F14329   0.934   4.179   8.453  1.0766  0.1263 -0.1521
  132OSM   H18F14330   0.931   4.210   8.559 -0.5056  3.7460 -1.1093
  132OSM   H18G14331   0.975   4.076   8.441  0.8281 -0.1795  1.4083
  132OSM   H18H14332   0.829   4.157   8.424  0.5685 -0.6039  2.0892
  133OSM      N14333   1.554   3.348   5.911  0.3687  0.0974  0.9972
  133OSM    C1514334   1.545   3.461   5.820 -0.4855  0.6361 -0.5962
  133OSM   H15A14335   1.442   3.484   5.797 -0.7558  1.2336  1.0902
  133OSM   H15B14336   1.602   3.434   5.732  5.3642 -1.5070  3.2498
  133OSM   H15C14337   1.587   3.551   5.863 -0.4277 -0.2587  1.3048
  133OSM    C1414338   1.514   3.221   5.832 -0.3831  0.4551 -0.0810
  133OSM   H14A14339   1.524   3.130   5.890  0.1335  0.6066  0.0667
  133OSM   H14B14340   1.578   3.202   5.748 -1.4186  0.1657 -0.8213
  133OSM   H14C14341   1.408   3.222   5.809 -0.1837 -1.4796 -1.2640
  133OSM    C1314342   1.697   3.337   5.955  0.1999 -0.5362 -0.5209
  133OSM   H13A14343   1.703   3.263   6.034  0.7354 -1.9750 -1.8540
  133OSM   H13B14344   1.727   3.431   5.999  0.3782 -1.6478  1.8689
  133OSM   H13C14345   1.770   3.315   5.879  0.2119  0.6465 -0.8756
  133OSM    C1214346   1.467   3.363   6.032 -0.5676 -0.3361 -1.0597
  133OSM   H12A14347   1.491   3.281   6.098 -0.2760 -0.2236 -1.0251
  133OSM   H12B14348   1.362   3.358   6.008 -1.1199  1.2626  0.7839
  133OSM    C1114349   1.480   3.495   6.111  0.2294  0.8756 -0.3327
  133OSM   H11A14350   1.588   3.506   6.134  0.1722  1.9776 -0.5357
  133OSM   H11B14351   1.431   3.478   6.209 -1.2184 -1.9889 -1.4432
  133OSM      P14352   1.524   3.746   6.057  0.1223  0.2412 -0.1347
  133OSM    O1314353   1.656   3.730   5.989  0.6727  0.3133 -0.1362
  133OSM    O1414354   1.443   3.859   6.015  0.2796 -0.0454  0.5897
  133OSM    O1114355   1.551   3.757   6.215 -0.3370 -0.3927 -0.2165
  133OSM    O1214356   1.444   3.612   6.045 -0.5076  0.0608  0.0872
  133OSM    C1S14357   1.438   3.787   6.300  0.3645  0.6928  0.1745
  133OSM    H1S14358   1.381   3.698   6.334  1.1708  0.0374 -0.1618
  133OSM    H1T14359   1.359   3.847   6.250  0.8025  1.5710  0.4990
  133OSM     NF14360   1.355   3.913   6.500  0.1693  0.4336 -0.1604
  133OSM    HNF14361   1.311   4.001   6.480 -3.0797 -1.0488 -0.0664
  133OSM    C2S14362   1.478   3.875   6.420  0.6746 -0.3043  0.7851
  133OSM    H2S14363   1.547   3.817   6.484 -0.8138  0.3955  3.1555
  133OSM    C3S14364   1.547   4.017   6.380  0.2933 -0.1639  0.0547
  133OSM    H3S14365   1.476   4.087   6.332  2.3398  1.0414 -1.4046
  133OSM     O314366   1.651   4.012   6.281  0.0476  0.0478 -0.0424
  133OSM    HO314367   1.637   3.928   6.237  1.9945 -1.3970  1.8892
  133OSM    C4S14368   1.596   4.086   6.504  0.1313 -0.4690  0.1460
  133OSM    H4S14369   1.666   4.034   6.571 -0.6656  1.5420  2.6693
  133OSM    C5S14370   1.538   4.199   6.549 -0.3203 -0.7213  0.1294
  133OSM    H5S14371   1.459   4.251   6.494  1.4918 -0.8787 -2.8281
  133OSM    C6S14372   1.584   4.264   6.678  0.4958  0.3230  0.0442
  133OSM    H6S14373   1.492   4.312   6.718  1.5179  0.5328  2.3084
  133OSM    H6T14374   1.651   4.346   6.645 -2.3785  2.0851 -1.8495
  133OSM    C7S14375   1.646   4.194   6.796  0.3208  0.6727 -0.0780
  133OSM    H7S14376   1.753   4.170   6.782  0.5235  0.6368  1.3762
  133OSM    H7T14377   1.598   4.096   6.816  0.3824 -0.4843 -4.4599
  133OSM    C8S14378   1.639   4.282   6.920 -0.0577  0.2150 -1.0294
  133OSM    H8S14379   1.539   4.314   6.955  1.1154  2.1607  0.7762
  133OSM    H8T14380   1.685   4.379   6.892  0.5586 -0.5118 -2.6465
  133OSM    C9S14381   1.709   4.218   7.045  0.2304 -0.0122 -0.0895
  133OSM    H9S14382   1.807   4.174   7.016 -0.3219 -0.8344 -0.7568
  133OSM    H9T14383   1.654   4.136   7.094 -3.0062  2.5736  0.9497
  133OSM   C10S14384   1.724   4.329   7.155  0.0476  0.5376 -0.1291
  133OSM   H10S14385   1.622   4.370   7.168 -0.4189 -0.6702  0.1241
  133OSM   H10T14386   1.778   4.421   7.125 -0.5819  1.8415  2.4560
  133OSM   C11S14387   1.775   4.276   7.291 -0.3001 -0.4987  0.4786
  133OSM   H11S14388   1.869   4.221   7.271 -0.3960 -0.3880 -0.3166
  133OSM   H11T14389   1.702   4.207   7.339 -0.7711  0.9233  1.8830
  133OSM   C12S14390   1.787   4.394   7.390  0.0536 -0.1961 -0.3403
  133OSM   H12S14391   1.682   4.429   7.392 -0.0385 -0.4759  0.6126
  133OSM   H12T14392   1.867   4.462   7.354  0.4845  0.2207  1.2966
  133OSM   C13S14393   1.831   4.356   7.536 -0.0537  0.8473 -0.5276
  133OSM   H13S14394   1.933   4.314   7.527  0.1867  0.5329  2.6078
  133OSM   H13T14395   1.757   4.278   7.565 -2.2261  2.2677 -1.9476
  133OSM   C14S14396   1.827   4.479   7.641  0.5628  0.1102 -0.0898
  133OSM   H14S14397   1.743   4.547   7.615  0.4270  0.3384  0.9258
  133OSM   H14T14398   1.916   4.543   7.622  0.2036  0.6113 -0.1043
  133OSM   C15S14399   1.813   4.429   7.784  0.2698  0.1784  0.0706
  133OSM   H15S14400   1.849   4.507   7.855 -1.0527  0.8867 -0.0027
  133OSM   H15T14401   1.878   4.340   7.792  0.3530  0.2351  0.0279
  133OSM   C16S14402   1.674   4.398   7.832  0.1439 -0.5938  0.4521
  133OSM   H16S14403   1.624   4.334   7.757  0.8488 -1.5179  0.7449
  133OSM   H16T14404   1.621   4.495   7.829  0.8467 -0.2194 -0.8930
  133OSM   C17S14405   1.665   4.340   7.973  0.3591 -0.4592  0.1876
  133OSM   H17S14406   1.705   4.408   8.050  1.6616 -0.7866 -0.1693
  133OSM   H17T14407   1.729   4.249   7.963  0.1915 -0.3855 -2.0543
  133OSM   C18S14408   1.529   4.290   8.009 -0.0389 -0.1844 -0.8109
  133OSM   H18S14409   1.477   4.223   7.937  1.2436  1.2751 -3.2238
  133OSM   H18T14410   1.463   4.374   8.040 -0.8037 -1.5070  1.4406
  133OSM   H18U14411   1.532   4.230   8.103 -1.0584  0.4282 -0.3568
  133OSM    C1F14412   1.286   3.826   6.569  0.1492 -0.0159 -0.5914
  133OSM     OF14413   1.315   3.704   6.567 -0.2208 -0.2666 -0.2130
  133OSM    C2F14414   1.171   3.877   6.650  0.3292 -0.0050 -0.3995
  133OSM    H2F14415   1.115   3.942   6.579 -1.1138 -3.0191 -2.2560
  133OSM    H2G14416   1.198   3.915   6.751 -1.1949  0.8907 -0.2917
  133OSM    C3F14417   1.067   3.762   6.673  0.5111  0.0762 -0.5211
  133OSM    H3F14418   1.114   3.681   6.733 -0.1423 -1.8780 -2.5034
  133OSM    H3G14419   1.033   3.712   6.580  3.3176 -3.2134 -0.0021
  133OSM    C4F14420   0.941   3.798   6.757  0.4912  0.4599 -0.9892
  133OSM    H4F14421   0.881   3.704   6.757  0.7349  0.2811 -2.1099
  133OSM    H4G14422   0.874   3.877   6.718  0.9622  0.9390 -0.8342
  133OSM    C5F14423   0.977   3.830   6.908 -0.5238 -0.1059  0.1764
  133OSM    H5F14424   1.030   3.928   6.916  1.6618 -1.1912 -0.2176
  133OSM    H5G14425   1.051   3.754   6.938 -0.3768  0.1716  0.5298
  133OSM    C6F14426   0.860   3.810   6.997  0.5248 -0.1351 -0.2699
  133OSM    H6F14427   0.855   3.702   7.025 -3.0422 -0.0263 -0.0860
  133OSM    H6G14428   0.769   3.823   6.936  0.3364  1.4757  0.3019
  133OSM    C7F14429   0.859   3.894   7.123 -0.1300  0.4075 -0.0123
  133OSM    H7F14430   0.775   3.877   7.194  0.3110 -1.0772  0.1937
  133OSM    H7G14431   0.844   4.001   7.095  1.1179 -0.3086 -3.9861
  133OSM    C8F14432   0.985   3.867   7.207  0.7867 -0.1888 -0.3289
  133OSM    H8F14433   1.069   3.881   7.136 -0.0509 -0.3704 -1.3783
  133OSM    H8G14434   0.987   3.764   7.248 -3.0717  0.5848  2.4858
  133OSM    C9F14435   0.983   3.967   7.323  0.7464  0.5236 -0.6524
  133OSM    H9F14436   1.008   4.069   7.292  1.2560  0.6115  0.0136
  133OSM   C10F14437   0.953   3.941   7.455  0.2928  0.0734  0.6549
  133OSM   H10F14438   0.950   4.024   7.528  0.8989  0.9230 -0.2587
  133OSM   C11F14439   0.911   3.808   7.511 -0.0138 -0.5360  0.0509
  133OSM   H11F14440   0.987   3.781   7.588 -2.3324 -0.9196  2.3540
  133OSM   H11G14441   0.894   3.726   7.438 -2.6634  0.0601 -0.1198
  133OSM   C12F14442   0.790   3.815   7.600 -0.2845  0.1558 -0.5297
  133OSM   H12F14443   0.765   3.713   7.637 -1.3841  1.1560  1.6847
  133OSM   H12G14444   0.696   3.847   7.550 -1.5782  0.6953  2.0900
  133OSM   C13F14445   0.807   3.906   7.730 -1.0026 -1.0563  0.3944
  133OSM   H13F14446   0.817   4.009   7.689 -1.0386 -1.1871  0.0585
  133OSM   H13G14447   0.907   3.894   7.777 -0.5326  2.3796  0.5046
  133OSM   C14F14448   0.704   3.888   7.842 -0.3655  0.4593  0.2801
  133OSM   H14F14449   0.724   3.783   7.872  0.3878  0.6706  0.5521
  133OSM   H14G14450   0.597   3.896   7.814 -1.4224 -2.5814  2.8099
  133OSM   C15F14451   0.733   3.977   7.964 -0.1486 -0.2729 -0.1899
  133OSM   H15F14452   0.741   4.083   7.930 -0.8055 -0.5013 -1.0781
  133OSM   H15G14453   0.823   3.944   8.020  0.4801  1.4775 -0.1023
  133OSM   C16F14454   0.621   3.983   8.071 -0.4031 -0.3247 -0.4354
  133OSM   H16F14455   0.603   3.875   8.090 -2.6825 -0.5189 -2.9842
  133OSM   H16G14456   0.529   4.037   8.040 -0.4642 -0.5853 -0.7051
  133OSM   C17F14457   0.657   4.042   8.214 -0.3023  0.0461  0.7668
  133OSM   H17F14458   0.676   4.152   8.206 -1.5661  0.2261 -0.0078
  133OSM   H17G14459   0.751   3.993   8.246 -0.0152  0.4414  0.5547
  133OSM   C18F14460   0.553   4.025   8.324  0.1404  0.7280 -0.0905
  133OSM   H18F14461   0.456   4.045   8.273  0.8273 -0.4561 -1.9867
  133OSM   H18G14462   0.582   4.086   8.412 -1.0864 -1.2774  1.8145
  133OSM   H18H14463   0.562   3.922   8.364 -1.1619  0.8209  0.5048
  134OSM      N14464   1.832   1.927   6.307  0.0067  0.3564 -0.7466
  134OSM    C1514465   1.912   1.908   6.187  0.4634 -0.2776 -0.1410
  134OSM   H15A14466   1.929   1.805   6.157  1.3864  0.7127 -3.4436
  134OSM   H15B14467   2.012   1.947   6.204  0.4676 -0.0443 -0.6815
  134OSM   H15C14468   1.882   1.965   6.101  1.1807 -0.4910 -0.5473
  134OSM    C1414469   1.895   1.846   6.417 -0.3593 -0.4468  0.3468
  134OSM   H14A14470   1.854   1.866   6.515 -0.5444 -0.1426  0.2084
  134OSM   H14B14471   1.999   1.873   6.431  0.3341 -2.7934  0.0879
  134OSM   H14C14472   1.898   1.745   6.379 -1.7282  0.4156 -2.3441
  134OSM    C1314473   1.830   2.074   6.345  0.2700 -0.1120  0.2939
  134OSM   H13A14474   1.792   2.140   6.268 -2.1807  1.0368  2.3634
  134OSM   H13B14475   1.935   2.102   6.351  0.7556 -0.8645 -2.8067
  134OSM   H13C14476   1.785   2.102   6.439  0.8272 -1.2359  0.9230
  134OSM    C1214477   1.688   1.887   6.284 -0.6194  0.3595 -0.0051
  134OSM   H12A14478   1.686   1.792   6.234 -0.1907  0.6400 -0.5660
  134OSM   H12B14479   1.628   1.956   6.228 -2.3817 -0.3925  0.8903
  134OSM    C1114480   1.598   1.872   6.420  0.4421  0.0225  0.6351
  134OSM   H11A14481   1.664   1.804   6.479  1.0035 -0.9411 -1.0221
  134OSM   H11B14482   1.503   1.822   6.391  0.3066  0.8058 -0.3299
  134OSM      P14483   1.478   2.101   6.422  0.1879  0.3373 -0.2861
  134OSM    O1314484   1.506   2.229   6.483 -0.0706 -0.8460  0.1337
  134OSM    O1414485   1.493   2.103   6.278 -0.2555  0.0239 -0.3077
  134OSM    O1114486   1.340   2.039   6.468 -0.3293  0.6840  0.2289
  134OSM    O1214487   1.574   1.996   6.487 -0.1772  0.3603 -0.6067
  134OSM    C1S14488   1.312   1.966   6.587 -0.1562 -0.4167 -0.8663
  134OSM    H1S14489   1.356   2.009   6.679 -3.6269 -1.7811  1.6650
  134OSM    H1T14490   1.359   1.866   6.577  0.7117 -0.1052 -0.0756
  134OSM     NF14491   1.136   1.872   6.749  0.1462 -0.0849 -0.4309
  134OSM    HNF14492   1.126   1.773   6.743  0.6358 -0.0916 -1.3504
  134OSM    C2S14493   1.160   1.944   6.619 -0.4200  0.0430 -0.0614
  134OSM    H2S14494   1.126   2.046   6.648  1.0799  0.1695  1.4301
  134OSM    C3S14495   1.094   1.885   6.497  0.3287 -0.2551  0.2842
  134OSM    H3S14496   1.131   1.781   6.484 -1.4557 -0.7662 -1.0733
  134OSM     O314497   1.123   1.954   6.369  0.7450 -0.3223 -0.4159
  134OSM    HO314498   1.203   2.005   6.389  1.1030 -0.3516 -1.6712
  134OSM    C4S14499   0.941   1.870   6.517 -0.7481 -0.1083  0.1814
  134OSM    H4S14500   0.877   1.955   6.543  1.2548  1.5189 -0.0021
  134OSM    C5S14501   0.868   1.757   6.498  0.6436  0.1300 -0.3879
  134OSM    H5S14502   0.909   1.666   6.452 -1.6527 -2.2781  2.0220
  134OSM    C6S14503   0.722   1.751   6.532  0.4791  0.2937 -0.1180
  134OSM    H6S14504   0.668   1.697   6.452  0.6419 -2.4596  1.4876
  134OSM    H6T14505   0.675   1.850   6.547  0.0437 -0.0961  1.2656
  134OSM    C7S14506   0.702   1.662   6.655 -0.1189 -0.6270 -0.6710
  134OSM    H7S14507   0.737   1.558   6.641 -0.6030 -0.9486  0.4689
  134OSM    H7T14508   0.594   1.664   6.679 -0.2326 -0.6698 -1.1744
  134OSM    C8S14509   0.782   1.708   6.782  0.5823  0.1618 -0.5593
  134OSM    H8S14510   0.781   1.817   6.800 -1.9815  0.2210 -0.7035
  134OSM    H8T14511   0.885   1.672   6.763  1.2446  2.8313 -2.6154
  134OSM    C9S14512   0.761   1.620   6.917  0.2321 -0.3413  0.1340
  134OSM    H9S14513   0.843   1.651   6.985  0.5324  2.0081 -1.1717
  134OSM    H9T14514   0.786   1.515   6.893 -0.7442 -0.5854  0.1330
  134OSM   C10S14515   0.616   1.607   6.979  0.0192  0.0588  0.0756
  134OSM   H10S14516   0.557   1.559   6.899  1.5142 -1.1622 -0.3367
  134OSM   H10T14517   0.575   1.710   6.990 -0.5309  0.1861 -2.5212
  134OSM   C11S14518   0.612   1.532   7.119 -0.1828  0.3913  0.3832
  134OSM   H11S14519   0.659   1.432   7.127 -1.8468 -0.4040  0.6839
  134OSM   H11T14520   0.509   1.502   7.148  0.1939 -0.8489  0.4872
  134OSM   C12S14521   0.660   1.631   7.233  0.2683  0.9477 -0.6821
  134OSM   H12S14522   0.567   1.692   7.240 -1.8846 -2.1512  0.1100
  134OSM   H12T14523   0.755   1.676   7.198  1.6328 -0.7366  0.7174
  134OSM   C13S14524   0.687   1.555   7.366  0.0305  0.0535  0.1960
  134OSM   H13S14525   0.690   1.634   7.444  3.4422 -0.6468  0.9340
  134OSM   H13T14526   0.788   1.510   7.374 -0.5668 -1.1433  1.3059
  134OSM   C14S14527   0.575   1.453   7.407 -0.7520 -0.0023 -0.3037
  134OSM   H14S14528   0.574   1.364   7.341 -1.1748  0.0120 -0.3206
  134OSM   H14T14529   0.483   1.511   7.383  0.0370  0.6516 -1.8467
  134OSM   C15S14530   0.564   1.405   7.556 -0.1916  0.7398 -0.2911
  134OSM   H15S14531   0.469   1.348   7.569 -0.1962 -0.0357 -3.1327
  134OSM   H15T14532   0.566   1.494   7.622 -0.9228 -0.4136  1.3790
  134OSM   C16S14533   0.681   1.315   7.589 -0.9533  0.0425 -0.1055
  134OSM   H16S14534   0.774   1.363   7.551  0.4897 -0.0770  2.9274
  134OSM   H16T14535   0.672   1.229   7.519  0.3044 -0.1920 -0.0159
  134OSM   C17S14536   0.696   1.260   7.735 -0.4180  0.3887  0.0478
  134OSM   H17S14537   0.768   1.175   7.735 -0.0035  0.6706  2.1185
  134OSM   H17T14538   0.601   1.219   7.774 -0.9576  0.2124 -1.3924
  134OSM   C18S14539   0.740   1.367   7.834 -0.9979 -0.1742 -0.5365
  134OSM   H18S14540   0.745   1.332   7.939  0.7055  1.9270  0.1727
  134OSM   H18T14541   0.691   1.465   7.820  2.4738  1.5738 -1.6351
  134OSM   H18U14542   0.845   1.393   7.806 -0.6479  1.3757  1.9497
  134OSM    C1F14543   1.157   1.921   6.871 -0.3647 -0.1392  0.9604
  134OSM     OF14544   1.197   2.036   6.883  0.3207 -0.2757 -0.1859
  134OSM    C2F14545   1.133   1.826   6.987 -0.1280 -0.1821  0.7856
  134OSM    H2F14546   1.209   1.746   7.002 -0.4000 -0.4667  0.6611
  134OSM    H2G14547   1.026   1.798   6.975 -0.1763 -0.3030  1.4512
  134OSM    C3F14548   1.139   1.892   7.125 -0.3317  0.5347 -0.1799
  134OSM    H3F14549   1.089   1.991   7.125  0.0726  0.7427  0.0522
  134OSM    H3G14550   1.245   1.913   7.149 -0.0745  0.1390 -0.9136
  134OSM    C4F14551   1.087   1.809   7.236  0.6651  0.0026  0.8073
  134OSM    H4F14552   1.119   1.703   7.232 -1.3708 -0.6184 -1.0798
  134OSM    H4G14553   0.978   1.819   7.250  0.9704  1.1625  2.7168
  134OSM    C5F14554   1.145   1.858   7.369 -0.4786  0.1443 -0.2657
  134OSM    H5F14555   1.101   1.960   7.374 -3.0851 -0.7591 -2.4171
  134OSM    H5G14556   1.255   1.847   7.361 -0.1170  1.8200  1.5768
  134OSM    C6F14557   1.077   1.787   7.483 -0.2889 -0.6017 -0.0803
  134OSM    H6F14558   1.108   1.681   7.467  0.6359  0.0908 -3.8606
  134OSM    H6G14559   0.969   1.790   7.456 -0.0149 -2.4016 -1.5922
  134OSM    C7F14560   1.120   1.833   7.622 -0.2188  0.0006 -0.3431
  134OSM    H7F14561   1.052   1.919   7.634  1.8678  1.4012  2.4005
  134OSM    H7G14562   1.222   1.877   7.624 -0.9346  1.8421 -1.5904
  134OSM    C8F14563   1.092   1.728   7.730  0.0766 -0.3964 -1.0007
  134OSM    H8F14564   1.173   1.652   7.737  0.0591 -0.2705  2.0575
  134OSM    H8G14565   0.992   1.681   7.721 -0.5620 -0.6503  4.2607
  134OSM    C9F14566   1.091   1.778   7.877  0.2664  0.0424  0.1819
  134OSM    H9F14567   1.080   1.887   7.894 -0.2052  0.0173  0.0385
  134OSM   C10F14568   1.108   1.703   7.984 -0.1062  1.0271 -0.1825
  134OSM   H10F14569   1.095   1.740   8.086 -0.3912 -0.3905  0.3228
  134OSM   C11F14570   1.128   1.550   7.975  0.0622  0.0573 -0.1782
  134OSM   H11F14571   1.117   1.510   7.871 -2.0507  1.0630 -0.3929
  134OSM   H11G14572   1.053   1.500   8.039 -0.2306  1.6059  0.7271
  134OSM   C12F14573   1.273   1.505   8.016 -1.1512  0.5699 -0.3009
  134OSM   H12F14574   1.340   1.550   7.939 -0.5937 -4.7655 -3.3973
  134OSM   H12G14575   1.276   1.396   7.995  0.0770  0.6284 -0.4859
  134OSM   C13F14576   1.307   1.505   8.168  0.7544 -0.5748  0.4131
  134OSM   H13F14577   1.215   1.465   8.217  1.5279 -0.6109  1.9004
  134OSM   H13G14578   1.324   1.606   8.210 -2.2555  0.2940 -0.2056
  134OSM   C14F14579   1.411   1.397   8.203 -1.0400 -0.0528  0.3078
  134OSM   H14F14580   1.373   1.302   8.161 -1.2263  0.1305  0.0608
  134OSM   H14G14581   1.400   1.378   8.312  2.4719  1.7974  1.1298
  134OSM   C15F14582   1.560   1.430   8.184 -0.2074 -0.7001 -0.7053
  134OSM   H15F14583   1.632   1.414   8.267 -1.3130  0.6703  0.5665
  134OSM   H15G14584   1.568   1.541   8.185 -1.3102 -0.5993 -1.3304
  134OSM   C16F14585   1.624   1.382   8.056  0.2198 -0.7924  0.3920
  134OSM   H16F14586   1.561   1.400   7.967  0.1104  1.2204  0.8109
  134OSM   H16G14587   1.635   1.272   8.063  1.2824 -0.9271 -2.3551
  134OSM   C17F14588   1.773   1.423   8.019 -0.2419 -0.6270  0.8639
  134OSM   H17F14589   1.840   1.416   8.107  0.8918 -2.9096 -0.0735
  134OSM   H17G14590   1.782   1.528   7.987  0.3587 -1.1206 -0.6695
  134OSM   C18F14591   1.839   1.338   7.905 -0.7041 -0.3686 -0.1816
  134OSM   H18F14592   1.943   1.373   7.887 -1.4623  1.0727 -2.2152
  134OSM   H18G14593   1.783   1.349   7.810 -2.5926  0.8870  1.0172
  134OSM   H18H14594   1.829   1.236   7.947 -1.1644  0.1613  1.0458
  135OSM      N14595   1.350   2.645   6.214  0.5130 -0.4611  0.1201
  135OSM    C1514596   1.421   2.604   6.085  0.2254  1.1653 -0.2547
  135OSM   H15A14597   1.512   2.551   6.108  0.7342  0.7576 -2.8893
  135OSM   H15B14598   1.457   2.687   6.027  0.5722 -0.9348 -3.3027
  135OSM   H15C14599   1.347   2.550   6.026 -0.9201  2.8378 -0.4084
  135OSM    C1414600   1.441   2.745   6.280  0.4726 -0.1845 -0.5045
  135OSM   H14A14601   1.418   2.765   6.383 -1.1877  0.7001 -1.0121
  135OSM   H14B14602   1.439   2.843   6.235  3.8513 -0.0501 -0.6368
  135OSM   H14C14603   1.546   2.723   6.274  0.5597 -0.7287  1.9089
  135OSM    C1314604   1.215   2.716   6.180 -0.1241  0.1360 -0.2330
  135OSM   H13A14605   1.223   2.757   6.080 -0.1524  1.9809  0.4850
  135OSM   H13B14606   1.171   2.786   6.249 -0.6063  2.2904 -2.5439
  135OSM   H13C14607   1.142   2.637   6.178 -0.5533  0.4908  0.8691
  135OSM    C1214608   1.333   2.533   6.315  0.2472  0.3611 -1.1213
  135OSM   H12A14609   1.293   2.576   6.406 -2.8859 -2.2747 -1.0872
  135OSM   H12B14610   1.430   2.488   6.331  0.8983  0.7434 -3.6354
  135OSM    C1114611   1.223   2.434   6.264  0.2794  0.2413 -0.1792
  135OSM   H11A14612   1.226   2.330   6.304  1.9226  1.3489  2.9117
  135OSM   H11B14613   1.252   2.419   6.158 -0.2954  2.3006 -0.6716
  135OSM      P14614   1.043   2.522   6.419  0.5835  0.0660 -0.3034
  135OSM    O1314615   1.133   2.611   6.493 -0.3709  0.1847  0.0322
  135OSM    O1414616   0.902   2.573   6.416 -0.2697 -0.6503 -0.1542
  135OSM    O1114617   1.045   2.378   6.494 -0.4746  0.3838  0.3174
  135OSM    O1214618   1.089   2.483   6.278  0.1742  0.1679 -0.6045
  135OSM    C1S14619   1.153   2.339   6.573 -0.6422  0.1812  0.7937
  135OSM    H1S14620   1.249   2.389   6.551  0.3208 -1.3193  1.3823
  135OSM    H1T14621   1.158   2.228   6.571 -1.3659  0.1503 -0.0287
  135OSM     NF14622   1.242   2.293   6.795  0.2892 -0.7644  0.6625
  135OSM    HNF14623   1.220   2.200   6.824 -1.2852 -0.7408 -0.3191
  135OSM    C2S14624   1.129   2.363   6.728 -0.0120  0.4839 -0.4401
  135OSM    H2S14625   1.132   2.470   6.755 -2.3913  0.2613  0.8935
  135OSM    C3S14626   0.993   2.305   6.770 -0.3389 -0.4558  0.1073
  135OSM    H3S14627   0.993   2.195   6.753 -0.8325 -0.3080 -0.8888
  135OSM     O314628   0.884   2.359   6.695 -0.1203 -0.4353 -0.3794
  135OSM    HO314629   0.918   2.365   6.606  1.0074 -0.0952  0.0519
  135OSM    C4S14630   0.991   2.320   6.917  0.8936 -0.2782  0.4668
  135OSM    H4S14631   1.010   2.223   6.965  4.5136  0.1105  0.1484
  135OSM    C5S14632   0.953   2.432   6.985  0.1421 -0.1720  0.9481
  135OSM    H5S14633   0.918   2.518   6.927  1.0068 -0.0270  0.6306
  135OSM    C6S14634   0.920   2.457   7.126  0.3361 -0.1257  0.1804
  135OSM    H6S14635   0.811   2.479   7.128  0.1700 -0.9827  1.2777
  135OSM    H6T14636   0.964   2.556   7.150 -1.5240  1.1831 -1.4506
  135OSM    C7S14637   0.971   2.349   7.215  0.1568 -0.1290 -0.6372
  135OSM    H7S14638   1.082   2.347   7.208  0.3754  2.0839  0.9966
  135OSM    H7T14639   0.944   2.246   7.183  1.3707 -0.5635 -0.3140
  135OSM    C8S14640   0.927   2.373   7.355  0.3170  0.0052 -0.7342
  135OSM    H8S14641   0.820   2.345   7.362 -0.0037  1.0319 -1.2930
  135OSM    H8T14642   0.951   2.480   7.376 -1.7670  0.0685  1.8156
  135OSM    C9S14643   1.016   2.299   7.457 -1.0037 -0.1184 -0.1781
  135OSM    H9S14644   1.119   2.329   7.429  0.0779 -2.7574  0.6814
  135OSM    H9T14645   1.011   2.188   7.455  0.0994 -0.2107  0.8179
  135OSM   C10S14646   0.983   2.332   7.601  0.0632  0.1098 -0.1999
  135OSM   H10S14647   1.003   2.440   7.615  2.1843  0.3403 -3.6420
  135OSM   H10T14648   1.052   2.281   7.672 -1.0862 -1.1168  0.0810
  135OSM   C11S14649   0.838   2.309   7.648  0.1284 -0.5407 -0.0108
  135OSM   H11S14650   0.764   2.343   7.573 -1.0682 -1.1215  0.8723
  135OSM   H11T14651   0.816   2.373   7.736  0.2747 -0.3052 -0.1477
  135OSM   C12S14652   0.811   2.166   7.700 -0.0186  0.5600  0.1107
  135OSM   H12S14653   0.878   2.095   7.647  0.4388  1.2819 -0.2938
  135OSM   H12T14654   0.706   2.145   7.672  0.0898  2.2285 -1.7240
  135OSM   C13S14655   0.834   2.154   7.850  0.1733  0.5293  0.0163
  135OSM   H13S14656   0.777   2.229   7.908 -1.0795 -1.5897  1.6658
  135OSM   H13T14657   0.941   2.161   7.879  0.6509  0.1173 -1.5183
  135OSM   C14S14658   0.763   2.024   7.901 -0.4008  0.3038 -0.1226
  135OSM   H14S14659   0.813   1.946   7.840  0.9475  1.1652 -0.1592
  135OSM   H14T14660   0.658   2.032   7.867  0.2960  2.5341 -2.0135
  135OSM   C15S14661   0.778   1.997   8.051 -0.3852 -0.4860  0.6464
  135OSM   H15S14662   0.712   2.069   8.104 -0.8750 -0.8150  0.4915
  135OSM   H15T14663   0.881   2.026   8.079 -0.0160  0.5887 -1.6245
  135OSM   C16S14664   0.749   1.850   8.100  0.8530  0.6380  0.0840
  135OSM   H16S14665   0.810   1.777   8.043  1.7009  2.4773 -1.4537
  135OSM   H16T14666   0.643   1.824   8.078  1.1346 -0.3250 -0.1648
  135OSM   C17S14667   0.761   1.823   8.253 -0.9142 -0.5402 -0.0421
  135OSM   H17S14668   0.864   1.855   8.280 -0.9985 -0.5883  0.3455
  135OSM   H17T14669   0.757   1.714   8.272 -1.6603 -0.4523  0.3388
  135OSM   C18S14670   0.670   1.899   8.351  0.1653  0.0744 -0.0360
  135OSM   H18S14671   0.671   2.010   8.344 -1.8864  0.1869  0.6006
  135OSM   H18T14672   0.686   1.876   8.459 -1.2938 -0.4886  0.0816
  135OSM   H18U14673   0.566   1.863   8.332 -0.4328  1.3578  0.6150
  135OSM    C1F14674   1.358   2.353   6.815 -0.5668  0.1686 -0.8199
  135OSM     OF14675   1.364   2.479   6.795  0.3269  0.0911  0.1935
  135OSM    C2F14676   1.478   2.276   6.867 -0.3345 -0.1118 -0.1053
  135OSM    H2F14677   1.559   2.351   6.874 -1.1205  0.6689  0.9560
  135OSM    H2G14678   1.513   2.197   6.796  1.7928 -0.6262  1.4445
  135OSM    C3F14679   1.464   2.222   7.015  0.0257  1.2524  0.8787
  135OSM    H3F14680   1.570   2.230   7.048  0.2002  1.3145  0.3126
  135OSM    H3G14681   1.425   2.119   7.028  0.0361  1.1578  0.1626
  135OSM    C4F14682   1.383   2.309   7.111 -0.1516  0.4185 -0.4007
  135OSM    H4F14683   1.287   2.329   7.059  0.9061  0.9858 -2.2334
  135OSM    H4G14684   1.432   2.409   7.120  2.0252 -0.7354  1.8000
  135OSM    C5F14685   1.353   2.234   7.241 -0.5208  0.0790  0.1607
  135OSM    H5F14686   1.303   2.140   7.209 -1.3135  1.2088 -2.1854
  135OSM    H5G14687   1.272   2.283   7.299 -0.8800 -0.8107  0.4310
  135OSM    C6F14688   1.476   2.208   7.327 -0.2480  0.4700  0.2095
  135OSM    H6F14689   1.516   2.303   7.370  0.2232  0.6690 -0.6479
  135OSM    H6G14690   1.564   2.165   7.275 -1.6228  0.0152 -1.8442
  135OSM    C7F14691   1.444   2.102   7.435  0.4135  0.2210 -0.7197
  135OSM    H7F14692   1.542   2.074   7.480  1.0723 -0.5325 -2.4982
  135OSM    H7G14693   1.388   2.020   7.384  0.9250  0.4293 -1.6216
  135OSM    C8F14694   1.350   2.145   7.553 -0.5417 -0.1505 -0.4285
  135OSM    H8F14695   1.326   2.060   7.620 -3.6213  2.4671  2.0942
  135OSM    H8G14696   1.255   2.177   7.505 -1.4520 -0.6456  0.9968
  135OSM    C9F14697   1.421   2.260   7.627  0.4901 -0.2633  0.0354
  135OSM    H9F14698   1.422   2.359   7.580 -2.0514  0.1476  0.6969
  135OSM   C10F14699   1.482   2.257   7.743 -0.6508 -0.2822  0.2597
  135OSM   H10F14700   1.544   2.343   7.771 -1.1370 -0.2847  1.3642
  135OSM   C11F14701   1.501   2.132   7.816  0.1685  0.8999  0.3603
  135OSM   H11F14702   1.590   2.135   7.882  1.6054 -3.7840 -0.9575
  135OSM   H11G14703   1.533   2.052   7.745  0.7065  2.9845 -1.8895
  135OSM   C12F14704   1.387   2.096   7.915 -0.1364  0.2101  0.0625
  135OSM   H12F14705   1.416   2.004   7.969 -0.6679 -0.5984 -0.9953
  135OSM   H12G14706   1.305   2.068   7.846  0.0960  2.8010 -1.4088
  135OSM   C13F14707   1.349   2.205   8.009 -1.3120  0.0253 -0.7960
  135OSM   H13F14708   1.317   2.301   7.964 -2.1089  1.7096  2.9688
  135OSM   H13G14709   1.432   2.233   8.078 -2.1727  3.0939 -0.8466
  135OSM   C14F14710   1.239   2.160   8.108 -0.1214  0.2188 -0.2090
  135OSM   H14F14711   1.148   2.130   8.051  0.5568  0.7389 -1.6265
  135OSM   H14G14712   1.218   2.242   8.180  0.9650  0.0150  0.3591
  135OSM   C15F14713   1.279   2.064   8.219 -0.0447  0.0670 -0.0037
  135OSM   H15F14714   1.342   2.108   8.300 -2.3870 -1.0406  2.5988
  135OSM   H15G14715   1.336   1.976   8.181 -0.6816 -0.7980  0.9844
  135OSM   C16F14716   1.153   2.014   8.289  0.4881  0.1235 -0.5933
  135OSM   H16F14717   1.082   1.976   8.213  0.9915 -0.0508 -0.9784
  135OSM   H16G14718   1.102   2.105   8.328  1.3613  0.9050 -1.2160
  135OSM   C17F14719   1.190   1.917   8.403 -0.5866 -0.2250 -0.0487
  135OSM   H17F14720   1.248   1.830   8.367 -0.2036  0.6734 -1.7575
  135OSM   H17G14721   1.098   1.872   8.445 -0.3587 -0.7378 -0.0991
  135OSM   C18F14722   1.263   1.989   8.518 -0.0962 -0.3795 -0.2353
  135OSM   H18F14723   1.366   2.012   8.485 -0.4778  1.3475 -0.3079
  135OSM   H18G14724   1.271   1.911   8.597 -0.1690  0.1479  0.3012
  135OSM   H18H14725   1.209   2.076   8.561 -1.4997 -1.7122  0.7989
  136OSM      N14726   6.424   1.239   6.234 -0.0874 -0.5434  0.6806
  136OSM    C1514727   6.551   1.275   6.162  0.1893 -0.2655 -0.4230
  136OSM   H15A14728   6.578   1.371   6.204 -2.0639  0.2019  0.1007
  136OSM   H15B14729   6.528   1.293   6.058  0.4054 -2.5586 -0.9144
  136OSM   H15C14730   6.623   1.195   6.165 -3.2038 -3.5545  0.0372
  136OSM    C1414731   6.428   1.242   6.377 -1.0453  0.2414 -0.5126
  136OSM   H14A14732   6.334   1.216   6.422 -0.2214  0.5721  1.5103
  136OSM   H14B14733   6.455   1.342   6.407  0.1750  0.1804 -1.2977
  136OSM   H14C14734   6.505   1.175   6.412 -0.1863  1.7595  0.6159
  136OSM    C1314735   6.327   1.336   6.181  0.3594 -0.2103  0.4363
  136OSM   H13A14736   6.358   1.437   6.199  0.1807 -0.3305  1.5288
  136OSM   H13B14737   6.228   1.315   6.218  0.0050  0.3434 -0.1934
  136OSM   H13C14738   6.319   1.314   6.076 -3.9384  0.8238  0.3598
  136OSM    C1214739   6.388   1.099   6.184 -0.6121 -0.0859  0.1825
  136OSM   H12A14740   6.465   1.030   6.215  1.1254  0.6107 -2.2390
  136OSM   H12B14741   6.391   1.103   6.076 -0.8551  2.2598  0.2012
  136OSM    C1114742   6.251   1.033   6.222 -0.5439 -0.0948 -0.3507
  136OSM   H11A14743   6.229   1.061   6.327  3.5371  2.1314  0.1166
  136OSM   H11B14744   6.270   0.923   6.220  0.5675  0.0972 -0.8506
  136OSM      P14745   6.013   1.135   6.192  0.3057 -0.0340  0.5881
  136OSM    O1314746   6.029   1.280   6.183  0.2887 -0.8215  0.4750
  136OSM    O1414747   5.889   1.085   6.127  0.7976  0.2897  0.4150
  136OSM    O1114748   6.010   1.097   6.347 -0.4172 -0.0982  0.3942
  136OSM    O1214749   6.144   1.065   6.128  0.0087  0.0063 -0.8690
  136OSM    C1S14750   5.905   1.167   6.422 -0.6479  0.4295  0.5443
  136OSM    H1S14751   5.805   1.134   6.387 -0.0177  2.4014 -3.6250
  136OSM    H1T14752   5.906   1.276   6.405  0.0127  0.8429  2.8751
  136OSM     NF14753   5.801   1.175   6.641 -0.2070 -0.0417 -0.3328
  136OSM    HNF14754   5.788   1.248   6.708 -1.0092 -0.7110  0.2654
  136OSM    C2S14755   5.933   1.149   6.576 -0.5779 -0.5005  0.5586
  136OSM    H2S14756   5.969   1.045   6.592 -0.8758 -0.4467  1.6186
  136OSM    C3S14757   6.052   1.239   6.622  0.1426  0.3357  0.0258
  136OSM    H3S14758   6.028   1.347   6.612 -3.2928 -0.1962  1.3645
  136OSM     O314759   6.173   1.212   6.547  0.3491  0.0147 -0.2320
  136OSM    HO314760   6.144   1.165   6.468  2.0867 -0.5698 -0.5713
  136OSM    C4S14761   6.076   1.205   6.770 -0.7675 -0.0861 -0.7263
  136OSM    H4S14762   6.096   1.098   6.787 -2.7427 -0.3476  0.2228
  136OSM    C5S14763   6.091   1.286   6.875 -0.4791 -0.3720  0.0225
  136OSM    H5S14764   6.082   1.394   6.856 -2.5227 -0.5392 -0.1844
  136OSM    C6S14765   6.119   1.239   7.019  0.5463 -0.0891  0.2956
  136OSM    H6S14766   6.153   1.324   7.081  2.4935  0.4945 -1.4467
  136OSM    H6T14767   6.202   1.166   7.028  0.7462  0.1978  0.8544
  136OSM    C7S14768   5.992   1.173   7.082 -0.0695 -0.7180  0.6210
  136OSM    H7S14769   6.019   1.164   7.189 -1.0364 -0.1973  0.9286
  136OSM    H7T14770   5.970   1.069   7.051  2.1146 -0.9818 -0.2142
  136OSM    C8S14771   5.867   1.260   7.074 -0.2374  0.3473  0.7656
  136OSM    H8S14772   5.809   1.248   6.981  1.5217 -0.9152 -0.2277
  136OSM    H8T14773   5.891   1.368   7.081  2.5497 -0.2585  2.0313
  136OSM    C9S14774   5.766   1.224   7.189 -0.4056  0.3702  0.3937
  136OSM    H9S14775   5.815   1.264   7.280  1.8511  0.2008 -0.6758
  136OSM    H9T14776   5.752   1.115   7.205 -1.6341  0.5275  0.5130
  136OSM   C10S14777   5.638   1.297   7.173 -0.1546 -0.0859  0.4689
  136OSM   H10S14778   5.583   1.252   7.087  1.8234  1.7781 -1.9342
  136OSM   H10T14779   5.657   1.402   7.141  1.5138  0.1068  1.9409
  136OSM   C11S14780   5.542   1.299   7.287  0.2785 -1.1290 -0.0514
  136OSM   H11S14781   5.568   1.213   7.352  0.5641 -0.5475  0.6245
  136OSM   H11T14782   5.433   1.298   7.266  0.4657 -0.5091 -1.1022
  136OSM   C12S14783   5.569   1.435   7.360  0.5730  0.8080 -0.5380
  136OSM   H12S14784   5.545   1.512   7.283 -0.6331  0.7441 -0.2394
  136OSM   H12T14785   5.673   1.456   7.395  0.6474 -1.0447  0.5039
  136OSM   C13S14786   5.462   1.464   7.467  0.5789 -0.2179 -0.6877
  136OSM   H13S14787   5.484   1.404   7.557  0.1257  0.7528  0.0822
  136OSM   H13T14788   5.363   1.440   7.423  0.4882 -3.7167  1.0292
  136OSM   C14S14789   5.461   1.614   7.506 -0.1018 -0.4299 -0.3256
  136OSM   H14S14790   5.433   1.663   7.410 -3.3934  0.4997  0.9695
  136OSM   H14T14791   5.562   1.646   7.539 -0.9580  0.8828  1.1125
  136OSM   C15S14792   5.350   1.649   7.607  0.1190  0.1254 -0.5351
  136OSM   H15S14793   5.343   1.570   7.685 -0.0200  0.7708  0.1135
  136OSM   H15T14794   5.250   1.650   7.559 -0.6015  0.5975  0.9213
  136OSM   C16S14795   5.378   1.787   7.674  0.1240  0.1558  0.0220
  136OSM   H16S14796   5.401   1.865   7.598  1.5400  0.8224  1.0886
  136OSM   H16T14797   5.469   1.773   7.736  0.0245 -1.9505 -0.2458
  136OSM   C17S14798   5.262   1.825   7.766  0.1247  0.2917 -0.0746
  136OSM   H17S14799   5.177   1.758   7.740  0.0702  0.7014 -0.9888
  136OSM   H17T14800   5.235   1.930   7.745  2.2362  0.9289  0.1792
  136OSM   C18S14801   5.299   1.811   7.916  0.0872 -0.6464  0.7816
  136OSM   H18S14802   5.301   1.707   7.955  0.4358 -0.9339  0.0276
  136OSM   H18T14803   5.225   1.877   7.965 -3.8349 -0.7372 -4.1897
  136OSM   H18U14804   5.398   1.858   7.934 -0.7156  1.4831 -0.0327
  136OSM    C1F14805   5.702   1.089   6.625 -0.1164 -0.4761  0.5397
  136OSM     OF14806   5.733   0.979   6.568  0.5148 -0.4449  0.0595
  136OSM    C2F14807   5.559   1.130   6.666 -0.1244  0.7412 -0.2517
  136OSM    H2F14808   5.510   1.161   6.571  3.5440  0.7380 -2.3103
  136OSM    H2G14809   5.575   1.217   6.733 -0.4970 -0.1115  0.9772
  136OSM    C3F14810   5.477   1.025   6.744  0.0887  0.4865 -0.3694
  136OSM    H3F14811   5.502   0.922   6.710  2.0066  1.0772 -0.9099
  136OSM    H3G14812   5.370   1.048   6.728  0.1943  1.1107 -0.2003
  136OSM    C4F14813   5.511   1.039   6.896  0.0489 -0.2507 -0.1103
  136OSM    H4F14814   5.497   1.146   6.922  0.2337 -0.4233  0.6946
  136OSM    H4G14815   5.619   1.012   6.906 -0.6985 -2.6417  3.0553
  136OSM    C5F14816   5.426   0.940   6.974 -0.1355 -0.1274 -0.2843
  136OSM    H5F14817   5.425   0.840   6.925 -0.7946 -1.0501  1.4846
  136OSM    H5G14818   5.326   0.990   6.976  0.2342  0.6102 -0.1267
  136OSM    C6F14819   5.476   0.916   7.118  0.3406 -0.5363 -0.1135
  136OSM    H6F14820   5.486   1.013   7.171 -1.0349  1.3504 -3.0493
  136OSM    H6G14821   5.575   0.865   7.116  1.5870  1.6049  2.0109
  136OSM    C7F14822   5.376   0.836   7.204  0.3272 -0.4827  0.4121
  136OSM    H7F14823   5.351   0.733   7.171 -2.5893  0.6813 -1.4089
  136OSM    H7G14824   5.280   0.887   7.182 -1.0518 -3.3408 -0.6971
  136OSM    C8F14825   5.393   0.834   7.357  0.3181  0.1091  0.1167
  136OSM    H8F14826   5.492   0.792   7.384 -0.3503 -0.5632  1.6987
  136OSM    H8G14827   5.321   0.758   7.397  0.5602  0.5546  1.4524
  136OSM    C9F14828   5.378   0.964   7.424  0.0329  0.5849  0.2984
  136OSM    H9F14829   5.359   1.054   7.364  1.6017  0.6535 -0.1351
  136OSM   C10F14830   5.387   0.975   7.554 -1.4177 -0.1975  0.3442
  136OSM   H10F14831   5.379   1.080   7.587  1.1681  0.6706 -1.4208
  136OSM   C11F14832   5.433   0.869   7.655  0.9180  0.2478 -0.0413
  136OSM   H11F14833   5.490   0.779   7.623 -0.7749 -0.8875 -0.0123
  136OSM   H11G14834   5.345   0.813   7.693 -0.9471  2.3871 -0.9691
  136OSM   C12F14835   5.512   0.926   7.762 -0.2725 -0.1688 -0.4194
  136OSM   H12F14836   5.543   0.848   7.835 -0.2356 -0.9422 -1.2407
  136OSM   H12G14837   5.453   1.003   7.815 -3.6179 -2.6335 -0.1790
  136OSM   C13F14838   5.631   1.008   7.720  0.0834 -0.1409  0.4989
  136OSM   H13F14839   5.622   1.056   7.621 -0.0267 -1.0994  0.0374
  136OSM   H13G14840   5.719   0.942   7.702  1.2332  1.5718 -0.4650
  136OSM   C14F14841   5.676   1.111   7.831  0.0386  0.2249  0.0758
  136OSM   H14F14842   5.785   1.129   7.839  0.1535 -0.2675 -0.2927
  136OSM   H14G14843   5.646   1.061   7.925  1.0831  0.3155  0.4671
  136OSM   C15F14844   5.604   1.248   7.826  0.1228 -0.4096  0.4112
  136OSM   H15F14845   5.494   1.238   7.838 -0.4022  0.9378 -2.3773
  136OSM   H15G14846   5.617   1.290   7.724 -2.9209  2.2064  0.9401
  136OSM   C16F14847   5.677   1.344   7.910  0.3391 -0.5798 -0.1866
  136OSM   H16F14848   5.772   1.382   7.866 -1.1749  1.8367 -1.6157
  136OSM   H16G14849   5.712   1.296   8.004  2.1608  1.7901  0.4460
  136OSM   C17F14850   5.608   1.473   7.951  0.1892 -0.1835 -0.3311
  136OSM   H17F14851   5.543   1.512   7.870  1.5501  2.0074 -0.4273
  136OSM   H17G14852   5.672   1.558   7.980 -0.3119  0.1423 -0.1675
  136OSM   C18F14853   5.504   1.458   8.059  0.0230  0.3039 -0.5998
  136OSM   H18F14854   5.463   1.560   8.073  0.9612  0.6247 -0.1516
  136OSM   H18G14855   5.549   1.418   8.152  1.6015 -0.7321 -1.7570
  136OSM   H18H14856   5.415   1.399   8.027  1.1367 -0.4464 -2.4592
  137OSM      N14857   4.405   0.874   6.211 -0.9121 -0.3514 -0.6045
  137OSM    C1514858   4.466   0.997   6.275  0.5105 -0.2481 -0.2681
  137OSM   H15A14859   4.529   0.976   6.360  0.2188  2.3080  0.6656
  137OSM   H15B14860   4.386   1.053   6.320  0.2231 -1.7196  1.1463
  137OSM   H15C14861   4.521   1.051   6.199 -0.7069  0.8625 -0.3868
  137OSM    C1414862   4.323   0.915   6.097  0.5560 -1.2249  0.9602
  137OSM   H14A14863   4.299   0.829   6.037 -3.1413 -0.0514  0.5316
  137OSM   H14B14864   4.390   0.976   6.038  1.7850 -2.4504  1.0384
  137OSM   H14C14865   4.231   0.966   6.119 -0.9633 -3.5109  0.2160
  137OSM    C1314866   4.519   0.788   6.154  0.0452 -0.3034 -0.7099
  137OSM   H13A14867   4.580   0.757   6.238 -2.4565 -0.8425  1.0155
  137OSM   H13B14868   4.582   0.852   6.094  0.8007  1.2967  1.6735
  137OSM   H13C14869   4.485   0.697   6.106 -2.6264  0.2926 -0.1238
  137OSM    C1214870   4.322   0.794   6.310 -0.0360  0.3593  0.6727
  137OSM   H12A14871   4.273   0.711   6.262 -0.0093  2.2115 -2.8384
  137OSM   H12B14872   4.239   0.856   6.340  0.3231  1.8288 -1.1852
  137OSM    C1114873   4.381   0.735   6.438  0.2552  0.6672  0.4555
  137OSM   H11A14874   4.310   0.661   6.481  0.9971  0.4615  1.3685
  137OSM   H11B14875   4.396   0.822   6.506 -1.0762  0.0121  1.6483
  137OSM      P14876   4.641   0.703   6.482 -0.1869  0.1594  0.1157
  137OSM    O1314877   4.741   0.610   6.426  0.9530  0.0682 -0.1487
  137OSM    O1414878   4.674   0.851   6.475  0.3111  0.4367  0.1777
  137OSM    O1114879   4.616   0.660   6.635  0.1250 -0.1840  0.3100
  137OSM    O1214880   4.506   0.669   6.406 -0.1598 -0.0833 -0.1315
  137OSM    C1S14881   4.615   0.769   6.725 -0.2656 -0.1112  0.5034
  137OSM    H1S14882   4.519   0.824   6.732  0.8660  2.2815 -1.2678
  137OSM    H1T14883   4.693   0.847   6.710 -0.3254 -0.1843 -0.2341
  137OSM     NF14884   4.635   0.833   6.966  0.2389 -0.2980  0.0215
  137OSM    HNF14885   4.724   0.878   6.977  0.6578 -0.9432 -0.6286
  137OSM    C2S14886   4.650   0.723   6.876  0.3075  0.4325 -0.5301
  137OSM    H2S14887   4.577   0.643   6.901  0.8186  0.2947  0.5573
  137OSM    C3S14888   4.781   0.641   6.868  0.0046 -0.2576  0.0108
  137OSM    H3S14889   4.868   0.698   6.831  0.0452 -1.2571 -1.5288
  137OSM     O314890   4.769   0.531   6.779 -0.4196 -0.0717  0.6299
  137OSM    HO314891   4.701   0.550   6.713 -0.4925 -0.8385  0.4734
  137OSM    C4S14892   4.820   0.588   7.009 -0.6748  0.1759 -0.1260
  137OSM    H4S14893   4.754   0.509   7.050 -1.0347 -1.0556 -2.8453
  137OSM    C5S14894   4.933   0.631   7.068 -0.2376 -0.3723 -0.4517
  137OSM    H5S14895   4.998   0.699   7.012  0.7562 -0.0952  1.0023
  137OSM    C6S14896   4.976   0.583   7.208 -0.5382 -0.2913  0.0793
  137OSM    H6S14897   5.069   0.523   7.208 -0.1540  0.2437 -1.5341
  137OSM    H6T14898   4.896   0.517   7.248 -2.3297  1.2631 -0.7596
  137OSM    C7S14899   4.995   0.704   7.299 -0.3445 -0.5022  0.1516
  137OSM    H7S14900   4.914   0.780   7.289 -0.5275 -0.0708  3.7215
  137OSM    H7T14901   5.094   0.750   7.281 -0.7543  0.3675  0.0567
  137OSM    C8S14902   4.997   0.669   7.450 -0.9391 -0.1427  0.1567
  137OSM    H8S14903   5.067   0.587   7.476 -1.5028  0.0276  2.3366
  137OSM    H8T14904   4.897   0.631   7.478 -1.4678  1.8537  1.1384
  137OSM    C9S14905   5.034   0.775   7.557 -1.3894 -0.4936 -0.9723
  137OSM    H9S14906   4.976   0.867   7.535 -1.2889 -0.3075 -0.4659
  137OSM    H9T14907   5.143   0.793   7.549 -1.1535 -2.2556 -2.1132
  137OSM   C10S14908   4.991   0.729   7.695  0.3467 -0.1422 -1.0656
  137OSM   H10S14909   5.052   0.640   7.723  1.0136  1.0533  1.6270
  137OSM   H10T14910   4.881   0.716   7.684  0.0484  0.3352  0.9359
  137OSM   C11S14911   5.031   0.837   7.801 -0.0466  0.6857  0.0175
  137OSM   H11S14912   5.014   0.934   7.750 -0.6169 -0.8590 -2.9673
  137OSM   H11T14913   5.137   0.833   7.834  0.1165  0.9079 -0.4642
  137OSM   C12S14914   4.939   0.829   7.925 -1.0915 -0.0847  0.3273
  137OSM   H12S14915   4.837   0.816   7.883 -0.9464 -1.7575  0.4067
  137OSM   H12T14916   4.958   0.921   7.984 -0.1815 -0.0771  0.0384
  137OSM   C13S14917   4.973   0.701   8.014  0.0345 -0.0379  0.8810
  137OSM   H13S14918   5.072   0.720   8.061 -0.0546  2.5593  0.1755
  137OSM   H13T14919   4.984   0.608   7.955  0.8477 -0.0926  1.0964
  137OSM   C14S14920   4.872   0.682   8.127  0.7087 -0.3742 -0.8473
  137OSM   H14S14921   4.771   0.657   8.089 -0.3756 -1.3431  2.3642
  137OSM   H14T14922   4.861   0.775   8.187 -0.9541 -0.5200 -0.8818
  137OSM   C15S14923   4.909   0.574   8.233  0.1655  0.2544  0.5586
  137OSM   H15S14924   4.981   0.622   8.304 -0.4090  0.0914  1.2664
  137OSM   H15T14925   4.967   0.495   8.180  2.3729  1.8263  0.4937
  137OSM   C16S14926   4.793   0.509   8.308 -0.3315 -0.2121  0.8808
  137OSM   H16S14927   4.703   0.472   8.255 -1.1896  1.2263  1.2603
  137OSM   H16T14928   4.744   0.580   8.378 -0.1659 -1.4343  2.2996
  137OSM   C17S14929   4.830   0.390   8.393 -0.3194 -0.1356 -0.4792
  137OSM   H17S14930   4.927   0.411   8.443 -0.1073 -1.7525 -0.1738
  137OSM   H17T14931   4.845   0.297   8.334 -1.4020 -1.4369  1.2072
  137OSM   C18S14932   4.716   0.348   8.491 -0.8732 -0.2802 -0.5566
  137OSM   H18S14933   4.621   0.320   8.439 -0.5954 -2.3747 -0.0383
  137OSM   H18T14934   4.692   0.437   8.552  0.5645 -0.4537  0.3052
  137OSM   H18U14935   4.749   0.261   8.551 -1.9571  0.8074  1.7181
  137OSM    C1F14936   4.519   0.884   7.004  0.0807  0.2115  0.2445
  137OSM     OF14937   4.409   0.834   6.975 -0.2528  0.1004 -0.2323
  137OSM    C2F14938   4.525   1.015   7.082 -0.5571  0.0191  0.8495
  137OSM    H2F14939   4.455   1.096   7.054 -0.4112  0.4851  1.7918
  137OSM    H2G14940   4.631   1.047   7.069 -0.4014 -0.7552  0.1211
  137OSM    C3F14941   4.513   0.983   7.227  0.3277  0.2671  0.1463
  137OSM    H3F14942   4.420   0.924   7.243  1.1340 -1.9177 -2.5274
  137OSM    H3G14943   4.484   1.068   7.293  0.2241 -1.4204  2.4428
  137OSM    C4F14944   4.633   0.917   7.300  0.5169  0.6184  0.3600
  137OSM    H4F14945   4.719   0.887   7.237  0.2655  1.9540 -0.6612
  137OSM    H4G14946   4.594   0.821   7.339 -2.3797  0.8140 -1.7521
  137OSM    C5F14947   4.697   0.993   7.411  0.1458 -0.9988 -0.5308
  137OSM    H5F14948   4.739   1.085   7.366  1.0961 -1.5057 -0.7209
  137OSM    H5G14949   4.786   0.936   7.447  0.5951 -0.2477 -0.4177
  137OSM    C6F14950   4.620   1.023   7.540 -0.7241 -0.3028 -0.2256
  137OSM    H6F14951   4.530   0.957   7.544 -2.0383  1.4802  1.1460
  137OSM    H6G14952   4.588   1.129   7.533 -1.5239 -0.5415 -0.3611
  137OSM    C7F14953   4.698   1.010   7.669  0.5904  0.1890 -0.2188
  137OSM    H7F14954   4.786   1.074   7.646  0.3160 -0.8942 -5.2306
  137OSM    H7G14955   4.746   0.912   7.688  0.0180 -0.1075 -0.2805
  137OSM    C8F14956   4.612   1.077   7.786  0.2205 -0.2525  0.1576
  137OSM    H8F14957   4.608   1.016   7.880 -1.4876  0.9903  0.9398
  137OSM    H8G14958   4.508   1.083   7.749 -0.3443 -2.5789  1.1686
  137OSM    C9F14959   4.648   1.223   7.815  0.3642 -0.3160 -0.3143
  137OSM    H9F14960   4.669   1.285   7.726 -0.1193 -1.1553 -1.0332
  137OSM   C10F14961   4.670   1.279   7.931 -0.0227 -0.3679 -0.0428
  137OSM   H10F14962   4.695   1.386   7.933 -2.7553  0.3409  0.2415
  137OSM   C11F14963   4.656   1.217   8.073  0.0796  0.2959  0.6826
  137OSM   H11F14964   4.753   1.174   8.103 -0.8486 -0.7083  2.3869
  137OSM   H11G14965   4.583   1.133   8.075  1.1848 -0.6811  1.0670
  137OSM   C12F14966   4.604   1.311   8.182  0.5619 -0.4226  0.3085
  137OSM   H12F14967   4.499   1.336   8.155  0.9756  1.8695  0.5937
  137OSM   H12G14968   4.649   1.413   8.180 -1.8797  0.7295 -0.3145
  137OSM   C13F14969   4.605   1.258   8.332 -0.3815  0.0507  0.2055
  137OSM   H13F14970   4.514   1.197   8.344 -0.5444 -0.0152 -1.1741
  137OSM   H13G14971   4.609   1.351   8.393 -1.5027  0.3564 -0.1688
  137OSM   C14F14972   4.721   1.159   8.357  0.2332 -0.0692  0.2048
  137OSM   H14F14973   4.719   1.072   8.288  1.2909  0.4064 -0.4498
  137OSM   H14G14974   4.706   1.120   8.460  0.0464  2.5218  1.2265
  137OSM   C15F14975   4.863   1.223   8.359 -0.0029  0.5090  0.4685
  137OSM   H15F14976   4.860   1.325   8.316 -1.5214  0.9958  1.6555
  137OSM   H15G14977   4.931   1.164   8.293 -2.0514 -0.8864 -0.5249
  137OSM   C16F14978   4.925   1.238   8.495  0.3017  0.1224 -0.1170
  137OSM   H16F14979   4.877   1.172   8.570 -1.8927  0.9488 -0.7050
  137OSM   H16G14980   4.907   1.343   8.528 -0.6121 -0.8067  2.6010
  137OSM   C17F14981   5.072   1.216   8.481  0.0278  0.1439 -0.3588
  137OSM   H17F14982   5.116   1.290   8.411 -0.1430 -0.9366 -1.6452
  137OSM   H17G14983   5.093   1.120   8.429 -0.0020 -0.7413  1.2076
  137OSM   C18F14984   5.165   1.215   8.604 -0.1902 -0.6997  0.0431
  137OSM   H18F14985   5.122   1.139   8.672 -3.5776  0.5031 -0.5642
  137OSM   H18G14986   5.163   1.320   8.643  1.2809 -0.4560 -0.4771
  137OSM   H18H14987   5.270   1.196   8.572  0.1938  3.2956 -1.6993
  138OSM      N14988   3.269   4.161   5.888  0.6599 -0.6902  0.0012
  138OSM    C1514989   3.134   4.226   5.872  0.5674 -0.0744  0.3529
  138OSM   H15A14990   3.120   4.243   5.766  3.2730 -0.9973 -0.2138
  138OSM   H15B14991   3.142   4.319   5.926  2.1946  0.0379 -0.0491
  138OSM   H15C14992   3.050   4.166   5.906 -0.4724  0.8577 -0.4695
  138OSM    C1414993   3.269   4.045   5.799 -0.5442 -0.9132  0.6040
  138OSM   H14A14994   3.237   4.072   5.699  1.9293 -0.2619 -0.0908
  138OSM   H14B14995   3.193   3.975   5.831 -2.1301 -0.7981 -2.5369
  138OSM   H14C14996   3.363   3.994   5.780  0.1413  0.4833  0.1091
  138OSM    C1314997   3.378   4.255   5.847 -0.1039 -0.7597  0.2359
  138OSM   H13A14998   3.371   4.280   5.742  0.2916  0.1966  0.4319
  138OSM   H13B14999   3.474   4.206   5.859  0.3472 -0.1089 -0.6164
  138OSM   H13C15000   3.379   4.342   5.911  0.0315  0.5498 -1.4775
  138OSM    C1215001   3.284   4.123   6.031  0.4514  0.2852  0.8044
  138OSM   H12A15002   3.260   4.204   6.099  2.0276  0.1480  1.5643
  138OSM   H12B15003   3.389   4.109   6.051  0.0918 -3.5225  0.8718
  138OSM    C1115004   3.206   4.001   6.081 -0.2228 -0.3075  0.1874
  138OSM   H11A15005   3.096   4.005   6.065 -0.3617 -1.4694  0.7516
  138OSM   H11B15006   3.208   4.005   6.192 -0.2416 -0.6068  0.1994
  138OSM      P15007   3.383   3.811   6.058 -0.0346 -0.1974  0.0483
  138OSM    O1315008   3.396   3.691   5.970  0.2601 -0.0070 -0.7932
  138OSM    O1415009   3.492   3.911   6.045  0.1032 -0.0613 -0.2061
  138OSM    O1115010   3.374   3.773   6.212 -0.2304  0.2773  0.4058
  138OSM    O1215011   3.246   3.884   6.025  0.0310  0.1857  0.4256
  138OSM    C1S15012   3.250   3.713   6.264 -0.6150 -0.4938 -0.4489
  138OSM    H1S15013   3.231   3.609   6.230  0.4957 -1.0805  0.6682
  138OSM    H1T15014   3.160   3.772   6.236 -0.9350 -0.9452 -0.3789
  138OSM     NF15015   3.140   3.644   6.461  0.0463  0.6038 -0.3010
  138OSM    HNF15016   3.063   3.701   6.490 -1.7630 -2.4097  1.3577
  138OSM    C2S15017   3.264   3.700   6.427  0.4069  0.7735  0.3730
  138OSM    H2S15018   3.343   3.624   6.449  0.7532  1.3887  1.3690
  138OSM    C3S15019   3.305   3.834   6.484  0.0898 -0.0806  0.8633
  138OSM    H3S15020   3.226   3.907   6.455  0.7375 -0.1117 -1.1099
  138OSM     O315021   3.426   3.905   6.440  0.3294  0.6173 -0.6375
  138OSM    HO315022   3.434   3.859   6.356 -2.4047 -0.2388 -0.5397
  138OSM    C4S15023   3.302   3.813   6.627  0.4694 -0.3754 -0.1204
  138OSM    H4S15024   3.204   3.834   6.671 -0.7517  0.0405 -2.8500
  138OSM    C5S15025   3.403   3.759   6.698 -0.1082 -0.1591  0.5972
  138OSM    H5S15026   3.493   3.742   6.637  0.2842  0.1302  1.0870
  138OSM    C6S15027   3.406   3.722   6.844  0.1311  1.5566 -0.8788
  138OSM    H6S15028   3.500   3.759   6.890  0.1122 -0.4952  0.9666
  138OSM    H6T15029   3.402   3.611   6.854  0.1190  1.5734 -0.6909
  138OSM    C7S15030   3.291   3.774   6.933 -0.5817  0.2129  0.4161
  138OSM    H7S15031   3.189   3.748   6.898 -1.1407  0.6399  1.6887
  138OSM    H7T15032   3.295   3.885   6.941 -1.7891  0.2943  0.0896
  138OSM    C8S15033   3.307   3.727   7.079  0.0162  0.2294  0.5040
  138OSM    H8S15034   3.330   3.618   7.083 -0.7683  0.0981  1.7425
  138OSM    H8T15035   3.208   3.745   7.125  0.2066  0.5113  0.8061
  138OSM    C9S15036   3.416   3.793   7.157 -0.4644 -0.5288 -0.1797
  138OSM    H9S15037   3.386   3.899   7.169  1.0938 -0.0200 -0.5379
  138OSM    H9T15038   3.510   3.797   7.098 -1.5662  0.0712 -1.9495
  138OSM   C10S15039   3.454   3.721   7.288 -0.5334  0.7008  0.7512
  138OSM   H10S15040   3.540   3.774   7.335 -0.2249 -1.9070  3.3960
  138OSM   H10T15041   3.460   3.610   7.284  0.3944  0.7739 -0.8374
  138OSM   C11S15042   3.347   3.755   7.393  0.4980  0.2198  0.1037
  138OSM   H11S15043   3.247   3.720   7.358  0.6992 -0.2073 -0.0638
  138OSM   H11T15044   3.355   3.865   7.402 -3.9433  0.8031 -0.7553
  138OSM   C12S15045   3.369   3.696   7.532 -0.2709  0.1558  0.3187
  138OSM   H12S15046   3.393   3.588   7.522 -1.5797 -0.4461  2.7933
  138OSM   H12T15047   3.274   3.690   7.589  1.2336 -1.1405  2.8827
  138OSM   C13S15048   3.474   3.777   7.616  0.3163  0.0783 -0.4573
  138OSM   H13S15049   3.445   3.884   7.609  0.0560  0.1297  1.0918
  138OSM   H13T15050   3.576   3.753   7.579  0.5306  0.4035 -0.0851
  138OSM   C14S15051   3.468   3.744   7.768  1.4811  0.2993  0.6513
  138OSM   H14S15052   3.544   3.668   7.793  1.7095  1.1398  2.7080
  138OSM   H14T15053   3.372   3.689   7.780  0.7989  1.2524 -0.1802
  138OSM   C15S15054   3.469   3.872   7.864  0.2712 -0.9016  0.0625
  138OSM   H15S15055   3.367   3.916   7.851  1.2375  1.2280 -0.8578
  138OSM   H15T15056   3.547   3.945   7.833 -1.6949  0.0016 -3.2563
  138OSM   C16S15057   3.495   3.839   8.007  0.2585 -0.1708  0.5789
  138OSM   H16S15058   3.585   3.775   8.018 -0.0800 -0.7501  0.1099
  138OSM   H16T15059   3.414   3.774   8.047  1.2055 -1.6829  0.1566
  138OSM   C17S15060   3.517   3.963   8.085  0.2779 -0.2968  0.3315
  138OSM   H17S15061   3.427   4.024   8.063  0.5273 -0.5830 -1.6596
  138OSM   H17T15062   3.601   4.022   8.041 -0.6604  0.9284  0.1274
  138OSM   C18S15063   3.535   3.942   8.226 -0.2988  0.4097 -1.0626
  138OSM   H18S15064   3.511   4.029   8.291  0.9101  0.1122 -0.1666
  138OSM   H18T15065   3.643   3.916   8.231 -0.6289 -1.3402 -2.2609
  138OSM   H18U15066   3.493   3.848   8.266  3.9921 -0.1760  3.0048
  138OSM    C1F15067   3.099   3.516   6.439 -0.0329 -0.2538 -0.4540
  138OSM     OF15068   3.159   3.430   6.377 -0.1806  0.0443  0.6837
  138OSM    C2F15069   2.964   3.486   6.486 -0.2118 -0.2846 -0.0308
  138OSM    H2F15070   2.949   3.379   6.457  1.9848 -1.1055  1.6261
  138OSM    H2G15071   2.885   3.545   6.435 -0.9926 -0.3212  1.1057
  138OSM    C3F15072   2.940   3.502   6.643  0.1926 -0.2438 -0.3071
  138OSM    H3F15073   2.832   3.482   6.657  0.6226 -2.6455 -0.0086
  138OSM    H3G15074   2.956   3.608   6.670 -1.6031  0.4723 -1.7884
  138OSM    C4F15075   3.026   3.413   6.736 -0.1630 -0.8347  0.2214
  138OSM    H4F15076   3.133   3.441   6.729 -0.1180 -1.0894 -0.1570
  138OSM    H4G15077   3.020   3.304   6.715  0.2903 -0.9121  0.4669
  138OSM    C5F15078   3.002   3.435   6.885  0.1376  0.5705  0.3690
  138OSM    H5F15079   2.997   3.544   6.908  2.0628  0.3646  2.0571
  138OSM    H5G15080   3.088   3.394   6.943  0.6318  0.1812 -0.6241
  138OSM    C6F15081   2.875   3.353   6.945 -0.0727  0.0597 -0.0916
  138OSM    H6F15082   2.899   3.335   7.051  2.8072  1.5599 -0.3950
  138OSM    H6G15083   2.874   3.250   6.905  0.8158 -0.2860  0.7523
  138OSM    C7F15084   2.744   3.432   6.916 -0.2361  0.7827  0.4062
  138OSM    H7F15085   2.708   3.379   6.825 -0.1547 -1.0091  1.3550
  138OSM    H7G15086   2.769   3.540   6.911 -0.7237  0.9202  0.9075
  138OSM    C8F15087   2.642   3.423   7.035  0.1734 -0.1179  0.3761
  138OSM    H8F15088   2.567   3.495   6.996  1.8416  1.1223 -0.7140
  138OSM    H8G15089   2.682   3.470   7.128  1.7865  0.6380 -0.6473
  138OSM    C9F15090   2.598   3.280   7.038 -1.4481  0.1611 -0.4460
  138OSM    H9F15091   2.682   3.209   7.035 -1.6567 -0.0929 -0.2892
  138OSM   C10F15092   2.473   3.243   7.035  0.6151 -0.0461  0.5471
  138OSM   H10F15093   2.441   3.138   7.040 -0.8484  0.2934 -0.8867
  138OSM   C11F15094   2.355   3.336   7.024  0.1251 -0.5921  0.2070
  138OSM   H11F15095   2.259   3.285   7.003  0.3971 -1.0391  0.0342
  138OSM   H11G15096   2.373   3.407   6.941  0.4751 -0.3720  0.4648
  138OSM   C12F15097   2.327   3.426   7.150  0.2254 -0.7289  0.7253
  138OSM   H12F15098   2.240   3.494   7.138  2.4723  2.2897  0.1284
  138OSM   H12G15099   2.421   3.482   7.170 -0.5225  0.9906 -0.3220
  138OSM   C13F15100   2.286   3.340   7.265 -0.0489  0.0289  0.1620
  138OSM   H13F15101   2.350   3.250   7.278  0.7903  0.5566 -0.2573
  138OSM   H13G15102   2.185   3.293   7.262 -0.5707  1.1210  0.2380
  138OSM   C14F15103   2.303   3.416   7.406  0.1228 -0.0015 -0.2254
  138OSM   H14F15104   2.271   3.522   7.395  1.2953  0.2621 -1.2985
  138OSM   H14G15105   2.412   3.429   7.420  0.2834 -1.0080 -0.5156
  138OSM   C15F15106   2.228   3.351   7.530 -0.2218 -0.4697 -0.0559
  138OSM   H15F15107   2.268   3.248   7.532 -0.5271 -0.6509 -1.5841
  138OSM   H15G15108   2.121   3.332   7.507 -0.2581 -3.9318  2.2782
  138OSM   C16F15109   2.242   3.417   7.661  0.2372  0.1105 -0.0935
  138OSM   H16F15110   2.176   3.353   7.723 -3.1471  0.4986 -2.9819
  138OSM   H16G15111   2.191   3.514   7.643 -0.5198 -0.6148 -2.1014
  138OSM   C17F15112   2.379   3.435   7.723 -1.0265  0.4696  0.5329
  138OSM   H17F15113   2.448   3.480   7.648  0.1448 -4.4139 -1.7109
  138OSM   H17G15114   2.424   3.334   7.733  1.0765  1.5037  2.1560
  138OSM   C18F15115   2.374   3.496   7.862  0.1786  1.3640  0.3590
  138OSM   H18F15116   2.479   3.491   7.897  0.8338 -1.0691 -1.6433
  138OSM   H18G15117   2.310   3.432   7.926  0.3405  0.7689 -0.0651
  138OSM   H18H15118   2.348   3.604   7.867 -2.5648  1.0012 -2.4636
  139OSM      N15119   2.715   1.241   6.215 -0.3823  0.3988 -0.2336
  139OSM    C1515120   2.773   1.142   6.119  0.0746 -0.7641 -0.3754
  139OSM   H15A15121   2.879   1.129   6.137 -0.0379 -0.5222  0.5168
  139OSM   H15B15122   2.759   1.171   6.016 -0.3568 -1.5214 -0.5376
  139OSM   H15C15123   2.723   1.047   6.135  0.5789 -1.2652 -1.6161
  139OSM    C1415124   2.564   1.243   6.207 -0.1613  0.2817  0.2823
  139OSM   H14A15125   2.523   1.318   6.272  1.6033  1.5203  0.0376
  139OSM   H14B15126   2.519   1.148   6.232  0.0048 -0.2778 -1.3652
  139OSM   H14C15127   2.534   1.267   6.106 -0.5413 -1.3858 -0.0308
  139OSM    C1315128   2.756   1.205   6.357 -0.1133  0.3809 -0.3459
  139OSM   H13A15129   2.864   1.201   6.358 -0.1442 -1.9713 -0.0753
  139OSM   H13B15130   2.723   1.107   6.388 -2.1834  1.0407 -0.3305
  139OSM   H13C15131   2.716   1.272   6.431  1.0202  1.0592 -0.3315
  139OSM    C1215132   2.765   1.386   6.190 -0.5430 -0.3237  0.2856
  139OSM   H12A15133   2.728   1.410   6.091  0.5894 -0.1077 -0.1030
  139OSM   H12B15134   2.872   1.380   6.176 -0.1807  1.5360  1.8001
  139OSM    C1115135   2.727   1.494   6.290 -0.3020 -0.4237  0.1437
  139OSM   H11A15136   2.763   1.591   6.250 -0.7040 -0.5770 -0.5941
  139OSM   H11B15137   2.787   1.481   6.383  1.5086  0.6835 -0.8217
  139OSM      P15138   2.494   1.595   6.227 -0.0713  0.0645 -0.4543
  139OSM    O1315139   2.555   1.627   6.098  0.5806  0.2200  0.5541
  139OSM    O1415140   2.357   1.538   6.216 -0.2642  0.8524  0.4325
  139OSM    O1115141   2.476   1.731   6.304  0.3686 -0.2574 -0.8741
  139OSM    O1215142   2.588   1.498   6.320 -0.0123  0.2240  0.1184
  139OSM    C1S15143   2.420   1.734   6.431 -0.3083 -0.1079  0.4686
  139OSM    H1S15144   2.358   1.644   6.449 -2.9426  0.9760 -2.2984
  139OSM    H1T15145   2.357   1.825   6.442  2.2806  1.6752  1.6400
  139OSM     NF15146   2.445   1.723   6.677  0.2615 -0.1562 -1.6940
  139OSM    HNF15147   2.398   1.809   6.695  1.9138  0.3602  0.6967
  139OSM    C2S15148   2.520   1.739   6.549  0.0982  0.4950 -0.0239
  139OSM    H2S15149   2.598   1.660   6.545  0.9500  1.2528  0.9459
  139OSM    C3S15150   2.620   1.868   6.542  0.3958  0.1507  0.8327
  139OSM    H3S15151   2.557   1.957   6.561 -1.3622 -0.6412 -0.9953
  139OSM     O315152   2.691   1.888   6.422 -0.2244 -0.0424 -0.1942
  139OSM    HO315153   2.628   1.856   6.357 -0.9046  1.2015 -0.1775
  139OSM    C4S15154   2.719   1.863   6.652 -0.0423  0.4480 -0.2151
  139OSM    H4S15155   2.778   1.770   6.654 -1.5609 -0.5371  0.2342
  139OSM    C5S15156   2.763   1.966   6.726 -0.7623 -0.7544  0.5020
  139OSM    H5S15157   2.730   2.070   6.711 -4.7685 -1.9648 -0.2409
  139OSM    C6S15158   2.858   1.946   6.839  0.5454 -0.7245  0.8170
  139OSM    H6S15159   2.808   1.989   6.928 -0.8271  1.3386 -0.8474
  139OSM    H6T15160   2.948   2.009   6.822 -0.4442  0.8652  1.2827
  139OSM    C7S15161   2.902   1.804   6.887 -0.0576  0.4332 -0.2765
  139OSM    H7S15162   2.942   1.737   6.807 -1.9449  1.2899 -2.0322
  139OSM    H7T15163   2.813   1.751   6.927  1.2837  1.1136  4.0866
  139OSM    C8S15164   2.998   1.796   7.006 -0.6122 -0.5150 -0.4325
  139OSM    H8S15165   3.097   1.838   6.980 -0.8784  0.8221  0.6267
  139OSM    H8T15166   3.003   1.690   7.039 -1.4306 -0.2557  0.5729
  139OSM    C9S15167   2.940   1.875   7.129 -0.2425  0.9493  0.2814
  139OSM    H9S15168   2.829   1.870   7.119 -0.0460 -0.8287 -1.9246
  139OSM    H9T15169   2.987   1.975   7.134  0.8946  0.4003  0.8657
  139OSM   C10S15170   2.975   1.821   7.262  0.5306 -1.0429 -0.7263
  139OSM   H10S15171   3.085   1.809   7.273  0.5057  0.1759  1.4146
  139OSM   H10T15172   2.924   1.723   7.272 -2.3578  0.3013 -1.2775
  139OSM   C11S15173   2.946   1.905   7.383 -0.1971  0.0291  0.4563
  139OSM   H11S15174   2.836   1.922   7.393 -0.7981 -1.5703 -2.4112
  139OSM   H11T15175   2.995   2.001   7.358 -0.9351 -0.3428 -2.8108
  139OSM   C12S15176   2.995   1.846   7.513  0.5240  0.8562  0.4681
  139OSM   H12S15177   3.106   1.852   7.520  0.6196 -1.2937  1.5751
  139OSM   H12T15178   2.963   1.740   7.510 -0.6490  1.1025  2.2490
  139OSM   C13S15179   2.942   1.928   7.633  0.1159  0.6597 -0.5905
  139OSM   H13S15180   2.833   1.911   7.648  0.1309  0.3804 -0.7990
  139OSM   H13T15181   2.956   2.033   7.602  0.3875  0.2514 -1.8940
  139OSM   C14S15182   3.019   1.914   7.766  0.2214  0.0072 -0.3907
  139OSM   H14S15183   3.126   1.940   7.760  0.5691 -1.3458 -0.4062
  139OSM   H14T15184   3.003   1.809   7.798  1.6314  0.1691  0.9269
  139OSM   C15S15185   2.951   2.003   7.883 -0.4958 -0.4327 -0.3222
  139OSM   H15S15186   2.849   1.964   7.903  0.8220 -3.8859  0.3681
  139OSM   H15T15187   2.930   2.110   7.861 -0.6754 -0.4906 -0.4381
  139OSM   C16S15188   3.038   1.992   8.003  0.6652  0.4391 -0.4381
  139OSM   H16S15189   3.145   1.979   7.975  0.0013 -2.8934 -1.9185
  139OSM   H16T15190   3.006   1.903   8.061  1.3745  0.4996  0.0704
  139OSM   C17S15191   3.031   2.117   8.096  0.2375  0.6474  1.1554
  139OSM   H17S15192   2.930   2.127   8.142 -0.5640 -1.5310  0.0191
  139OSM   H17T15193   3.038   2.205   8.028 -0.2594 -0.3746 -0.2580
  139OSM   C18S15194   3.141   2.116   8.196  0.9838  0.1309  0.1274
  139OSM   H18S15195   3.238   2.084   8.152  0.3101 -0.1980 -1.1849
  139OSM   H18T15196   3.119   2.051   8.283  1.2123 -1.1410 -0.7262
  139OSM   H18U15197   3.157   2.215   8.243 -0.1227  0.7956 -0.8435
  139OSM    C1F15198   2.409   1.611   6.749  0.7769  0.3168  0.0734
  139OSM     OF15199   2.465   1.511   6.715 -0.2191 -0.3887  1.2041
  139OSM    C2F15200   2.293   1.610   6.843 -0.2706 -0.1866  0.2080
  139OSM    H2F15201   2.247   1.511   6.824 -1.3215  0.2039  0.6722
  139OSM    H2G15202   2.238   1.702   6.813  3.2020  2.2494  0.6346
  139OSM    C3F15203   2.334   1.639   6.989  1.2778  0.1070 -0.0729
  139OSM    H3F15204   2.247   1.656   7.056  1.4026  0.1650  0.0775
  139OSM    H3G15205   2.400   1.727   7.001  1.3034 -0.1854  2.7734
  139OSM    C4F15206   2.422   1.532   7.061  0.9455 -0.6393  0.5880
  139OSM    H4F15207   2.462   1.460   6.986 -0.1686 -0.2111 -0.4537
  139OSM    H4G15208   2.356   1.473   7.127  1.7557  0.4769  2.4784
  139OSM    C5F15209   2.536   1.594   7.149 -0.5561 -0.6803  0.2199
  139OSM    H5F15210   2.598   1.659   7.084 -1.5904  0.6618  0.5407
  139OSM    H5G15211   2.595   1.508   7.187  0.3563 -0.0320  0.2864
  139OSM    C6F15212   2.486   1.676   7.275 -0.4002  0.1581  0.0893
  139OSM    H6F15213   2.423   1.598   7.323 -1.4802 -0.4287 -2.1212
  139OSM    H6G15214   2.423   1.761   7.240  0.6788  0.6555 -0.6740
  139OSM    C7F15215   2.601   1.720   7.364  0.1020  0.1544  0.3878
  139OSM    H7F15216   2.650   1.807   7.318  1.5053 -0.1121  1.3178
  139OSM    H7G15217   2.674   1.636   7.361  2.0271  1.6914  2.1402
  139OSM    C8F15218   2.567   1.742   7.512 -0.2041  0.2365 -0.0058
  139OSM    H8F15219   2.664   1.778   7.553 -0.2024 -1.3241  1.4545
  139OSM    H8G15220   2.544   1.644   7.559  1.4878  0.2273  0.9062
  139OSM    C9F15221   2.454   1.836   7.522  0.3453 -0.0037 -0.2315
  139OSM    H9F15222   2.405   1.858   7.426  2.2117  0.8463 -1.0451
  139OSM   C10F15223   2.419   1.903   7.634 -0.9804  0.2240  0.3757
  139OSM   H10F15224   2.335   1.973   7.637  1.6099  3.5455  2.2145
  139OSM   C11F15225   2.487   1.897   7.771 -0.3972  0.3230 -0.3084
  139OSM   H11F15226   2.586   1.846   7.763  0.4255  1.5083  1.5368
  139OSM   H11G15227   2.442   1.834   7.850  1.6525 -0.8556  0.0025
  139OSM   C12F15228   2.526   2.035   7.821  0.1530  0.1281 -0.3561
  139OSM   H12F15229   2.589   2.078   7.740 -1.9087  0.2070 -2.0131
  139OSM   H12G15230   2.584   2.025   7.915 -0.4357 -1.0078 -0.0897
  139OSM   C13F15231   2.409   2.135   7.838  0.1362  0.4612 -0.8348
  139OSM   H13F15232   2.335   2.093   7.910  1.4252 -0.4297  0.0105
  139OSM   H13G15233   2.357   2.157   7.742 -1.3196  0.4786 -0.0835
  139OSM   C14F15234   2.464   2.265   7.904  0.4290  0.2690  0.5412
  139OSM   H14F15235   2.536   2.318   7.839 -2.2042  0.3088 -2.6249
  139OSM   H14G15236   2.508   2.256   8.006 -0.8259  2.2709  1.3325
  139OSM   C15F15237   2.349   2.368   7.923 -0.3583  0.0072 -0.3563
  139OSM   H15F15238   2.281   2.331   8.002 -0.4229  1.2744  0.1964
  139OSM   H15G15239   2.296   2.380   7.826  1.0362 -1.6856 -1.3882
  139OSM   C16F15240   2.407   2.506   7.974  0.0809  0.1532 -0.2395
  139OSM   H16F15241   2.492   2.530   7.906 -1.4574  1.3514 -1.8438
  139OSM   H16G15242   2.432   2.505   8.082 -1.1183  0.1155  0.0568
  139OSM   C17F15243   2.314   2.624   7.945 -0.2340 -0.4706  0.4827
  139OSM   H17F15244   2.209   2.602   7.975  0.5184 -1.6961  2.4252
  139OSM   H17G15245   2.317   2.630   7.834  1.3543 -1.5171  0.4380
  139OSM   C18F15246   2.355   2.754   8.024  0.7015 -0.0443  0.5360
  139OSM   H18F15247   2.367   2.735   8.132  0.1112  0.2734  0.6630
  139OSM   H18G15248   2.280   2.831   7.996 -0.0008  0.5046  3.6108
  139OSM   H18H15249   2.445   2.797   7.975 -0.1344  1.1744  0.0409
  140OSM      N15250   2.077   6.647   6.247 -0.2168 -0.1263  0.6696
  140OSM    C1515251   1.978   6.654   6.129 -0.0620  0.0477  0.1328
  140OSM   H15A15252   2.006   6.598   6.041  4.2877 -0.4495  1.6222
  140OSM   H15B15253   1.966   6.752   6.085 -2.9725 -0.9915 -1.7306
  140OSM   H15C15254   1.882   6.625   6.169  0.7964  0.6402  2.8326
  140OSM    C1415255   2.223   6.686   6.204  0.2387  0.0575 -1.1215
  140OSM   H14A15256   2.234   6.792   6.182 -0.7535  0.9462  2.0547
  140OSM   H14B15257   2.250   6.621   6.122  0.4559 -0.4859 -0.6255
  140OSM   H14C15258   2.288   6.677   6.290  1.2262  1.9462 -1.5918
  140OSM    C1315259   2.022   6.736   6.359  0.4060 -0.2445  0.0171
  140OSM   H13A15260   2.088   6.731   6.444 -0.4881  2.6107  0.9757
  140OSM   H13B15261   1.922   6.713   6.391  0.4440 -0.5121 -0.0506
  140OSM   H13C15262   2.029   6.839   6.328  1.1647 -0.1651  0.4200
  140OSM    C1215263   2.084   6.505   6.289 -0.1662 -0.2307  0.1902
  140OSM   H12A15264   1.982   6.471   6.301  0.1268 -0.7937  1.1598
  140OSM   H12B15265   2.128   6.487   6.386 -1.1728 -0.6860  0.5741
  140OSM    C1115266   2.151   6.404   6.190  0.8226 -0.1123 -0.2122
  140OSM   H11A15267   2.121   6.444   6.090 -0.4304  0.8013  0.4997
  140OSM   H11B15268   2.114   6.299   6.194 -1.3427  0.4275 -2.6876
  140OSM      P15269   2.368   6.341   6.308 -0.0773  0.1727  0.4362
  140OSM    O1315270   2.337   6.197   6.303 -0.0240 -0.0064  0.3689
  140OSM    O1415271   2.514   6.371   6.300  0.0998  0.0621 -0.6717
  140OSM    O1115272   2.299   6.386   6.443  0.1805 -0.0504 -0.7411
  140OSM    O1215273   2.291   6.411   6.190 -0.7689  0.6801  0.1064
  140OSM    C1S15274   2.357   6.491   6.515  0.5804  0.4241  0.4353
  140OSM    H1S15275   2.307   6.582   6.476  0.3851 -0.8801 -2.6816
  140OSM    H1T15276   2.467   6.501   6.499  0.5500 -1.1602 -1.0313
  140OSM     NF15277   2.354   6.597   6.749  0.3063 -0.4345 -0.8840
  140OSM    HNF15278   2.441   6.617   6.794  0.4975 -0.5249 -1.2104
  140OSM    C2S15279   2.334   6.474   6.670  0.6470 -0.4459 -0.6115
  140OSM    H2S15280   2.230   6.435   6.677  0.7195 -1.2055 -2.7789
  140OSM    C3S15281   2.425   6.360   6.721 -0.1696  0.0017 -0.2987
  140OSM    H3S15282   2.532   6.390   6.724 -0.3201  0.5042  0.5343
  140OSM     O315283   2.421   6.241   6.645  0.2708 -0.0923  0.0381
  140OSM    HO315284   2.359   6.248   6.571  1.0105 -0.4221 -0.6334
  140OSM    C4S15285   2.389   6.339   6.871 -0.6192 -0.7880  0.0172
  140OSM    H4S15286   2.424   6.422   6.934  1.5258 -0.8998 -0.9253
  140OSM    C5S15287   2.330   6.228   6.929 -0.4837  0.1689 -0.3045
  140OSM    H5S15288   2.310   6.141   6.865 -2.5462  0.5066 -0.1661
  140OSM    C6S15289   2.287   6.210   7.072  0.1091  0.1119  0.2544
  140OSM    H6S15290   2.176   6.207   7.069 -0.1579  2.4721  3.0377
  140OSM    H6T15291   2.300   6.304   7.129  1.7390  0.3903 -0.5018
  140OSM    C7S15292   2.350   6.083   7.122  0.0345 -0.3899  0.0381
  140OSM    H7S15293   2.460   6.094   7.126 -0.1183  1.0010  1.6659
  140OSM    H7T15294   2.321   6.004   7.050 -2.8853 -1.1047  1.8019
  140OSM    C8S15295   2.302   6.023   7.256  0.0954 -0.0613  0.4946
  140OSM    H8S15296   2.354   5.929   7.286  1.3289  0.2911 -0.4867
  140OSM    H8T15297   2.193   5.999   7.257 -0.0348  0.5051  1.8019
  140OSM    C9S15298   2.328   6.129   7.366 -0.6860  0.2162  0.2747
  140OSM    H9S15299   2.259   6.213   7.344  1.3205  1.5906 -1.2055
  140OSM    H9T15300   2.432   6.166   7.351 -0.7096  0.4597  0.6862
  140OSM   C10S15301   2.309   6.070   7.504  0.1179 -0.1133 -0.0054
  140OSM   H10S15302   2.375   5.981   7.496  1.2890  0.8564 -1.8295
  140OSM   H10T15303   2.200   6.049   7.515  0.7002 -3.6658  0.2357
  140OSM   C11S15304   2.369   6.155   7.617  0.0202  0.8393 -0.9625
  140OSM   H11S15305   2.292   6.233   7.627  0.0334  0.7616 -0.2541
  140OSM   H11T15306   2.457   6.203   7.568  1.2516  0.1610  0.4890
  140OSM   C12S15307   2.382   6.097   7.752  0.4148  0.6984  0.3286
  140OSM   H12S15308   2.430   6.173   7.817  1.9464  1.8286 -1.9885
  140OSM   H12T15309   2.445   6.005   7.751  1.0239  1.0926  1.1545
  140OSM   C13S15310   2.248   6.080   7.819  0.2625  0.0325  0.1335
  140OSM   H13S15311   2.190   6.017   7.747  0.8308  1.0651 -1.2645
  140OSM   H13T15312   2.187   6.172   7.826 -0.4472 -0.3643 -0.5548
  140OSM   C14S15313   2.250   6.010   7.953 -0.2115 -0.2298  0.2727
  140OSM   H14S15314   2.318   5.924   7.936  0.6923  0.3993  0.6308
  140OSM   H14T15315   2.150   5.972   7.985 -0.0824  0.1996  1.2285
  140OSM   C15S15316   2.306   6.094   8.071  0.6970 -1.2281 -0.4124
  140OSM   H15S15317   2.251   6.191   8.076 -0.3904 -1.8050 -0.9355
  140OSM   H15T15318   2.412   6.114   8.044  0.4398  1.5232  0.2610
  140OSM   C16S15319   2.291   6.032   8.207  0.1190 -0.4081 -0.2590
  140OSM   H16S15320   2.319   5.925   8.218 -3.2693 -1.2760  0.9169
  140OSM   H16T15321   2.182   6.037   8.226  0.0089 -4.2747  0.7788
  140OSM   C17S15322   2.343   6.118   8.323 -0.2620  0.0522  0.3027
  140OSM   H17S15323   2.279   6.208   8.332  0.7068  0.7316  0.5789
  140OSM   H17T15324   2.441   6.160   8.290 -0.2247 -1.4715 -1.6554
  140OSM   C18S15325   2.356   6.048   8.464 -0.1539 -0.5330 -0.2931
  140OSM   H18S15326   2.439   5.976   8.453  0.8383  0.3766  0.9420
  140OSM   H18T15327   2.257   6.008   8.494  0.2862 -0.8645  0.7297
  140OSM   H18U15328   2.384   6.118   8.546 -0.3911 -0.0984 -0.5749
  140OSM    C1F15329   2.269   6.698   6.729 -0.2794  0.3230  0.3079
  140OSM     OF15330   2.172   6.671   6.654  0.2553 -0.0754  0.0432
  140OSM    C2F15331   2.289   6.839   6.792 -1.1852  0.6050  0.3534
  140OSM    H2F15332   2.306   6.907   6.706 -1.9651 -1.7223 -1.7494
  140OSM    H2G15333   2.372   6.851   6.865 -1.3995  2.4855  0.3438
  140OSM    C3F15334   2.166   6.887   6.866 -0.3109 -0.8094  0.5318
  140OSM    H3F15335   2.089   6.894   6.786 -1.2327 -0.3830  1.4317
  140OSM    H3G15336   2.177   6.989   6.909 -0.9214 -0.7039  0.4503
  140OSM    C4F15337   2.119   6.782   6.970  0.1786 -0.2125 -0.2602
  140OSM    H4F15338   2.076   6.689   6.926 -1.2861 -1.0933  2.7520
  140OSM    H4G15339   2.038   6.833   7.026  0.9019  1.5051 -0.6999
  140OSM    C5F15340   2.227   6.736   7.066 -0.1797 -0.2301  0.4338
  140OSM    H5F15341   2.270   6.826   7.114 -4.4513  1.1940  2.0960
  140OSM    H5G15342   2.300   6.681   7.003  0.4521 -1.8903  2.5058
  140OSM    C6F15343   2.171   6.652   7.175 -0.0812  0.6032 -0.3091
  140OSM    H6F15344   2.122   6.560   7.136  0.8600 -0.6110  1.2207
  140OSM    H6G15345   2.096   6.716   7.226  0.8437  2.8510 -1.6297
  140OSM    C7F15346   2.282   6.598   7.267 -0.2708  0.3529 -0.3138
  140OSM    H7F15347   2.326   6.684   7.321 -2.2109  2.2456 -1.5739
  140OSM    H7G15348   2.370   6.550   7.221  1.4346  2.2192  0.8583
  140OSM    C8F15349   2.223   6.535   7.401  0.0657 -0.9113 -0.5402
  140OSM    H8F15350   2.173   6.439   7.377 -1.0978 -0.9445  1.8263
  140OSM    H8G15351   2.135   6.591   7.436  0.7339  0.0721 -0.3952
  140OSM    C9F15352   2.323   6.517   7.507  0.2038  0.0432 -0.5161
  140OSM    H9F15353   2.420   6.482   7.470  0.7337  2.0061 -1.0862
  140OSM   C10F15354   2.313   6.553   7.635  0.2549 -0.3777 -0.0002
  140OSM   H10F15355   2.401   6.539   7.700  1.0263  2.1937 -0.3799
  140OSM   C11F15356   2.193   6.621   7.701  0.3547 -0.2288  0.1693
  140OSM   H11F15357   2.103   6.558   7.715 -1.8934  3.0420  1.6452
  140OSM   H11G15358   2.154   6.711   7.648  0.3763  0.8511  1.9146
  140OSM   C12F15359   2.222   6.672   7.845  0.1321  0.2210 -0.0247
  140OSM   H12F15360   2.139   6.738   7.877 -0.3941  0.0776 -1.0584
  140OSM   H12G15361   2.309   6.741   7.856  0.3503 -0.3364  2.3208
  140OSM   C13F15362   2.228   6.561   7.959 -0.4890 -0.5155  1.1325
  140OSM   H13F15363   2.298   6.489   7.912  0.5775  1.8467 -1.1721
  140OSM   H13G15364   2.127   6.518   7.976 -1.6849  0.5688 -2.3119
  140OSM   C14F15365   2.306   6.609   8.081  0.1217 -0.3302 -0.6755
  140OSM   H14F15366   2.251   6.693   8.130 -0.3784 -0.5315 -0.8931
  140OSM   H14G15367   2.408   6.640   8.049 -0.4611 -0.1320 -2.4060
  140OSM   C15F15368   2.321   6.501   8.192  0.3545  0.1276  0.4187
  140OSM   H15F15369   2.356   6.409   8.141  0.0209 -0.1733  0.7166
  140OSM   H15G15370   2.218   6.472   8.225  1.4760 -1.4591  2.8252
  140OSM   C16F15371   2.404   6.537   8.315  0.0534  0.2079  0.0426
  140OSM   H16F15372   2.392   6.455   8.389  0.8175  0.6158  0.6371
  140OSM   H16G15373   2.369   6.632   8.361  1.0692  0.3736  0.4962
  140OSM   C17F15374   2.549   6.567   8.279 -0.0636  0.3522  0.3479
  140OSM   H17F15375   2.562   6.657   8.215  0.3789 -0.5947 -0.9367
  140OSM   H17G15376   2.561   6.471   8.224 -5.8805  0.0781 -1.1045
  140OSM   C18F15377   2.633   6.582   8.409 -0.1838  0.4065 -0.3007
  140OSM   H18F15378   2.738   6.562   8.379 -0.0122  0.8778 -0.0106
  140OSM   H18G15379   2.595   6.504   8.479 -0.6694 -1.7261 -2.7771
  140OSM   H18H15380   2.614   6.682   8.453 -2.4269 -0.3458  0.6181
  141OSM      N15381   1.320   1.173   6.036 -0.0276  0.1222  0.1293
  141OSM    C1515382   1.355   1.079   5.933 -0.3449  0.5379  0.2476
  141OSM   H15A15383   1.462   1.067   5.929 -0.1926  1.0946  1.9960
  141OSM   H15B15384   1.326   1.102   5.831 -0.0319  0.9118  0.2373
  141OSM   H15C15385   1.309   0.984   5.952  0.3531 -0.0313 -0.7747
  141OSM    C1415386   1.408   1.148   6.158  0.9030 -0.6297 -1.0904
  141OSM   H14A15387   1.505   1.190   6.137 -0.8129  3.5605 -1.6433
  141OSM   H14B15388   1.410   1.044   6.187  3.5816 -0.2253  0.4764
  141OSM   H14C15389   1.369   1.208   6.238 -0.1545 -2.7229  0.0510
  141OSM    C1315390   1.352   1.312   5.996 -0.2363  0.2029  0.6030
  141OSM   H13A15391   1.456   1.328   5.970 -0.2252  0.7093  0.9303
  141OSM   H13B15392   1.336   1.386   6.073  0.0760  1.8482 -0.8433
  141OSM   H13C15393   1.303   1.347   5.906  0.0670  0.5508  0.5705
  141OSM    C1215394   1.174   1.162   6.069  0.7456 -0.1389 -0.0383
  141OSM   H12A15395   1.144   1.060   6.052  1.0871  0.4004 -6.1236
  141OSM   H12B15396   1.109   1.218   6.003  1.6711 -2.2393 -2.9267
  141OSM    C1115397   1.132   1.211   6.211  0.0009  0.4656 -0.4142
  141OSM   H11A15398   1.187   1.158   6.291 -0.0138 -3.3118 -2.7018
  141OSM   H11B15399   1.023   1.196   6.227  0.5488 -0.9713  2.6897
  141OSM      P15400   1.067   1.459   6.242 -0.2854  0.1534 -0.1359
  141OSM    O1315401   1.134   1.582   6.286  0.2378 -0.4127  0.5230
  141OSM    O1415402   0.974   1.464   6.124  0.2372  0.5318  0.0579
  141OSM    O1115403   0.991   1.416   6.368 -0.0029  0.5244  0.1629
  141OSM    O1215404   1.171   1.347   6.231  0.3773  0.0667  0.0260
  141OSM    C1S15405   1.067   1.402   6.493  0.2776  0.2289 -0.1733
  141OSM    H1S15406   1.119   1.497   6.518  0.6435 -0.0406  0.1046
  141OSM    H1T15407   1.151   1.332   6.475  1.8863  2.2988 -1.1130
  141OSM     NF15408   1.069   1.336   6.738 -0.4011 -0.0129  0.0577
  141OSM    HNF15409   1.071   1.244   6.778  0.6916  0.7248  1.7871
  141OSM    C2S15410   0.983   1.360   6.619 -0.5905  0.1525 -0.0505
  141OSM    H2S15411   0.907   1.437   6.646  1.7597  2.6136 -0.1051
  141OSM    C3S15412   0.906   1.230   6.579  0.4562  0.1601 -0.1597
  141OSM    H3S15413   0.984   1.151   6.577  1.2654  0.8144  2.1954
  141OSM     O315414   0.843   1.230   6.452 -0.6996 -0.3241 -0.0548
  141OSM    HO315415   0.873   1.308   6.405 -0.1784 -0.5445 -0.0905
  141OSM    C4S15416   0.812   1.202   6.688  0.7308  0.3356 -0.1605
  141OSM    H4S15417   0.869   1.180   6.780  1.7670  2.2727 -0.2784
  141OSM    C5S15418   0.679   1.215   6.700 -0.4542  0.0069 -0.4406
  141OSM    H5S15419   0.618   1.268   6.625  0.7320  0.5098 -1.0791
  141OSM    C6S15420   0.607   1.195   6.839 -0.4598 -0.1980 -0.1386
  141OSM    H6S15421   0.507   1.156   6.809 -1.8412  1.6685  1.8037
  141OSM    H6T15422   0.583   1.293   6.884  2.1024  0.3322  0.2081
  141OSM    C7S15423   0.679   1.110   6.939 -1.0727  0.3297  0.3764
  141OSM    H7S15424   0.779   1.151   6.962 -0.2280 -0.6443 -1.3661
  141OSM    H7T15425   0.677   1.005   6.902  0.6843  0.3682  0.1170
  141OSM    C8S15426   0.595   1.110   7.071  0.5486 -0.3962  0.3760
  141OSM    H8S15427   0.493   1.073   7.047  0.1745  0.2194  0.9953
  141OSM    H8T15428   0.573   1.216   7.095 -0.9080 -0.3764 -0.9412
  141OSM    C9S15429   0.639   1.023   7.190 -0.6204 -0.9891 -0.3696
  141OSM    H9S15430   0.633   0.913   7.170 -0.9810 -1.1752  0.6835
  141OSM    H9T15431   0.570   1.042   7.275 -0.8939 -3.0466 -0.0689
  141OSM   C10S15432   0.773   1.064   7.258  0.7570 -0.1659  0.0111
  141OSM   H10S15433   0.781   1.172   7.281  2.4470 -0.4720  1.1087
  141OSM   H10T15434   0.846   1.043   7.177  0.1720 -0.1711 -0.5144
  141OSM   C11S15435   0.815   0.983   7.383 -0.5315  0.0988  0.0857
  141OSM   H11S15436   0.790   0.875   7.376 -2.0971  0.4447  0.1234
  141OSM   H11T15437   0.761   1.020   7.473 -1.7830  2.7255 -1.6420
  141OSM   C12S15438   0.966   0.997   7.414 -0.3261  0.9477  0.7105
  141OSM   H12S15439   0.995   1.104   7.404  1.0187  0.7043  1.7293
  141OSM   H12T15440   1.020   0.941   7.335 -2.7075 -0.3765 -0.0630
  141OSM   C13S15441   1.014   0.946   7.554 -0.0422  0.6951 -0.5749
  141OSM   H13S15442   0.975   1.020   7.628 -0.9123 -0.8165  0.5292
  141OSM   H13T15443   1.123   0.966   7.557 -0.4628  3.3145  1.2622
  141OSM   C14S15444   0.971   0.804   7.601  0.5297 -0.3796  0.0064
  141OSM   H14S15445   1.005   0.740   7.516  0.0638  0.9470 -1.2084
  141OSM   H14T15446   0.860   0.794   7.610  0.3344  0.0633 -1.5664
  141OSM   C15S15447   1.063   0.755   7.723  0.0426 -0.0694  0.0462
  141OSM   H15S15448   1.169   0.741   7.692 -0.1911 -0.1556 -0.7359
  141OSM   H15T15449   1.024   0.652   7.733  1.3175 -0.6969 -1.0916
  141OSM   C16S15450   1.041   0.841   7.849 -0.0676 -0.1645  0.6698
  141OSM   H16S15451   1.044   0.949   7.821  1.0961 -0.6269 -1.1932
  141OSM   H16T15452   1.122   0.824   7.923  1.1027 -2.3709 -1.0016
  141OSM   C17S15453   0.897   0.816   7.918 -0.1772 -0.2260  0.1558
  141OSM   H17S15454   0.829   0.796   7.832  0.3945  0.1653 -0.3972
  141OSM   H17T15455   0.860   0.909   7.965 -2.9893 -1.0771 -0.2022
  141OSM   C18S15456   0.889   0.695   8.008  0.2763 -0.5140  0.0363
  141OSM   H18S15457   0.917   0.604   7.952 -0.4913 -0.2160 -0.8650
  141OSM   H18T15458   0.789   0.677   8.054 -1.3028  0.5722 -2.6949
  141OSM   H18U15459   0.965   0.718   8.086  1.9852 -0.3272 -1.6002
  141OSM    C1F15460   1.138   1.431   6.795 -0.1909  0.0396  0.2674
  141OSM     OF15461   1.125   1.549   6.764  0.0566  0.1396 -0.6399
  141OSM    C2F15462   1.245   1.388   6.890 -0.1015 -0.0769 -0.5326
  141OSM    H2F15463   1.343   1.431   6.860 -0.5007  0.0170 -1.7717
  141OSM    H2G15464   1.254   1.277   6.882  0.5587 -0.0082 -0.8704
  141OSM    C3F15465   1.218   1.422   7.042  0.0663  0.0233  0.2401
  141OSM    H3F15466   1.196   1.531   7.039  0.8197  0.1687 -0.5954
  141OSM    H3G15467   1.307   1.402   7.107  0.5961  0.4963 -0.3255
  141OSM    C4F15468   1.095   1.342   7.091 -0.7974 -0.2423  0.0997
  141OSM    H4F15469   1.122   1.236   7.071 -0.3018  0.2225 -1.9525
  141OSM    H4G15470   1.014   1.356   7.017 -0.1389 -0.4297 -0.6704
  141OSM    C5F15471   1.035   1.386   7.230 -0.1200  0.4726  0.5159
  141OSM    H5F15472   0.942   1.328   7.251 -1.2113  2.0226  0.2074
  141OSM    H5G15473   1.027   1.496   7.217 -1.9742  0.6777  2.7364
  141OSM    C6F15474   1.126   1.346   7.344  0.1831  0.0310 -0.0254
  141OSM    H6F15475   1.212   1.416   7.333  0.2367  0.3432  1.9843
  141OSM    H6G15476   1.159   1.244   7.317 -1.1771 -0.8956  1.5886
  141OSM    C7F15477   1.066   1.360   7.482  0.4730 -0.2240  0.6836
  141OSM    H7F15478   0.966   1.311   7.485  0.9855 -1.3047  3.3082
  141OSM    H7G15479   1.045   1.467   7.502 -1.5462 -0.2762 -0.8801
  141OSM    C8F15480   1.146   1.289   7.599  0.5006 -0.2233 -0.2868
  141OSM    H8F15481   1.167   1.184   7.572  2.4308  0.4166 -1.5015
  141OSM    H8G15482   1.081   1.286   7.689  2.0556 -1.6633  0.8338
  141OSM    C9F15483   1.273   1.361   7.635  0.6034 -0.1233  0.3528
  141OSM    H9F15484   1.261   1.463   7.674  4.9718  0.7765 -0.1656
  141OSM   C10F15485   1.399   1.318   7.640  0.0782 -0.2910 -0.3242
  141OSM   H10F15486   1.472   1.399   7.656  1.6279 -1.3812 -1.5084
  141OSM   C11F15487   1.447   1.185   7.599 -0.1506 -0.1434  0.1080
  141OSM   H11F15488   1.510   1.204   7.510  1.6344  0.3842  1.4243
  141OSM   H11G15489   1.365   1.118   7.565 -1.2172  1.1122  0.1567
  141OSM   C12F15490   1.517   1.105   7.714  0.2112 -0.3300  0.0858
  141OSM   H12F15491   1.578   1.175   7.774 -0.4300  1.7589 -1.5918
  141OSM   H12G15492   1.580   1.031   7.660  2.9406  1.4714  0.6315
  141OSM   C13F15493   1.408   1.033   7.801 -0.2598  0.1903 -0.0733
  141OSM   H13F15494   1.342   0.980   7.729 -0.6813  1.1712 -0.4243
  141OSM   H13G15495   1.346   1.107   7.855 -1.5637 -0.4888 -0.5856
  141OSM   C14F15496   1.470   0.932   7.896  0.4250 -0.3899  0.6907
  141OSM   H14F15497   1.557   0.880   7.851  0.1935 -0.3391  0.1763
  141OSM   H14G15498   1.391   0.855   7.907 -2.1592  2.1514  1.3182
  141OSM   C15F15499   1.527   0.984   8.026  0.9639  0.1387  0.1950
  141OSM   H15F15500   1.456   1.046   8.085  1.1623  1.9076 -1.3063
  141OSM   H15G15501   1.607   1.056   8.000  0.3415  0.5593 -0.6173
  141OSM   C16F15502   1.589   0.875   8.114  0.4416  0.1458 -0.4575
  141OSM   H16F15503   1.677   0.824   8.070 -1.2297 -0.9873 -2.6939
  141OSM   H16G15504   1.513   0.794   8.117  0.0267  0.5385  0.0291
  141OSM   C17F15505   1.612   0.918   8.259 -0.0058 -0.0483 -0.4920
  141OSM   H17F15506   1.660   0.828   8.303 -2.4272 -1.2790 -0.1644
  141OSM   H17G15507   1.512   0.939   8.302  0.7011  3.0422 -0.1293
  141OSM   C18F15508   1.696   1.039   8.291  0.1569 -0.2636  0.4336
  141OSM   H18F15509   1.644   1.132   8.262  0.3415 -0.5696 -0.9272
  141OSM   H18G15510   1.795   1.032   8.242  0.0504  3.4430 -0.6212
  141OSM   H18H15511   1.710   1.052   8.401  1.8414 -2.8170  0.5989
  142OSM      N15512   3.472   1.876   6.399  0.4044 -0.4129 -0.5065
  142OSM    C1515513   3.397   1.920   6.526  0.1661  0.1018 -0.1586
  142OSM   H15A15514   3.454   1.992   6.583 -0.1857  0.2229  0.0473
  142OSM   H15B15515   3.367   1.839   6.591 -1.4265  0.9287  0.1911
  142OSM   H15C15516   3.304   1.969   6.503 -0.1148 -0.2714  0.1718
  142OSM    C1415517   3.376   1.799   6.314 -0.6061  0.6514 -0.1610
  142OSM   H14A15518   3.300   1.861   6.268 -1.9587 -0.3908  0.6062
  142OSM   H14B15519   3.321   1.732   6.377  0.8307  0.4445  0.9357
  142OSM   H14C15520   3.424   1.742   6.236 -0.2031 -3.6863  2.9286
  142OSM    C1315521   3.503   2.010   6.343 -0.0056 -1.4285  0.0235
  142OSM   H13A15522   3.566   2.059   6.416  1.1477 -0.0104 -1.8271
  142OSM   H13B15523   3.418   2.071   6.318  1.0426  0.4271  0.8137
  142OSM   H13C15524   3.577   2.005   6.265 -0.4784  0.8281 -0.6324
  142OSM    C1215525   3.596   1.794   6.424  0.6553 -0.5599 -0.2660
  142OSM   H12A15526   3.640   1.778   6.326 -2.1153 -0.6531 -1.6085
  142OSM   H12B15527   3.561   1.700   6.465 -0.6709  0.6070  1.4371
  142OSM    C1115528   3.707   1.840   6.519  0.7413 -0.0903  0.5275
  142OSM   H11A15529   3.774   1.752   6.526 -0.1395 -0.9512 -1.2168
  142OSM   H11B15530   3.667   1.865   6.620 -1.3225  2.5389 -0.7988
  142OSM      P15531   3.903   1.934   6.373  0.0099  0.1444  0.0037
  142OSM    O1315532   3.858   1.842   6.263 -0.1968  0.6338  0.0080
  142OSM    O1415533   3.950   2.068   6.335 -0.1533 -0.3228  0.3260
  142OSM    O1115534   4.025   1.865   6.452  0.4501 -0.9421 -0.3031
  142OSM    O1215535   3.779   1.949   6.470 -0.4755  0.4952 -0.4426
  142OSM    C1S15536   4.064   1.941   6.573 -0.4254 -0.3057  1.0146
  142OSM    H1S15537   4.026   2.045   6.574  0.3841  0.1304 -2.1470
  142OSM    H1T15538   4.175   1.953   6.576 -0.3173 -0.7126 -0.4236
  142OSM     NF15539   4.056   1.968   6.817 -0.1721  0.2813 -0.2168
  142OSM    HNF15540   4.140   1.944   6.865 -1.1042 -1.0851  0.7987
  142OSM    C2S15541   4.006   1.878   6.705  0.6562 -0.1787  1.1211
  142OSM    H2S15542   3.895   1.881   6.711  0.6480 -0.1391  0.9393
  142OSM    C3S15543   4.053   1.733   6.725  0.1603  0.1702 -0.7262
  142OSM    H3S15544   4.160   1.735   6.756  0.4364 -2.5393 -1.2031
  142OSM     O315545   4.054   1.644   6.609  0.7219  0.4435 -0.0190
  142OSM    HO315546   4.045   1.706   6.536  0.9846  1.1323  0.5200
  142OSM    C4S15547   3.978   1.673   6.842  0.3918 -0.2722 -0.1628
  142OSM    H4S15548   4.029   1.691   6.938  1.2061 -2.0852 -0.1981
  142OSM    C5S15549   3.859   1.609   6.840  0.5384 -0.2111  0.1270
  142OSM    H5S15550   3.803   1.598   6.746 -1.5635 -0.9511  1.3988
  142OSM    C6S15551   3.775   1.574   6.956 -0.2250 -0.0104 -0.3231
  142OSM    H6S15552   3.679   1.536   6.916 -2.3364  1.8183  2.6143
  142OSM    H6T15553   3.747   1.666   7.011 -0.9352  0.7649 -1.9034
  142OSM    C7S15554   3.822   1.470   7.051 -0.5285  0.2566 -0.5443
  142OSM    H7S15555   3.919   1.478   7.104 -0.5760  0.0363 -0.4222
  142OSM    H7T15556   3.814   1.368   7.008  0.4894  0.0457 -0.2566
  142OSM    C8S15557   3.725   1.464   7.175  0.5717  0.0902  0.6420
  142OSM    H8S15558   3.748   1.376   7.239  0.9950  0.3973  0.9203
  142OSM    H8T15559   3.617   1.478   7.149  0.5385  0.9956  1.2244
  142OSM    C9S15560   3.754   1.580   7.272 -0.0394 -0.6860  0.2373
  142OSM    H9S15561   3.701   1.670   7.235  0.5444 -0.3979  0.0989
  142OSM    H9T15562   3.862   1.605   7.273 -0.2570  0.7121 -2.4510
  142OSM   C10S15563   3.703   1.552   7.410  0.1379 -0.0694 -0.4696
  142OSM   H10S15564   3.739   1.453   7.446  0.2810 -0.6243 -2.0595
  142OSM   H10T15565   3.593   1.537   7.403  0.3031 -0.4250 -2.7068
  142OSM   C11S15566   3.749   1.665   7.511 -0.0229 -0.2201 -0.1125
  142OSM   H11S15567   3.742   1.765   7.464  0.0675  0.8859  2.1083
  142OSM   H11T15568   3.855   1.651   7.540 -0.7126 -0.3157  2.7073
  142OSM   C12S15569   3.656   1.669   7.629 -0.5923  0.2646 -0.1318
  142OSM   H12S15570   3.633   1.572   7.678 -1.5625  0.8316  0.5664
  142OSM   H12T15571   3.564   1.718   7.592 -0.2131 -0.2371 -1.8505
  142OSM   C13S15572   3.720   1.754   7.742  0.1139  0.7012  0.2463
  142OSM   H13S15573   3.712   1.860   7.710 -1.2669  0.7046  0.5115
  142OSM   H13T15574   3.828   1.729   7.748  0.4910  2.2575  0.2983
  142OSM   C14S15575   3.650   1.740   7.886 -0.3789  0.3324  1.1293
  142OSM   H14S15576   3.659   1.634   7.915  3.9075  0.3678  0.5382
  142OSM   H14T15577   3.543   1.765   7.869 -0.3893 -1.1415 -1.4555
  142OSM   C15S15578   3.728   1.826   7.982 -0.1505  0.2246  0.8350
  142OSM   H15S15579   3.717   1.935   7.964  0.5925  0.3098  0.8556
  142OSM   H15T15580   3.834   1.793   7.968 -0.1325  0.2270  0.9642
  142OSM   C16S15581   3.692   1.821   8.129  0.1109  0.6947  0.0762
  142OSM   H16S15582   3.726   1.724   8.170  1.3624  0.6248 -1.0645
  142OSM   H16T15583   3.582   1.837   8.142 -0.3477 -2.9572  1.7816
  142OSM   C17S15584   3.764   1.925   8.218 -0.1164  0.2464 -0.3986
  142OSM   H17S15585   3.695   2.012   8.226 -3.7748 -2.4338 -0.3615
  142OSM   H17T15586   3.857   1.953   8.164 -0.6166  0.0157 -1.4060
  142OSM   C18S15587   3.809   1.865   8.352  0.4235  0.4387 -0.4299
  142OSM   H18S15588   3.887   1.787   8.337 -0.2846 -0.2348 -0.6582
  142OSM   H18T15589   3.733   1.805   8.405  0.5780 -1.5628 -2.3361
  142OSM   H18U15590   3.849   1.947   8.416  0.6321 -0.0709  0.1025
  142OSM    C1F15591   4.004   2.091   6.834 -0.3265  0.4083  0.0082
  142OSM     OF15592   3.907   2.127   6.780  0.4547 -0.4349 -0.0678
  142OSM    C2F15593   4.081   2.169   6.934 -0.0028 -0.6163 -0.1843
  142OSM    H2F15594   4.172   2.215   6.889  0.9438 -1.7252  0.5406
  142OSM    H2G15595   4.116   2.098   7.012 -0.1608  0.1723  0.6263
  142OSM    C3F15596   3.999   2.271   7.011 -0.6020 -0.1006 -0.1633
  142OSM    H3F15597   3.909   2.218   7.048 -0.8366  0.5974  0.2878
  142OSM    H3G15598   3.976   2.357   6.944  0.8420 -1.3881 -2.4748
  142OSM    C4F15599   4.074   2.310   7.143 -0.0441 -0.2764 -1.5838
  142OSM    H4F15600   4.161   2.365   7.100 -0.7776  2.4397  0.1479
  142OSM    H4G15601   4.107   2.214   7.188  0.0529 -0.4628 -2.0446
  142OSM    C5F15602   3.988   2.393   7.238  0.0031 -0.0084  0.4399
  142OSM    H5F15603   3.902   2.327   7.263 -0.5985  0.4651 -0.3290
  142OSM    H5G15604   3.943   2.479   7.184  2.3984  1.2167  0.2505
  142OSM    C6F15605   4.070   2.453   7.356 -0.1033  0.4238  0.4041
  142OSM    H6F15606   4.146   2.524   7.316 -2.1550  1.0764 -2.7522
  142OSM    H6G15607   4.130   2.378   7.411 -0.0274  0.6342  0.6095
  142OSM    C7F15608   3.981   2.529   7.459 -0.1519 -0.3686  0.1787
  142OSM    H7F15609   3.893   2.468   7.487 -0.7829  0.1180 -0.6969
  142OSM    H7G15610   3.943   2.610   7.393 -0.0006 -2.3332 -2.4389
  142OSM    C8F15611   4.053   2.604   7.574 -0.6024  0.0777  0.0619
  142OSM    H8F15612   4.106   2.696   7.538 -0.4708 -0.1554 -0.3460
  142OSM    H8G15613   4.135   2.539   7.610 -0.5731 -1.2435 -2.1727
  142OSM    C9F15614   3.956   2.632   7.685 -0.2002 -0.4129  0.8151
  142OSM    H9F15615   3.910   2.546   7.734  0.3679 -0.7263  0.8136
  142OSM   C10F15616   3.912   2.756   7.715 -0.0497  0.3555  0.5374
  142OSM   H10F15617   3.846   2.759   7.803 -1.1910  0.0477 -0.2764
  142OSM   C11F15618   3.948   2.893   7.646  0.3205  0.6987 -0.5209
  142OSM   H11F15619   3.856   2.938   7.603  1.7254  3.6104 -0.7747
  142OSM   H11G15620   4.021   2.887   7.562 -1.1531  1.8296 -1.9489
  142OSM   C12F15621   3.999   2.990   7.750  0.1785  0.1360  0.3194
  142OSM   H12F15622   3.941   2.986   7.844  1.6202 -0.4333  1.2219
  142OSM   H12G15623   3.968   3.085   7.701 -0.8365 -1.1624 -1.7003
  142OSM   C13F15624   4.151   2.985   7.778 -0.6610  0.7696  0.5886
  142OSM   H13F15625   4.215   2.980   7.687 -0.2340  0.1929  0.9152
  142OSM   H13G15626   4.174   2.895   7.838  0.5653  2.0712  2.2054
  142OSM   C14F15627   4.203   3.090   7.869  0.0792  0.2450 -0.3871
  142OSM   H14F15628   4.151   3.088   7.967 -1.1353 -1.6488 -1.0014
  142OSM   H14G15629   4.190   3.190   7.823  1.4795  0.4094 -0.4397
  142OSM   C15F15630   4.352   3.060   7.900  0.3733  0.0564  0.7680
  142OSM   H15F15631   4.415   3.044   7.810  0.8243  1.3687  0.8256
  142OSM   H15G15632   4.352   2.956   7.939 -1.0728  0.1829  1.1862
  142OSM   C16F15633   4.422   3.163   7.992  0.1822 -0.2753  0.6762
  142OSM   H16F15634   4.403   3.265   7.951 -1.2472 -0.5257  0.6721
  142OSM   H16G15635   4.531   3.144   8.002  0.1122 -2.1397 -1.4977
  142OSM   C17F15636   4.352   3.165   8.131 -0.2489 -0.9433 -0.0167
  142OSM   H17F15637   4.336   3.059   8.159  0.6790 -0.9189  0.6280
  142OSM   H17G15638   4.253   3.214   8.116  0.5243 -0.0352 -2.6977
  142OSM   C18F15639   4.436   3.235   8.236 -0.4134  0.4054 -0.3104
  142OSM   H18F15640   4.444   3.346   8.230 -2.2380  0.6649  1.2271
  142OSM   H18G15641   4.539   3.193   8.239 -0.4353  0.4011  0.8131
  142OSM   H18H15642   4.398   3.206   8.336  1.6156 -0.2247  0.3252
  143OSM      N15643   3.532   4.781   6.012  1.0212 -0.1222 -0.8703
  143OSM    C1515644   3.399   4.827   5.941  0.2158  0.5054 -0.4592
  143OSM   H15A15645   3.337   4.874   6.016 -1.4884 -0.7510 -1.0296
  143OSM   H15B15646   3.343   4.740   5.912 -0.4816 -0.3755  3.0287
  143OSM   H15C15647   3.403   4.881   5.847 -1.9057 -0.5373 -1.2050
  143OSM    C1415648   3.622   4.723   5.909  0.2713  0.6794 -0.0256
  143OSM   H14A15649   3.641   4.801   5.837 -0.9304  0.2885 -0.8103
  143OSM   H14B15650   3.583   4.650   5.840 -0.5969  1.1952 -0.1016
  143OSM   H14C15651   3.723   4.702   5.940  0.1927 -1.6951 -1.1308
  143OSM    C1315652   3.603   4.908   6.059  0.5464 -0.5664  0.6011
  143OSM   H13A15653   3.541   4.953   6.135 -2.2168  0.5459 -2.0798
  143OSM   H13B15654   3.616   4.971   5.972  1.9592 -1.6673 -0.0219
  143OSM   H13C15655   3.705   4.893   6.091  0.8158  1.5399  0.8768
  143OSM    C1215656   3.504   4.679   6.119  0.0797  0.2413  0.1624
  143OSM   H12A15657   3.464   4.728   6.206 -0.9309 -1.0601  0.4755
  143OSM   H12B15658   3.602   4.641   6.142 -0.5883 -1.8847 -0.2184
  143OSM    C1115659   3.430   4.549   6.087  0.2392  0.6326 -0.8237
  143OSM   H11A15660   3.346   4.583   6.023 -0.9983  2.3110  1.5715
  143OSM   H11B15661   3.392   4.491   6.174 -0.8672 -1.5641 -2.6803
  143OSM      P15662   3.611   4.379   6.073 -0.3505 -0.1192  0.0394
  143OSM    O1315663   3.705   4.319   5.973  0.4772  0.6702  0.1134
  143OSM    O1415664   3.670   4.446   6.190 -0.4932 -0.1897 -0.4686
  143OSM    O1115665   3.510   4.269   6.117 -0.0441 -0.0854 -0.0579
  143OSM    O1215666   3.509   4.470   6.004 -0.2299 -0.1968 -0.5744
  143OSM    C1S15667   3.540   4.190   6.232  0.1060  0.6298 -0.4799
  143OSM    H1S15668   3.647   4.161   6.236 -0.2788 -0.8047  2.7104
  143OSM    H1T15669   3.491   4.092   6.212  1.8839  0.0583 -2.4201
  143OSM     NF15670   3.561   4.169   6.474  0.0512  0.2873  0.1460
  143OSM    HNF15671   3.515   4.082   6.491 -0.1961  0.6749  1.5866
  143OSM    C2S15672   3.492   4.245   6.368  0.1710  0.0776  0.0685
  143OSM    H2S15673   3.531   4.349   6.371  2.8568 -0.8723  3.1020
  143OSM    C3S15674   3.342   4.238   6.378  0.2193  0.5025 -0.1638
  143OSM    H3S15675   3.315   4.130   6.379  0.0406  0.5480  1.0578
  143OSM     O315676   3.274   4.302   6.268 -0.2379 -0.0330  0.5248
  143OSM    HO315677   3.348   4.343   6.224 -0.3789 -1.0846 -0.7799
  143OSM    C4S15678   3.289   4.293   6.516 -0.9845 -0.7862 -0.4417
  143OSM    H4S15679   3.298   4.400   6.539 -1.1773 -0.7562 -0.5058
  143OSM    C5S15680   3.238   4.205   6.601  0.2402 -0.6249  0.5708
  143OSM    H5S15681   3.226   4.103   6.562 -0.9225 -0.0221 -0.7302
  143OSM    C6S15682   3.184   4.235   6.741 -0.4411  0.5617  0.7165
  143OSM    H6S15683   3.085   4.188   6.759 -0.5379 -1.4714 -3.6201
  143OSM    H6T15684   3.185   4.344   6.759  0.6966  0.8358 -0.7899
  143OSM    C7S15685   3.290   4.174   6.839  0.2743  0.3454  0.3140
  143OSM    H7S15686   3.381   4.237   6.830 -1.6881  3.3450 -0.2514
  143OSM    H7T15687   3.331   4.078   6.803  0.6328  0.7348 -0.3509
  143OSM    C8S15688   3.243   4.171   6.983  0.3944  0.0193 -0.2331
  143OSM    H8S15689   3.328   4.112   7.022 -1.0357 -2.0380 -0.0659
  143OSM    H8T15690   3.152   4.107   6.982  0.8537 -0.6511  0.0698
  143OSM    C9S15691   3.219   4.310   7.044  0.1050  0.1878 -0.0617
  143OSM    H9S15692   3.152   4.368   6.978 -2.1617 -1.6862  0.4938
  143OSM    H9T15693   3.322   4.353   7.037  0.4845 -0.9373 -2.2762
  143OSM   C10S15694   3.148   4.302   7.185  0.2134 -0.3547  1.0070
  143OSM   H10S15695   3.057   4.240   7.175 -2.4750  3.5145 -1.4348
  143OSM   H10T15696   3.110   4.406   7.195 -0.9751 -0.7112  0.3470
  143OSM   C11S15697   3.252   4.255   7.293 -0.3253  0.4240  0.4286
  143OSM   H11S15698   3.346   4.314   7.284 -0.3172  0.4239  0.5078
  143OSM   H11T15699   3.272   4.146   7.284 -2.3875  0.0101  0.3846
  143OSM   C12S15700   3.204   4.282   7.436  0.0255 -0.0665 -0.1210
  143OSM   H12S15701   3.120   4.215   7.465  1.1123 -2.6941 -2.5607
  143OSM   H12T15702   3.179   4.390   7.438 -1.2431 -0.3588  1.2131
  143OSM   C13S15703   3.307   4.250   7.542  0.1618 -0.1168 -0.7279
  143OSM   H13S15704   3.396   4.313   7.521  1.7502 -1.7705  0.6736
  143OSM   H13T15705   3.339   4.144   7.539 -1.2789 -0.7181  1.7497
  143OSM   C14S15706   3.256   4.265   7.686  0.5832 -0.2980  0.5756
  143OSM   H14S15707   3.170   4.198   7.706  0.4869 -0.4374 -0.2893
  143OSM   H14T15708   3.215   4.367   7.693  1.9356  0.2936  0.2821
  143OSM   C15S15709   3.372   4.242   7.790 -0.9747 -0.0736  0.6256
  143OSM   H15S15710   3.467   4.284   7.752 -0.7833 -2.3940 -1.6856
  143OSM   H15T15711   3.382   4.133   7.805  1.5258  0.0834  0.4375
  143OSM   C16S15712   3.348   4.310   7.930 -0.0942 -0.6531 -0.9709
  143OSM   H16S15713   3.286   4.232   7.980  0.9526 -0.8884  0.0066
  143OSM   H16T15714   3.300   4.408   7.912 -0.6964 -0.8379 -0.3839
  143OSM   C17S15715   3.472   4.322   8.011  0.0125 -0.9767 -0.7878
  143OSM   H17S15716   3.522   4.416   7.980  2.3842 -1.0735  2.2539
  143OSM   H17T15717   3.541   4.241   7.983  2.1909  0.4975  0.0681
  143OSM   C18S15718   3.460   4.319   8.161  0.6735  0.1369  0.1579
  143OSM   H18S15719   3.388   4.397   8.192 -0.1766 -1.0003  1.1281
  143OSM   H18T15720   3.560   4.320   8.210  0.5541 -1.2284  0.4859
  143OSM   H18U15721   3.419   4.223   8.199  1.1154  0.0040  0.3097
  143OSM    C1F15722   3.680   4.198   6.520  0.3349 -0.8361  0.5288
  143OSM     OF15723   3.752   4.266   6.453 -0.3110  0.0027  0.1029
  143OSM    C2F15724   3.729   4.144   6.648  1.3463 -0.1842  1.1401
  143OSM    H2F15725   3.706   4.223   6.722 -3.3912 -0.5367  0.3887
  143OSM    H2G15726   3.837   4.136   6.626  1.2432  0.2609  0.4466
  143OSM    C3F15727   3.651   4.022   6.699  0.7628 -0.4085  0.8449
  143OSM    H3F15728   3.658   3.942   6.623  0.5135  2.2239 -2.1845
  143OSM    H3G15729   3.547   4.058   6.717  1.0670  0.4720  0.9222
  143OSM    C4F15730   3.696   3.969   6.834 -0.1671  0.0871  0.4926
  143OSM    H4F15731   3.807   3.973   6.833 -0.1395  0.9489  2.5887
  143OSM    H4G15732   3.679   3.863   6.859  1.4216 -0.4031 -0.3462
  143OSM    C5F15733   3.660   4.065   6.956  0.7803  0.6987 -0.0304
  143OSM    H5F15734   3.549   4.061   6.968  0.5335  2.7059 -1.3454
  143OSM    H5G15735   3.669   4.173   6.932 -0.2806  0.7262 -0.3528
  143OSM    C6F15736   3.745   4.033   7.085  0.4218  0.1389  0.0813
  143OSM    H6F15737   3.746   3.922   7.089 -1.8777 -0.0551 -2.1246
  143OSM    H6G15738   3.699   4.071   7.179 -0.0102 -0.6886  0.2151
  143OSM    C7F15739   3.884   4.094   7.094  0.3448  0.1992 -0.1739
  143OSM    H7F15740   3.888   4.201   7.062 -1.6802  0.2981 -0.2248
  143OSM    H7G15741   3.954   4.046   7.023  1.3898  3.2805 -1.3904
  143OSM    C8F15742   3.936   4.087   7.244 -0.0789  0.2274  0.4530
  143OSM    H8F15743   4.047   4.089   7.244 -0.0002  0.7671  4.0951
  143OSM    H8G15744   3.923   3.988   7.294  2.1495 -0.0204  0.6519
  143OSM    C9F15745   3.867   4.190   7.330  0.2473 -0.9975  0.0880
  143OSM    H9F15746   3.879   4.294   7.297  0.4151 -1.4731 -1.4408
  143OSM   C10F15747   3.765   4.183   7.426  0.5637  0.9973  0.6527
  143OSM   H10F15748   3.732   4.274   7.480 -1.1864  0.3389  0.7186
  143OSM   C11F15749   3.700   4.055   7.477  0.0711 -0.6714 -0.2524
  143OSM   H11F15750   3.671   3.993   7.389  0.0682 -0.8518 -0.1258
  143OSM   H11G15751   3.604   4.083   7.525  0.4379  1.0225 -0.4432
  143OSM   C12F15752   3.783   3.980   7.587 -0.6881 -0.1685  0.2623
  143OSM   H12F15753   3.876   3.936   7.545 -0.6527 -1.4676  1.6427
  143OSM   H12G15754   3.727   3.892   7.624 -1.0399 -0.3075 -0.5851
  143OSM   C13F15755   3.809   4.083   7.701 -0.2382 -0.1015 -0.2562
  143OSM   H13F15756   3.709   4.130   7.711  0.4618  1.5293 -0.4755
  143OSM   H13G15757   3.873   4.170   7.672 -0.2772 -0.3280 -1.0650
  143OSM   C14F15758   3.859   4.023   7.836  0.7028 -0.0947  0.2205
  143OSM   H14F15759   3.963   3.986   7.829 -0.0773 -2.2614 -0.5678
  143OSM   H14G15760   3.795   3.933   7.852 -1.1719  1.6097  3.6470
  143OSM   C15F15761   3.856   4.121   7.952  0.9222 -0.0199  0.1455
  143OSM   H15F15762   3.751   4.152   7.969  0.5084 -1.0945 -0.3388
  143OSM   H15G15763   3.909   4.212   7.917  0.2032  0.0643 -0.7806
  143OSM   C16F15764   3.915   4.060   8.080 -0.0666 -0.7838 -0.3313
  143OSM   H16F15765   4.009   4.012   8.043  1.2568  0.0351  1.7834
  143OSM   H16G15766   3.851   3.978   8.117  0.0294 -1.6965 -2.0730
  143OSM   C17F15767   3.942   4.167   8.188  0.2485  0.2667 -0.6435
  143OSM   H17F15768   3.990   4.255   8.139  0.3009 -0.5776 -2.1735
  143OSM   H17G15769   4.001   4.130   8.275  0.5583  2.5112  0.1661
  143OSM   C18F15770   3.812   4.215   8.257 -0.0256  0.9447 -0.4142
  143OSM   H18F15771   3.754   4.275   8.184  0.8783  0.3240 -1.6899
  143OSM   H18G15772   3.838   4.287   8.337  0.4501  0.7606 -0.3965
  143OSM   H18H15773   3.754   4.123   8.280  1.4179 -0.2342 -1.2275
  144OSM      N15774   2.502   3.551   6.022 -0.1556 -0.0185  0.5760
  144OSM    C1515775   2.397   3.484   6.101 -0.1471  0.2436 -0.6764
  144OSM   H15A15776   2.303   3.537   6.106 -0.1612  0.0819  1.6429
  144OSM   H15B15777   2.421   3.473   6.205 -0.6415  1.4682 -0.4186
  144OSM   H15C15778   2.386   3.385   6.059 -0.9163  0.4343 -0.9518
  144OSM    C1415779   2.471   3.519   5.878 -0.0178 -0.0780 -0.0286
  144OSM   H14A15780   2.496   3.417   5.851  0.2870  0.7989 -3.5374
  144OSM   H14B15781   2.540   3.575   5.817 -0.0855 -0.3619 -0.3696
  144OSM   H14C15782   2.369   3.549   5.859  0.3544  1.5250  0.3812
  144OSM    C1315783   2.501   3.696   6.041 -0.1774  0.0593  0.2951
  144OSM   H13A15784   2.585   3.732   5.983  0.7153 -2.8172 -0.4059
  144OSM   H13B15785   2.530   3.715   6.143  1.3065 -1.5400  0.2289
  144OSM   H13C15786   2.413   3.757   6.025  2.0525  3.7616  1.0094
  144OSM    C1215787   2.633   3.491   6.060  0.1835 -0.6220  0.7228
  144OSM   H12A15788   2.708   3.526   5.989 -2.9726  0.0223 -2.5860
  144OSM   H12B15789   2.628   3.387   6.034 -2.0186  0.0861 -2.2398
  144OSM    C1115790   2.683   3.515   6.209  0.4130  0.0228  0.3299
  144OSM   H11A15791   2.765   3.441   6.224 -1.8502 -2.6349  0.5046
  144OSM   H11B15792   2.603   3.486   6.280  0.5089  1.2622  0.9588
  144OSM      P15793   2.849   3.709   6.175  0.0185  0.3525  0.2341
  144OSM    O1315794   2.942   3.605   6.130  0.0852 -0.8956  0.1719
  144OSM    O1415795   2.808   3.808   6.069 -0.0765 -0.4399  0.5500
  144OSM    O1115796   2.912   3.783   6.300  0.5257 -1.1896 -0.0471
  144OSM    O1215797   2.720   3.646   6.233  0.6562 -0.0816  0.3782
  144OSM    C1S15798   2.832   3.827   6.403  0.6258 -0.7249 -0.2219
  144OSM    H1S15799   2.837   3.751   6.484  1.1299 -0.6782 -0.2037
  144OSM    H1T15800   2.726   3.842   6.372  0.4608 -1.5326 -0.0612
  144OSM     NF15801   2.840   3.987   6.597 -0.3771  0.1088  0.1077
  144OSM    HNF15802   2.776   4.062   6.617 -1.7362 -0.2238 -2.5350
  144OSM    C2S15803   2.884   3.969   6.458 -0.5668 -0.6475  0.2326
  144OSM    H2S15804   2.995   3.966   6.464 -0.5236  1.6491  1.7810
  144OSM    C3S15805   2.844   4.078   6.358 -0.3026  0.3196  0.5147
  144OSM    H3S15806   2.735   4.093   6.346 -0.0280  1.7297 -0.5097
  144OSM     O315807   2.889   4.062   6.226  0.1180  0.3034  0.5480
  144OSM    HO315808   2.939   3.980   6.226  0.0951  0.2817  1.4412
  144OSM    C4S15809   2.905   4.202   6.418  0.0425  0.0526  0.5443
  144OSM    H4S15810   3.013   4.208   6.402 -0.4473  1.9481 -2.9738
  144OSM    C5S15811   2.847   4.309   6.468  0.1241 -0.1380  0.0974
  144OSM    H5S15812   2.738   4.321   6.478  0.0410 -1.2858  0.8749
  144OSM    C6S15813   2.927   4.429   6.522 -0.2128  0.2093 -0.0135
  144OSM    H6S15814   2.939   4.513   6.450 -1.1188  0.2994 -0.0734
  144OSM    H6T15815   3.029   4.414   6.562 -0.0408 -1.2080 -0.9227
  144OSM    C7S15816   2.848   4.472   6.655 -0.4863  0.0877 -0.2074
  144OSM    H7S15817   2.815   4.382   6.711 -1.0067 -0.6075 -1.5859
  144OSM    H7T15818   2.759   4.530   6.624  0.4719  1.5108 -0.4001
  144OSM    C8S15819   2.928   4.563   6.749  0.0003  0.0285  0.0394
  144OSM    H8S15820   2.930   4.671   6.723 -0.0035  0.2461  0.9035
  144OSM    H8T15821   3.035   4.538   6.733 -0.4905 -1.1661 -1.7010
  144OSM    C9S15822   2.896   4.558   6.902 -0.1169 -0.6338  0.8081
  144OSM    H9S15823   2.885   4.454   6.940  2.1417 -0.4223  2.1919
  144OSM    H9T15824   2.796   4.607   6.898 -0.4542 -1.3684 -2.2934
  144OSM   C10S15825   2.991   4.638   6.982  0.1787 -0.2721 -0.1043
  144OSM   H10S15826   3.002   4.736   6.932 -0.2581  0.4834  1.2175
  144OSM   H10T15827   3.090   4.588   6.986 -0.7812 -2.1964  0.9868
  144OSM   C11S15828   2.940   4.668   7.125 -0.2957  0.5195  0.4058
  144OSM   H11S15829   2.946   4.570   7.176 -2.4307  0.8351  1.3912
  144OSM   H11T15830   2.831   4.690   7.126  0.1411  3.0322  0.1259
  144OSM   C12S15831   3.031   4.768   7.204 -0.3394 -0.2489  0.0844
  144OSM   H12S15832   3.020   4.870   7.162 -1.2690 -0.6346 -0.6635
  144OSM   H12T15833   3.133   4.733   7.177 -0.3096 -0.5647  0.6007
  144OSM   C13S15834   3.000   4.776   7.350  0.6767 -0.0864  0.0133
  144OSM   H13S15835   3.029   4.679   7.396 -0.1877 -0.5110 -0.3058
  144OSM   H13T15836   2.892   4.804   7.354  0.4460 -0.9389  0.0449
  144OSM   C14S15837   3.082   4.883   7.415 -0.4166 -0.1189  0.7475
  144OSM   H14S15838   3.070   4.975   7.355  0.8500  0.0931  0.8059
  144OSM   H14T15839   3.189   4.856   7.401 -1.0463 -1.4498 -2.3059
  144OSM   C15S15840   3.035   4.889   7.563 -0.3598  0.0076  0.2850
  144OSM   H15S15841   2.927   4.911   7.571 -0.4073 -0.0802 -0.0820
  144OSM   H15T15842   3.089   4.975   7.608 -1.2711  0.7976 -0.1001
  144OSM   C16S15843   3.052   4.760   7.637 -0.3992  0.0459 -0.5657
  144OSM   H16S15844   3.153   4.715   7.633 -0.3284 -0.1732  2.0707
  144OSM   H16T15845   2.976   4.688   7.598 -0.8343  0.3626 -0.3194
  144OSM   C17S15846   3.026   4.764   7.790 -0.1990  0.0445 -0.3570
  144OSM   H17S15847   3.044   4.662   7.828  1.8531  1.3154  2.4749
  144OSM   H17T15848   2.919   4.785   7.809 -0.4678 -1.7638  0.2634
  144OSM   C18S15849   3.112   4.868   7.861 -0.7619 -0.6786  0.1376
  144OSM   H18S15850   3.058   4.962   7.835  0.9644  0.7673  1.5097
  144OSM   H18T15851   3.214   4.870   7.819 -0.5524  2.2443  0.5949
  144OSM   H18U15852   3.109   4.851   7.971 -2.1583  2.4676  0.7140
  144OSM    C1F15853   2.885   3.917   6.699  0.1914  0.9295 -0.3280
  144OSM     OF15854   2.974   3.829   6.674  0.2832  0.3234 -0.6876
  144OSM    C2F15855   2.842   3.971   6.840  0.7948  0.1577  0.6772
  144OSM    H2F15856   2.735   3.941   6.836  0.5469  1.0903 -0.4610
  144OSM    H2G15857   2.844   4.081   6.826 -0.6702  0.0545 -0.5921
  144OSM    C3F15858   2.924   3.916   6.956  0.2176 -0.4680 -0.3327
  144OSM    H3F15859   3.032   3.936   6.943  0.2075 -0.8692 -1.0895
  144OSM    H3G15860   2.913   3.805   6.958 -1.4164 -0.3145  1.0133
  144OSM    C4F15861   2.898   3.968   7.099  0.2446  0.4373 -0.3184
  144OSM    H4F15862   2.800   3.928   7.134  0.3736  2.0138  2.0466
  144OSM    H4G15863   2.899   4.079   7.102  0.7630  0.4539  3.8782
  144OSM    C5F15864   3.005   3.939   7.210 -0.1456  0.1459  0.0680
  144OSM    H5F15865   3.097   3.989   7.171 -1.9346  1.2539 -3.1648
  144OSM    H5G15866   3.013   3.829   7.209 -0.6256  0.0928  1.3706
  144OSM    C6F15867   2.958   3.972   7.349 -0.1531 -0.4788 -0.2384
  144OSM    H6F15868   2.863   3.914   7.357 -1.4280  1.6688  1.0399
  144OSM    H6G15869   2.929   4.079   7.356  0.2674 -0.4705  1.9859
  144OSM    C7F15870   3.058   3.935   7.463 -0.2431 -0.2540  0.3198
  144OSM    H7F15871   3.122   4.024   7.476  0.5336 -0.4523 -1.8522
  144OSM    H7G15872   3.111   3.839   7.444 -2.2295 -1.2417 -0.6257
  144OSM    C8F15873   2.977   3.903   7.589  0.2110 -0.1365 -0.3129
  144OSM    H8F15874   2.940   3.799   7.577  1.8969 -1.0124  1.4513
  144OSM    H8G15875   2.882   3.960   7.586 -0.0345 -0.5176  0.0160
  144OSM    C9F15876   3.052   3.928   7.717  0.6004 -0.1190  0.7063
  144OSM    H9F15877   3.145   3.983   7.698  0.6257 -0.4197 -0.1034
  144OSM   C10F15878   3.039   3.858   7.822  0.1766 -0.8495 -0.4425
  144OSM   H10F15879   3.106   3.874   7.907  1.6075 -0.7438 -1.5555
  144OSM   C11F15880   2.936   3.747   7.848  0.3934 -0.2759  0.0882
  144OSM   H11F15881   2.852   3.748   7.776 -0.6551 -2.0272  1.2043
  144OSM   H11G15882   2.894   3.755   7.951  1.8467  1.2482  0.6058
  144OSM   C12F15883   2.997   3.607   7.833  0.1714  0.2082 -0.0140
  144OSM   H12F15884   3.063   3.581   7.919  0.0615 -0.4619 -0.1212
  144OSM   H12G15885   3.064   3.615   7.744  4.9349 -0.8378  3.1194
  144OSM   C13F15886   2.895   3.493   7.802 -0.3717 -0.7098 -0.0479
  144OSM   H13F15887   2.948   3.399   7.774 -0.5594  0.1554 -3.6986
  144OSM   H13G15888   2.834   3.540   7.723  0.8278  2.4681  0.7716
  144OSM   C14F15889   2.811   3.458   7.925  0.2586  0.5900 -0.2860
  144OSM   H14F15890   2.743   3.377   7.890 -0.2269  0.6986  0.3721
  144OSM   H14G15891   2.752   3.546   7.956 -0.2858 -0.2061  1.0519
  144OSM   C15F15892   2.891   3.383   8.035  0.2872  0.0514  0.1651
  144OSM   H15F15893   2.999   3.408   8.046  0.1045  0.2561  1.8713
  144OSM   H15G15894   2.900   3.277   8.003 -2.3275 -0.5161  1.0660
  144OSM   C16F15895   2.831   3.382   8.179  0.4337 -0.5406  0.2173
  144OSM   H16F15896   2.789   3.281   8.197  1.4036 -1.1686 -0.8623
  144OSM   H16G15897   2.737   3.441   8.178 -0.2912 -1.6650 -0.4470
  144OSM   C17F15898   2.920   3.427   8.292  0.0021  0.4539  0.2221
  144OSM   H17F15899   2.957   3.531   8.276 -0.1862  0.3541 -0.9177
  144OSM   H17G15900   3.006   3.358   8.299 -0.2042  0.1652 -0.0775
  144OSM   C18F15901   2.852   3.416   8.428 -0.0022 -0.1220 -0.1202
  144OSM   H18F15902   2.800   3.319   8.439 -1.5267  0.3305 -2.5280
  144OSM   H18G15903   2.763   3.483   8.434 -0.1179 -0.4215  2.3196
  144OSM   H18H15904   2.922   3.440   8.511  0.1217 -1.7918  0.2883
  145SAPE     N15905   4.965   4.215  10.870  0.4058 -0.2399 -0.2665
  145SAPE   HN115906   4.985   4.224  10.768 -0.3004 -0.0890 -0.3981
  145SAPE   HN215907   4.922   4.121  10.882 -1.3729  0.7202  1.3820
  145SAPE   HN315908   4.893   4.278  10.909  2.2171  0.4080  2.3210
  145SAPE   C1215909   5.096   4.227  10.937 -0.2747  0.2612 -0.4639
  145SAPE  H12A15910   5.082   4.209  11.046 -0.9002  2.3487 -0.1609
  145SAPE  H12B15911   5.115   4.336  10.941 -1.3449  0.7900 -4.7861
  145SAPE   C1115912   5.198   4.140  10.870 -0.6018  0.0044  0.7340
  145SAPE  H11A15913   5.168   4.035  10.893  0.3385 -0.1044  1.5561
  145SAPE  H11B15914   5.296   4.169  10.913  0.5570 -0.2426 -1.5798
  145SAPE     P15915   5.223   4.054  10.618  0.3985  0.1285  0.2087
  145SAPE   O1315916   5.323   4.098  10.520 -0.1101 -0.1925  0.2017
  145SAPE   O1415917   5.247   3.925  10.676  0.5344 -0.0209 -0.6232
  145SAPE   O1215918   5.204   4.166  10.729 -0.2039 -0.5199  0.4622
  145SAPE   O1115919   5.072   4.049  10.558 -0.2112  0.7771 -0.0298
  145SAPE    C115920   5.000   4.170  10.520 -0.2828  0.2643 -0.6499
  145SAPE    HA15921   4.904   4.175  10.576  0.5739  1.2297  0.8085
  145SAPE    HB15922   5.060   4.257  10.555  0.3925 -1.0879  1.7576
  145SAPE    C215923   4.962   4.183  10.376 -0.2172 -0.3360  0.5305
  145SAPE    HS15924   4.910   4.281  10.362  0.0762  0.0151  1.8082
  145SAPE   O2115925   4.871   4.074  10.343 -0.6241 -0.2566 -0.0799
  145SAPE   C2115926   4.750   4.076  10.392  0.1251 -1.0192  0.9364
  145SAPE   O2215927   4.699   4.164  10.456  1.0731 -0.1072 -0.0854
  145SAPE   C2215928   4.677   3.957  10.328  0.2801  0.7372 -0.6162
  145SAPE   H2R15929   4.678   3.891  10.418  0.7702  0.6970 -0.6469
  145SAPE   H2S15930   4.569   3.981  10.316 -1.0564 -1.2161  4.7148
  145SAPE    C315931   5.095   4.189  10.282  0.5590  0.0534 -0.6488
  145SAPE    HX15932   5.139   4.088  10.291 -5.3974 -3.1288 -2.1947
  145SAPE    HY15933   5.167   4.262  10.324  1.2232 -1.1249  0.3117
  145SAPE   O3115934   5.066   4.207  10.142 -0.5592 -0.1462 -0.5546
  145SAPE   C3115935   5.039   4.326  10.089  0.3678  0.4860  0.1402
  145SAPE   O3215936   5.045   4.429  10.151 -0.1211 -0.2665  0.5653
  145SAPE   C3215937   5.003   4.310   9.944 -0.3631  0.1114  0.3206
  145SAPE   H2X15938   4.893   4.321   9.929 -0.0729  0.4215 -2.0430
  145SAPE   H2Y15939   5.024   4.206   9.911  2.5942  0.9115 -0.6930
  145SAPE   C2315940   4.750   3.899  10.204 -0.2470 -0.6677 -0.4214
  145SAPE   H3R15941   4.856   3.867  10.215 -0.3371 -0.8997 -0.2105
  145SAPE   H3S15942   4.760   3.970  10.120 -1.0650 -0.6728 -0.5263
  145SAPE   C2415943   4.672   3.784  10.143 -0.0874  0.1610  0.0107
  145SAPE   H4R15944   4.710   3.768  10.040 -0.4903  0.4314 -0.1825
  145SAPE   H4S15945   4.564   3.809  10.139  0.0696  0.7113 -1.2332
  145SAPE   C2515946   4.695   3.648  10.210 -0.4090  0.2508  0.0991
  145SAPE   H5R15947   4.718   3.653  10.318 -0.2436  1.9419  0.0145
  145SAPE   C2615948   4.690   3.524  10.149  0.9214 -0.5728 -0.2415
  145SAPE   H6R15949   4.709   3.431  10.204 -2.0342 -0.7776  0.5955
  145SAPE   C2715950   4.670   3.507   9.998 -0.4357 -0.0190  0.3855
  145SAPE   H7R15951   4.767   3.527   9.949  0.3045 -3.2848  0.2492
  145SAPE   H7S15952   4.589   3.579   9.973 -0.6371 -0.6899 -0.9782
  145SAPE   C2815953   4.633   3.365   9.957 -0.3415  0.0750  0.0406
  145SAPE   H8R15954   4.618   3.299  10.043  1.9335  0.6783  0.9799
  145SAPE   C2915955   4.606   3.319   9.832 -0.1342  0.1282  0.4183
  145SAPE   H9R15956   4.580   3.214   9.811 -0.9284  0.5194 -0.6665
  145SAPE  C21015957   4.604   3.414   9.713 -0.0810 -0.2349 -0.3201
  145SAPE  H10R15958   4.541   3.503   9.734  0.8385  0.6412 -1.1806
  145SAPE  H10S15959   4.552   3.364   9.627 -2.1061  1.5636 -0.2364
  145SAPE  C21115960   4.736   3.456   9.661  0.4221 -0.5980  0.5969
  145SAPE  H11R15961   4.751   3.565   9.667  0.7772 -0.5011 -1.3520
  145SAPE  C21215962   4.834   3.377   9.608 -0.0612 -0.1483  0.5537
  145SAPE  H12R15963   4.919   3.434   9.567  0.4661 -0.7951  0.7270
  145SAPE  C21315964   4.829   3.230   9.582 -1.0523  0.2030 -0.3600
  145SAPE  H13R15965   4.803   3.211   9.476  0.5350 -1.2050 -0.5372
  145SAPE  H13S15966   4.749   3.176   9.639 -0.6968  1.9275  1.9040
  145SAPE  C21415967   4.966   3.168   9.615  0.4374 -1.3662  0.6216
  145SAPE  H14R15968   5.043   3.207   9.546  1.0131 -2.2444  0.7408
  145SAPE  C21515969   5.005   3.088   9.714 -0.1954  0.1247 -0.7270
  145SAPE  H15R15970   5.112   3.066   9.707 -0.5490 -1.3459 -2.0809
  145SAPE  C21615971   4.918   3.035   9.825  0.3354  0.2978 -0.2560
  145SAPE  H16R15972   4.824   3.092   9.837  0.0981 -0.4544  2.1734
  145SAPE  H16S15973   4.980   3.048   9.917  0.8220 -1.8172 -0.2335
  145SAPE  C21715974   4.887   2.883   9.811  0.1724  0.2319 -0.4716
  145SAPE  H17R15975   4.849   2.850   9.910  0.0068 -1.3132 -1.0244
  145SAPE  H17S15976   4.982   2.832   9.788  1.4143  2.5694 -0.8935
  145SAPE  C21815977   4.798   2.857   9.687 -0.2721 -0.0938 -0.3678
  145SAPE  H18R15978   4.808   2.752   9.652  0.4662  0.3348 -1.5067
  145SAPE  H18S15979   4.843   2.913   9.602 -1.2595  2.1152  0.4755
  145SAPE  C21915980   4.656   2.892   9.711  0.9214 -1.0372 -0.3336
  145SAPE  H19R15981   4.608   2.874   9.612 -0.1554  0.5408 -0.1285
  145SAPE  H19S15982   4.649   2.999   9.739  0.4666 -1.7849  2.8365
  145SAPE  C22015983   4.586   2.808   9.809 -0.6221  0.6749  0.5524
  145SAPE  H20R15984   4.633   2.707   9.814 -1.4095  0.2683 -0.0572
  145SAPE  H20S15985   4.480   2.791   9.783 -0.5973  0.4955  0.5649
  145SAPE  H20T15986   4.593   2.847   9.912  0.3819  1.6763  0.1312
  145SAPE   C3315987   5.079   4.401   9.847 -0.5466 -0.4664  0.0996
  145SAPE   H3X15988   5.188   4.406   9.870 -0.6881 -1.3255  1.0614
  145SAPE   H3Y15989   5.043   4.506   9.853 -1.3676 -0.4700 -3.0140
  145SAPE   C3415990   5.043   4.354   9.707 -0.3874  0.4194  0.3270
  145SAPE   H4X15991   4.948   4.297   9.709  0.7974 -1.6391  0.1950
  145SAPE   H4Y15992   5.122   4.281   9.680 -1.0091 -0.6116  1.2046
  145SAPE   C3515993   5.041   4.460   9.597 -0.2493 -0.4630 -0.9996
  145SAPE   H5X15994   5.117   4.536   9.624 -1.5299  0.8085 -0.8603
  145SAPE   H5Y15995   4.939   4.504   9.597  0.2351  0.7030 -0.2479
  145SAPE   C3615996   5.070   4.401   9.463 -0.3085  0.0501  0.0408
  145SAPE   H6X15997   5.171   4.355   9.458 -0.6603 -0.6532 -3.4959
  145SAPE   H6Y15998   5.068   4.478   9.382 -0.1411  1.3089  1.1935
  145SAPE   C3715999   4.965   4.293   9.428 -0.8939  0.1972  0.2671
  145SAPE   H7X16000   4.866   4.342   9.429 -0.5524  1.0211 -1.6719
  145SAPE   H7Y16001   4.964   4.219   9.511  0.1434 -0.7390 -0.5195
  145SAPE   C3816002   4.978   4.216   9.290 -0.0685  0.7327 -0.0559
  145SAPE   H8X16003   4.925   4.277   9.214 -2.1264 -0.1173  0.6230
  145SAPE   H8Y16004   4.921   4.121   9.295  2.0319 -0.6224 -0.4283
  145SAPE   C3916005   5.114   4.167   9.263 -0.2362  0.5300  0.3969
  145SAPE   H9X16006   5.170   4.153   9.358  1.2202 -2.5845 -0.7612
  145SAPE   H9Y16007   5.161   4.249   9.205  1.3446 -0.6192 -0.0093
  145SAPE  C31016008   5.136   4.051   9.162 -0.2503  0.2345 -0.2607
  145SAPE  H10X16009   5.045   4.014   9.111  0.5421 -1.9059 -0.2457
  145SAPE  H10Y16010   5.159   3.975   9.240 -0.6766  2.5435  2.2815
  145SAPE  C31116011   5.246   4.074   9.059 -0.2011 -0.3469 -0.0316
  145SAPE  H11X16012   5.339   4.105   9.112 -0.1094 -0.6076 -0.0389
  145SAPE  H11Y16013   5.223   4.157   8.989 -0.8521  1.3209  2.0689
  145SAPE  C31216014   5.281   3.943   8.980  0.0037 -0.1540 -0.9444
  145SAPE  H12X16015   5.193   3.908   8.922 -1.7146  1.2283  0.7244
  145SAPE  H12Y16016   5.302   3.856   9.045 -1.5880 -0.4830 -0.8529
  145SAPE  C31316017   5.412   3.962   8.898  0.5351 -0.0678  0.9416
  145SAPE  H13X16018   5.456   3.862   8.877  0.0023 -0.3963  1.3563
  145SAPE  H13Y16019   5.483   4.011   8.967  0.6214 -0.3998  1.0929
  145SAPE  C31416020   5.397   4.033   8.760  0.1254 -0.3258 -0.5500
  145SAPE  H14X16021   5.481   4.003   8.694 -0.0327 -2.8227  0.2982
  145SAPE  H14Y16022   5.412   4.141   8.781  0.5301 -0.2499 -1.2116
  145SAPE  C31516023   5.266   4.023   8.680  0.9101 -0.8882  0.6218
  145SAPE  H15X16024   5.187   4.083   8.729  0.3281  0.5901 -1.9260
  145SAPE  H15Y16025   5.231   3.918   8.679 -2.9663  0.2238 -2.1681
  145SAPE  C31616026   5.271   4.071   8.536  0.4226 -0.4473  1.0117
  145SAPE  H16X16027   5.316   3.984   8.484 -0.4092 -0.8189  0.8955
  145SAPE  H16Y16028   5.334   4.162   8.530  0.1151 -0.2799  0.2247
  145SAPE  C31716029   5.136   4.087   8.460  0.7052 -0.1129 -0.1045
  145SAPE  H17X16030   5.091   3.985   8.452 -0.5032  0.3318  0.7635
  145SAPE  H17Y16031   5.157   4.105   8.352  1.9413 -1.3817 -0.1052
  145SAPE  C31816032   5.042   4.183   8.531 -0.8086 -0.1909 -0.0065
  145SAPE  H18X16033   4.981   4.235   8.454  1.1668  1.9600 -0.2325
  145SAPE  H18Y16034   5.106   4.259   8.581  1.1463 -1.8463  0.1327
  145SAPE  H18Z16035   4.978   4.115   8.591 -1.0272 -0.1160 -0.1519
  146SAPE     N16036   2.029   4.108  10.705  0.1736 -0.4961 -0.3016
  146SAPE   HN116037   2.090   4.048  10.646  1.5605  0.4025  0.1761
  146SAPE   HN216038   2.082   4.178  10.761 -1.3312  1.1739 -0.8386
  146SAPE   HN316039   1.974   4.041  10.764 -0.9536  0.8226  0.2113
  146SAPE   C1216040   1.922   4.181  10.625 -0.1941  0.5493  0.1147
  146SAPE  H12A16041   1.855   4.099  10.593 -0.4364  1.1466 -0.9638
  146SAPE  H12B16042   1.971   4.237  10.542 -0.5699  0.0873 -0.4217
  146SAPE   C1116043   1.835   4.273  10.714 -1.3282 -0.0470 -0.5088
  146SAPE  H11A16044   1.750   4.306  10.651 -0.8933  1.6748 -0.2535
  146SAPE  H11B16045   1.901   4.361  10.734 -1.0001 -0.6008  0.9367
  146SAPE     P16046   1.660   4.139  10.849  0.4028  0.0452  0.0761
  146SAPE   O1316047   1.638   4.055  10.735 -0.6862 -0.4374 -0.1731
  146SAPE   O1416048   1.654   4.069  10.972  0.6993 -0.2241 -0.5744
  146SAPE   O1216049   1.798   4.208  10.836 -0.0232 -0.1508  0.0477
  146SAPE   O1116050   1.566   4.261  10.829  0.3303  0.3351  0.9189
  146SAPE    C116051   1.440   4.252  10.754 -1.3658 -0.3343 -0.5855
  146SAPE    HA16052   1.407   4.151  10.721 -0.7898 -1.1027  1.0810
  146SAPE    HB16053   1.359   4.291  10.820 -0.5558  1.2052 -0.4723
  146SAPE    C216054   1.451   4.337  10.620 -0.7740 -0.2518 -0.5250
  146SAPE    HS16055   1.344   4.333  10.590 -2.4870  0.4775  4.4222
  146SAPE   O2116056   1.541   4.285  10.518 -0.1811 -0.6984 -0.3237
  146SAPE   C2116057   1.502   4.168  10.477  0.5720 -0.7774 -0.6784
  146SAPE   O2216058   1.395   4.117  10.496 -0.2847  0.0863  0.1100
  146SAPE   C2216059   1.610   4.106  10.388 -0.5403  0.2221 -0.6167
  146SAPE   H2R16060   1.673   4.192  10.356 -1.8477  0.9446 -1.3565
  146SAPE   H2S16061   1.667   4.041  10.457 -0.8683 -1.2529 -1.6812
  146SAPE    C316062   1.494   4.487  10.652  0.7561  0.6681 -0.1164
  146SAPE    HX16063   1.594   4.470  10.697  0.0239 -0.7787  1.0659
  146SAPE    HY16064   1.426   4.517  10.735 -0.7295 -2.7306  0.0310
  146SAPE   O3116065   1.484   4.569  10.535  0.5427  0.0477 -0.1058
  146SAPE   C3116066   1.494   4.702  10.566 -0.8313  0.3912  0.0320
  146SAPE   O3216067   1.517   4.742  10.677 -0.4599  0.0238 -0.2694
  146SAPE   C3216068   1.495   4.783  10.442  0.5162 -0.4335 -0.1239
  146SAPE   H2X16069   1.598   4.787  10.399  0.3686 -0.1579 -0.4500
  146SAPE   H2Y16070   1.472   4.887  10.472  1.0566 -0.3387 -0.0203
  146SAPE   C2316071   1.568   4.021  10.266  0.2586  0.4629 -0.0576
  146SAPE   H3R16072   1.481   4.058  10.209 -1.2992  0.1145  1.9692
  146SAPE   H3S16073   1.529   3.919  10.290  0.6170  0.2017 -0.5762
  146SAPE   C2416074   1.683   4.016  10.163  0.5748 -0.4032  0.5907
  146SAPE   H4R16075   1.663   3.926  10.100  1.2433 -0.8460  0.9914
  146SAPE   H4S16076   1.771   3.987  10.223  0.9121  1.0655  0.8386
  146SAPE   C2516077   1.724   4.132  10.080  0.5235 -0.3748  0.2693
  146SAPE   H5R16078   1.722   4.226  10.137  0.4804  1.2363 -2.2342
  146SAPE   C2616079   1.761   4.136   9.950  0.6075  0.1577 -0.6424
  146SAPE   H6R16080   1.796   4.233   9.913 -0.3378  0.9541  0.4580
  146SAPE   C2716081   1.779   4.011   9.870  0.3505 -0.4040 -0.1633
  146SAPE   H7R16082   1.687   3.996   9.810 -0.3129  1.3072  0.3736
  146SAPE   H7S16083   1.805   3.921   9.930 -0.9547 -0.3608  0.4905
  146SAPE   C2816084   1.889   4.023   9.773 -0.3806 -0.2930  0.7643
  146SAPE   H8R16085   1.943   4.119   9.768 -1.3751  0.2551  0.4181
  146SAPE   C2916086   1.934   3.934   9.685 -0.6955 -0.4978 -0.6839
  146SAPE   H9R16087   2.023   3.943   9.621 -0.2716  3.5973  0.2135
  146SAPE  C21016088   1.891   3.788   9.682  0.3834  0.4528 -0.0687
  146SAPE  H10R16089   1.907   3.739   9.584  0.6388  0.3074  0.0453
  146SAPE  H10S16090   1.781   3.774   9.697  0.6686 -1.1784  0.7756
  146SAPE  C21116091   1.965   3.705   9.792 -0.2575  0.3955  1.0209
  146SAPE  H11R16092   1.934   3.723   9.896  2.3757  0.2618  1.8902
  146SAPE  C21216093   2.063   3.612   9.767 -0.3288  0.4801  0.0459
  146SAPE  H12R16094   2.113   3.559   9.850 -0.7783  2.3042  1.5692
  146SAPE  C21316095   2.124   3.578   9.640 -0.4029  0.2465  0.0746
  146SAPE  H13R16096   2.137   3.672   9.583  1.1452 -0.0596 -0.1111
  146SAPE  H13S16097   2.051   3.521   9.580 -0.6440  2.4736 -1.9096
  146SAPE  C21416098   2.266   3.520   9.645 -0.2898 -0.7163 -0.1272
  146SAPE  H14R16099   2.322   3.539   9.737 -2.1179  0.2776  0.8365
  146SAPE  C21516100   2.334   3.468   9.539 -0.6012  0.5995  0.7803
  146SAPE  H15R16101   2.436   3.428   9.551 -0.7484 -0.3107 -0.7668
  146SAPE  C21616102   2.266   3.451   9.405 -1.1967  0.3951  0.8152
  146SAPE  H16R16103   2.316   3.524   9.337 -1.0349  0.1457  0.6686
  146SAPE  H16S16104   2.156   3.466   9.401 -1.1084  0.9251 -1.9388
  146SAPE  C21716105   2.301   3.307   9.364  0.2827  0.0958  0.7664
  146SAPE  H17R16106   2.237   3.242   9.429 -0.2800 -0.4482 -0.3151
  146SAPE  H17S16107   2.408   3.281   9.373  0.9310  1.9685 -0.9440
  146SAPE  C21816108   2.256   3.276   9.221 -0.0047 -0.2121  1.1122
  146SAPE  H18R16109   2.307   3.343   9.149 -2.9907 -0.3497 -1.3807
  146SAPE  H18S16110   2.150   3.309   9.216  0.5281  1.3886 -2.2723
  146SAPE  C21916111   2.283   3.126   9.190  0.5629  0.0475  0.1708
  146SAPE  H19R16112   2.214   3.066   9.252 -1.5516 -0.8924 -2.8798
  146SAPE  H19S16113   2.383   3.097   9.229  0.2111 -0.0045  1.0690
  146SAPE  C22016114   2.238   3.084   9.051 -0.1560 -0.5223  0.4814
  146SAPE  H20R16115   2.239   2.973   9.044 -2.3176 -0.8112  2.9939
  146SAPE  H20S16116   2.314   3.119   8.979 -0.9952 -1.2337 -0.7807
  146SAPE  H20T16117   2.138   3.127   9.031  0.3151  0.6288  0.5295
  146SAPE   C3316118   1.396   4.729  10.329 -0.3202  0.7916 -0.1107
  146SAPE   H3X16119   1.298   4.721  10.381  0.8994 -0.1645  2.1999
  146SAPE   H3Y16120   1.420   4.627  10.292  0.6629  0.5362  1.1561
  146SAPE   C3416121   1.382   4.829  10.210  1.0693 -0.0459  0.1503
  146SAPE   H4X16122   1.482   4.876  10.195  1.5305 -1.0202  0.0460
  146SAPE   H4Y16123   1.305   4.902  10.242  1.0262  0.1439 -0.3694
  146SAPE   C3516124   1.349   4.770  10.073 -0.6677 -0.0348  1.0406
  146SAPE   H5X16125   1.248   4.726  10.064 -1.7243  2.3771  0.3491
  146SAPE   H5Y16126   1.431   4.700  10.048 -0.2843  1.2300 -1.6656
  146SAPE   C3616127   1.359   4.883   9.963 -0.8863  0.5674 -0.6428
  146SAPE   H6X16128   1.439   4.957   9.983 -0.7070  0.6241 -1.5120
  146SAPE   H6Y16129   1.263   4.936   9.977 -0.7187  0.2794  1.9007
  146SAPE   C3716130   1.378   4.822   9.825 -0.3003 -0.5225 -0.3747
  146SAPE   H7X16131   1.279   4.773   9.817 -0.4405 -0.4432  0.7136
  146SAPE   H7Y16132   1.461   4.748   9.832 -0.4166 -0.4693  2.9407
  146SAPE   C3816133   1.401   4.928   9.721  0.2923  0.0481  0.1376
  146SAPE   H8X16134   1.510   4.945   9.712 -0.0336  2.1856 -0.2531
  146SAPE   H8Y16135   1.367   5.024   9.765 -1.8874 -1.8329  2.8914
  146SAPE   C3916136   1.335   4.897   9.585 -0.2583  0.5256  0.0836
  146SAPE   H9X16137   1.228   4.925   9.582  0.4005  3.2540 -2.0146
  146SAPE   H9Y16138   1.333   4.788   9.563 -0.7681  0.2193  1.5043
  146SAPE  C31016139   1.402   4.970   9.475 -0.4107 -0.2360  0.6494
  146SAPE  H10X16140   1.512   4.955   9.486 -0.6471 -0.8917  2.5707
  146SAPE  H10Y16141   1.370   5.075   9.487  1.4709  0.5395 -0.6234
  146SAPE  C31116142   1.355   4.919   9.339 -0.0355  0.0324  0.1250
  146SAPE  H11X16143   1.244   4.915   9.337 -0.0446  0.3063 -0.0146
  146SAPE  H11Y16144   1.387   4.815   9.320 -3.3807 -1.2983  1.1619
  146SAPE  C31216145   1.392   5.019   9.226  0.1248 -0.1968  0.7725
  146SAPE  H12X16146   1.502   5.032   9.234  0.1559 -0.4526  0.7706
  146SAPE  H12Y16147   1.345   5.118   9.248 -2.8802 -1.4663  0.4923
  146SAPE  C31316148   1.355   4.970   9.085 -0.1719 -0.2474  0.1509
  146SAPE  H13X16149   1.244   4.968   9.095 -0.0917  0.1843  1.3478
  146SAPE  H13Y16150   1.383   4.864   9.070  0.2847 -0.2107  0.7071
  146SAPE  C31416151   1.403   5.061   8.966 -0.2542  0.3926 -0.3477
  146SAPE  H14X16152   1.510   5.034   8.956  0.1089  1.1414  1.2170
  146SAPE  H14Y16153   1.408   5.169   8.991 -2.8983  0.1932  1.4631
  146SAPE  C31516154   1.324   5.026   8.844  0.6127 -0.3118  0.6131
  146SAPE  H15X16155   1.325   5.103   8.764  1.6845 -2.0742 -1.1738
  146SAPE  H15Y16156   1.217   5.034   8.873  1.1067  0.3384  2.3577
  146SAPE  C31616157   1.335   4.884   8.792 -0.2223  0.5087  0.3548
  146SAPE  H16X16158   1.236   4.834   8.794  0.2342 -0.4471  3.1952
  146SAPE  H16Y16159   1.405   4.827   8.856  0.6652 -0.5940 -1.5084
  146SAPE  C31716160   1.399   4.884   8.653 -0.1818  0.1021 -1.1550
  146SAPE  H17X16161   1.505   4.912   8.673 -0.2051  0.1449 -1.0936
  146SAPE  H17Y16162   1.354   4.967   8.594  0.4120  1.0774 -0.2555
  146SAPE  C31816163   1.387   4.752   8.583  0.6030  0.2967 -0.3171
  146SAPE  H18X16164   1.430   4.757   8.481 -1.3628  0.5737 -1.1794
  146SAPE  H18Y16165   1.279   4.726   8.580  0.2253  1.2568  2.2778
  146SAPE  H18Z16166   1.439   4.666   8.631  1.0443  0.5738 -0.3035
  147SAPE     N16167   2.803   0.608  10.824  0.1915 -0.1423 -0.0968
  147SAPE   HN116168   2.825   0.507  10.816  0.1015 -0.0585 -1.7771
  147SAPE   HN216169   2.898   0.650  10.834 -0.7919  1.7681  2.2401
  147SAPE   HN316170   2.733   0.631  10.897 -0.1300 -0.8457 -0.1789
  147SAPE   C1216171   2.743   0.653  10.686  0.4582 -0.7292  0.7119
  147SAPE  H12A16172   2.633   0.660  10.703  0.3318  0.2185 -0.3650
  147SAPE  H12B16173   2.759   0.569  10.616 -1.3061 -1.4912  1.1819
  147SAPE   C1116174   2.812   0.783  10.643  0.1199  0.2464  0.3071
  147SAPE  H11A16175   2.785   0.868  10.710  0.8024  1.0734 -0.4423
  147SAPE  H11B16176   2.771   0.815  10.546  0.2042 -3.0221 -0.9371
  147SAPE     P16177   3.054   0.826  10.732 -0.2193  0.2565  0.1329
  147SAPE   O1316178   3.005   0.767  10.861  0.1826 -0.0303 -0.3041
  147SAPE   O1416179   3.196   0.795  10.692  0.4131 -0.2158 -1.1473
  147SAPE   O1216180   2.954   0.764  10.622  0.3133  0.2252  0.2279
  147SAPE   O1116181   3.035   0.978  10.721  0.3442  0.0636  0.2487
  147SAPE    C116182   3.079   1.072  10.623 -0.3722  0.0726 -0.0029
  147SAPE    HA16183   3.048   1.176  10.649 -0.4130  0.4718 -1.5802
  147SAPE    HB16184   3.189   1.072  10.609 -0.2407  1.2727  0.8181
  147SAPE    C216185   3.023   1.047  10.482 -0.2838 -0.2978 -0.3138
  147SAPE    HS16186   2.913   1.030  10.485 -0.0996 -1.7671 -0.8733
  147SAPE   O2116187   3.096   0.939  10.421 -0.4519  0.2481 -0.0780
  147SAPE   C2116188   3.037   0.883  10.320  0.2554 -0.3607 -0.2420
  147SAPE   O2216189   2.925   0.914  10.282  0.7650 -0.3400 -0.3409
  147SAPE   C2216190   3.120   0.771  10.270  0.7106  0.4524  0.6114
  147SAPE   H2R16191   3.229   0.793  10.279  0.2771  3.6950 -0.6316
  147SAPE   H2S16192   3.094   0.677  10.322 -0.7472 -0.2712 -1.2943
  147SAPE    C316193   3.040   1.183  10.398 -0.1963 -1.0879  0.0732
  147SAPE    HX16194   3.148   1.207  10.412  0.0585 -1.3108 -1.4143
  147SAPE    HY16195   2.985   1.268  10.444 -0.4254  0.6720 -3.1758
  147SAPE   O3116196   3.013   1.172  10.261  0.6178 -0.4379 -0.2248
  147SAPE   C3116197   2.883   1.201  10.237 -0.0415 -0.4957 -0.5863
  147SAPE   O3216198   2.796   1.233  10.311  0.2477 -0.0361 -0.3747
  147SAPE   C3216199   2.873   1.190  10.082 -0.0388  0.0638 -0.6752
  147SAPE   H2X16200   2.904   1.087  10.052 -1.5566 -0.3914 -0.7848
  147SAPE   H2Y16201   2.949   1.256  10.035  0.8645 -1.3301 -1.2421
  147SAPE   C2316202   3.084   0.727  10.123  0.0059  0.3924 -0.2643
  147SAPE   H3R16203   3.092   0.807  10.047 -0.3766  0.2472 -0.4629
  147SAPE   H3S16204   2.980   0.687  10.118 -0.2458  1.0145 -0.0652
  147SAPE   C2416205   3.182   0.614  10.092  0.2695 -0.2442 -0.2190
  147SAPE   H4R16206   3.151   0.570   9.994 -0.4489 -0.2113 -0.0087
  147SAPE   H4S16207   3.166   0.539  10.172  1.8635  1.0222  1.3658
  147SAPE   C2516208   3.328   0.656  10.093 -0.5579  0.4700 -0.8225
  147SAPE   H5R16209   3.369   0.659  10.195  0.0360  1.4855 -1.0782
  147SAPE   C2616210   3.401   0.674   9.986  0.1381 -0.0979 -0.0515
  147SAPE   H6R16211   3.505   0.708  10.003  0.7345 -1.1640 -1.3291
  147SAPE   C2716212   3.374   0.669   9.839  0.4109  0.8893  0.0712
  147SAPE   H7R16213   3.339   0.566   9.818  1.2207  0.4326  0.8827
  147SAPE   H7S16214   3.474   0.679   9.791  0.2476  0.8988 -0.2707
  147SAPE   C2816215   3.276   0.766   9.779 -0.6092 -0.0823  0.3774
  147SAPE   H8R16216   3.225   0.831   9.851 -0.8932 -1.3811  1.3848
  147SAPE   C2916217   3.270   0.793   9.643  0.2190  0.8908  0.3576
  147SAPE   H9R16218   3.208   0.873   9.600  1.5805  0.6573 -2.2499
  147SAPE  C21016219   3.357   0.722   9.540 -0.0411 -0.4711 -0.5281
  147SAPE  H10R16220   3.458   0.707   9.583 -0.2335 -0.0364  0.0999
  147SAPE  H10S16221   3.375   0.783   9.449  0.2687  1.4093  0.7404
  147SAPE  C21116222   3.297   0.590   9.512  0.0740  0.0378  0.4834
  147SAPE  H11R16223   3.242   0.539   9.592 -0.2341 -0.2449  0.0926
  147SAPE  C21216224   3.291   0.517   9.399 -0.1190  0.9977  0.9535
  147SAPE  H12R16225   3.233   0.424   9.407  0.8781  0.1242 -1.1483
  147SAPE  C21316226   3.364   0.552   9.266 -0.0430 -0.4756 -0.1068
  147SAPE  H13R16227   3.472   0.545   9.290 -0.0438  0.7404  0.3160
  147SAPE  H13S16228   3.346   0.656   9.231 -0.5848 -0.4661  0.1977
  147SAPE  C21416229   3.323   0.448   9.166 -0.1922  0.3401 -0.4021
  147SAPE  H14R16230   3.215   0.427   9.161  0.3474 -2.5172 -1.8788
  147SAPE  C21516231   3.399   0.382   9.083 -0.0852 -0.3153 -0.6489
  147SAPE  H15R16232   3.346   0.317   9.012  1.4463 -2.2892 -0.0658
  147SAPE  C21616233   3.550   0.394   9.057  0.5602 -0.5541 -0.0663
  147SAPE  H16R16234   3.610   0.320   9.113 -0.5447 -1.8179 -0.5103
  147SAPE  H16S16235   3.579   0.498   9.083  0.6727 -1.1330  2.2943
  147SAPE  C21716236   3.576   0.362   8.907  0.2876 -0.5615 -0.2269
  147SAPE  H17R16237   3.539   0.263   8.872  0.6541 -1.6557  2.2491
  147SAPE  H17S16238   3.686   0.367   8.894  0.3555 -1.7418 -0.1955
  147SAPE  C21816239   3.519   0.468   8.811  0.1102 -0.0509  0.3618
  147SAPE  H18R16240   3.593   0.551   8.815  1.1029 -0.8642 -0.6724
  147SAPE  H18S16241   3.426   0.522   8.841 -1.2714 -0.0690 -3.3467
  147SAPE  C21916242   3.530   0.419   8.659  0.1579 -0.3249 -0.2328
  147SAPE  H19R16243   3.512   0.310   8.649  3.2070 -0.8830 -0.7083
  147SAPE  H19S16244   3.639   0.421   8.634  0.3974 -1.8095  0.5613
  147SAPE  C22016245   3.436   0.502   8.563 -0.3357  0.3920  0.3019
  147SAPE  H20R16246   3.480   0.518   8.462 -0.2173 -0.3843  0.2247
  147SAPE  H20S16247   3.424   0.599   8.617 -0.4019  1.6281 -1.7952
  147SAPE  H20T16248   3.338   0.452   8.559 -0.7484  1.2326 -0.6019
  147SAPE   C3316249   2.732   1.228  10.028  0.0591  1.0689  0.5310
  147SAPE   H3X16250   2.691   1.319  10.076 -0.6231 -0.1790  2.4547
  147SAPE   H3Y16251   2.663   1.143  10.051  2.8282 -1.4514  0.0630
  147SAPE   C3416252   2.730   1.260   9.874 -0.1597 -0.0615  0.3933
  147SAPE   H4X16253   2.779   1.170   9.830  0.6951  0.0596  1.0828
  147SAPE   H4Y16254   2.799   1.345   9.854 -0.3408  0.1070  0.4850
  147SAPE   C3516255   2.593   1.281   9.802  0.0817  0.8306 -0.4328
  147SAPE   H5X16256   2.546   1.375   9.838 -0.9260  0.8192 -1.6514
  147SAPE   H5Y16257   2.528   1.196   9.831  0.0701  0.9470 -0.1133
  147SAPE   C3616258   2.601   1.281   9.651  0.2412  0.0502 -0.0537
  147SAPE   H6X16259   2.641   1.184   9.612  0.3220  0.3942 -0.8427
  147SAPE   H6Y16260   2.667   1.367   9.628  1.6512 -0.8790  0.3739
  147SAPE   C3716261   2.456   1.308   9.595 -0.8475 -0.8106 -0.1821
  147SAPE   H7X16262   2.415   1.409   9.615 -2.5440 -0.7677 -3.2302
  147SAPE   H7Y16263   2.388   1.230   9.636 -0.8527  0.0828  1.5964
  147SAPE   C3816264   2.456   1.309   9.445 -0.0339 -0.0658  0.0998
  147SAPE   H8X16265   2.510   1.220   9.405  0.0215  1.0722 -2.5783
  147SAPE   H8Y16266   2.516   1.392   9.402 -1.6353  0.0097 -2.2074
  147SAPE   C3916267   2.309   1.329   9.387 -0.0876 -0.1870 -0.1648
  147SAPE   H9X16268   2.278   1.425   9.435  0.6850  0.8409 -1.6456
  147SAPE   H9Y16269   2.241   1.248   9.420 -1.7571  1.8411  1.6893
  147SAPE  C31016270   2.298   1.343   9.234 -0.4306 -0.3456 -0.7297
  147SAPE  H10X16271   2.339   1.251   9.188  1.5751  0.6365 -1.0424
  147SAPE  H10Y16272   2.373   1.416   9.196  1.0214 -0.7865  1.1604
  147SAPE  C31116273   2.157   1.378   9.183  0.0283  0.6245 -1.0060
  147SAPE  H11X16274   2.127   1.470   9.239 -0.7244 -0.1136 -0.1673
  147SAPE  H11Y16275   2.080   1.299   9.193  2.0300 -1.5371 -1.8078
  147SAPE  C31216276   2.150   1.416   9.036  0.2533  0.3119  0.0142
  147SAPE  H12X16277   2.191   1.329   8.981  0.0026  0.4503 -0.3908
  147SAPE  H12Y16278   2.213   1.507   9.023  1.8117 -0.6271  0.7445
  147SAPE  C31316279   2.003   1.427   8.977  0.5796  0.0511 -0.1190
  147SAPE  H13X16280   1.943   1.484   9.051  2.2370 -0.2898  1.5380
  147SAPE  H13Y16281   1.958   1.328   8.954  1.7309 -0.2788 -1.0646
  147SAPE  C31416282   1.993   1.528   8.857  0.4704 -0.1476  0.4214
  147SAPE  H14X16283   2.037   1.629   8.876  1.0503  0.0174 -1.5494
  147SAPE  H14Y16284   1.886   1.550   8.838  0.0100 -0.3069  2.6130
  147SAPE  C31516285   2.068   1.467   8.739 -0.4750 -0.1536 -0.3386
  147SAPE  H15X16286   2.004   1.380   8.712 -1.3399  0.3695 -0.0254
  147SAPE  H15Y16287   2.165   1.430   8.779  0.1874  1.0675 -0.7738
  147SAPE  C31616288   2.082   1.567   8.626  0.4258  0.5254  0.8621
  147SAPE  H16X16289   2.127   1.513   8.541 -3.1745  0.7421 -1.4022
  147SAPE  H16Y16290   2.157   1.630   8.679 -1.4277  1.8507  2.0683
  147SAPE  C31716291   1.942   1.625   8.582  0.0597  0.0076  0.0840
  147SAPE  H17X16292   1.908   1.693   8.663 -2.3388  0.5329 -1.2691
  147SAPE  H17Y16293   1.871   1.540   8.576  2.2947 -1.8831 -1.2919
  147SAPE  C31816294   1.946   1.692   8.444  0.2475 -0.8105  0.5136
  147SAPE  H18X16295   2.004   1.786   8.431 -1.2538 -0.0615 -1.0390
  147SAPE  H18Y16296   1.842   1.710   8.410  0.7315 -0.9647 -1.1068
  147SAPE  H18Z16297   1.974   1.607   8.378  1.8837 -0.2070  0.3847
  148SAPE     N16298   5.367   2.896  10.674 -0.3299 -0.5343  0.2917
  148SAPE   HN116299   5.403   2.993  10.686 -1.8287  0.2416 -1.1362
  148SAPE   HN216300   5.270   2.905  10.711  0.1756  2.2474  1.1927
  148SAPE   HN316301   5.427   2.847  10.744 -0.1794  0.1545  0.6496
  148SAPE   C1216302   5.386   2.837  10.537 -0.3990 -0.5171 -0.8012
  148SAPE  H12A16303   5.496   2.835  10.520 -0.5426 -0.7188 -1.7957
  148SAPE  H12B16304   5.337   2.906  10.464 -1.9834  0.2962  0.9578
  148SAPE   C1116305   5.323   2.701  10.535  0.0344 -0.2593  1.0985
  148SAPE  H11A16306   5.351   2.660  10.436 -2.2000  1.2917 -0.2772
  148SAPE  H11B16307   5.214   2.722  10.539  0.0294 -0.4039  3.5844
  148SAPE     P16308   5.483   2.509  10.615 -0.2261  0.0443 -0.1304
  148SAPE   O1316309   5.562   2.497  10.739 -0.4568  0.2676  0.2632
  148SAPE   O1416310   5.424   2.385  10.563 -0.2577 -0.3867  0.4137
  148SAPE   O1216311   5.370   2.613  10.641 -0.2770  0.2301 -0.8811
  148SAPE   O1116312   5.567   2.577  10.507  0.1423 -0.1446 -0.1288
  148SAPE    C116313   5.634   2.511  10.403  0.4810 -0.3435  1.0266
  148SAPE    HA16314   5.729   2.470  10.444  0.6155 -1.5899 -0.4380
  148SAPE    HB16315   5.571   2.434  10.354 -1.5313  2.4710 -1.2417
  148SAPE    C216316   5.687   2.616  10.302  0.0662  0.4169 -1.0250
  148SAPE    HS16317   5.736   2.695  10.361 -0.5541 -1.4382  2.2088
  148SAPE   O2116318   5.576   2.651  10.217  0.9905 -0.0214  0.0183
  148SAPE   C2116319   5.537   2.774  10.221  0.0145 -0.1125  0.2814
  148SAPE   O2216320   5.577   2.864  10.296 -0.4044 -0.2066  0.1717
  148SAPE   C2216321   5.430   2.795  10.106 -0.0102  0.5578 -0.8379
  148SAPE   H2R16322   5.385   2.699  10.074 -2.2016  1.0446  0.5680
  148SAPE   H2S16323   5.353   2.858  10.155 -0.5466 -0.6463 -0.0874
  148SAPE    C316324   5.796   2.546  10.223 -0.0226  0.6300 -0.1110
  148SAPE    HX16325   5.765   2.440  10.216  2.6717 -0.1829 -1.3003
  148SAPE    HY16326   5.896   2.549  10.272  0.7485  1.2977 -1.6481
  148SAPE   O3116327   5.805   2.601  10.093  0.2697 -0.1768  0.1291
  148SAPE   C3116328   5.866   2.723  10.085  0.0853  0.2126 -0.0818
  148SAPE   O3216329   5.920   2.779  10.179  0.2082  0.3174 -0.5023
  148SAPE   C3216330   5.871   2.772   9.942  0.1251  0.5549  0.1230
  148SAPE   H2X16331   5.807   2.862   9.938  1.6078  1.6270 -1.9912
  148SAPE   H2Y16332   5.830   2.692   9.876 -0.8016 -1.6504  3.1370
  148SAPE   C2316333   5.479   2.872   9.988 -0.3063 -0.1356  0.4634
  148SAPE   H3R16334   5.533   2.800   9.922 -0.8770 -1.9162  1.8715
  148SAPE   H3S16335   5.549   2.953  10.018  1.1600 -1.6664  1.3858
  148SAPE   C2416336   5.367   2.934   9.896  0.0192  0.6801  0.6868
  148SAPE   H4R16337   5.299   2.994   9.961  0.2438  2.2905 -0.5011
  148SAPE   H4S16338   5.305   2.851   9.857 -3.3063  2.4733  1.7242
  148SAPE   C2516339   5.411   3.019   9.780 -0.2412 -0.1954  0.4186
  148SAPE   H5R16340   5.465   3.111   9.807  1.1649 -0.2006 -2.0147
  148SAPE   C2616341   5.393   3.007   9.640 -1.0222 -0.7521 -0.4790
  148SAPE   H6R16342   5.448   3.078   9.576 -0.9163 -0.3198  0.0846
  148SAPE   C2716343   5.314   2.906   9.570 -0.7081  0.0912  0.1920
  148SAPE   H7R16344   5.207   2.937   9.570 -1.2283 -1.6044 -0.9923
  148SAPE   H7S16345   5.306   2.811   9.626 -0.5325  0.1889  0.3856
  148SAPE   C2816346   5.356   2.896   9.425  0.7783 -0.1045  0.0873
  148SAPE   H8R16347   5.461   2.869   9.413  1.3613  2.1399 -0.3728
  148SAPE   C2916348   5.294   2.932   9.306 -0.2375  0.0655 -0.4622
  148SAPE   H9R16349   5.362   2.928   9.219 -0.1466 -1.2138 -0.3575
  148SAPE  C21016350   5.166   3.002   9.282  0.6587  0.4782 -0.2858
  148SAPE  H10R16351   5.173   3.070   9.195 -2.2610 -0.9979 -1.8485
  148SAPE  H10S16352   5.150   3.075   9.365  2.1593  0.3152  0.1843
  148SAPE  C21116353   5.045   2.909   9.275  0.4111 -0.4978 -0.5431
  148SAPE  H11R16354   4.996   2.873   9.367  0.3307 -1.5554 -0.9947
  148SAPE  C21216355   5.007   2.848   9.157 -0.1105 -0.5525 -0.6040
  148SAPE  H12R16356   4.904   2.810   9.155 -0.9480  1.5839 -1.4526
  148SAPE  C21316357   5.069   2.863   9.022 -1.1049 -0.3120 -0.3355
  148SAPE  H13R16358   5.139   2.777   9.028  1.7141  1.8899  1.8078
  148SAPE  H13S16359   5.136   2.951   9.007  1.1408 -1.8554  0.2360
  148SAPE  C21416360   4.967   2.849   8.918 -0.3095 -0.3473 -0.5292
  148SAPE  H14R16361   4.878   2.795   8.957  2.1304 -3.4933  1.2037
  148SAPE  C21516362   4.944   2.906   8.797  0.1855 -0.1476  0.7644
  148SAPE  H15R16363   4.846   2.884   8.751  1.4210 -1.1405 -1.5331
  148SAPE  C21616364   5.026   3.005   8.721  0.2916  0.3389 -0.1759
  148SAPE  H16R16365   5.109   3.047   8.782  1.3451  0.9510 -1.9492
  148SAPE  H16S16366   4.964   3.094   8.699 -0.2172 -0.2226 -1.0807
  148SAPE  C21716367   5.071   2.967   8.580 -0.8178 -0.6161 -0.0893
  148SAPE  H17R16368   4.980   2.956   8.517  0.4675  0.2943 -2.2497
  148SAPE  H17S16369   5.119   2.867   8.583 -1.3518 -0.9601 -1.8395
  148SAPE  C21816370   5.170   3.070   8.526 -0.7408  0.1861  0.7150
  148SAPE  H18R16371   5.258   3.091   8.591  1.5223  1.6216 -2.5671
  148SAPE  H18S16372   5.121   3.170   8.526  1.3522  1.2947  2.7382
  148SAPE  C21916373   5.236   3.029   8.401 -0.4858  0.1804 -0.1768
  148SAPE  H19R16374   5.255   2.921   8.413 -0.3315  0.3289  1.0883
  148SAPE  H19S16375   5.332   3.086   8.397  0.7182 -1.7877 -0.3880
  148SAPE  C22016376   5.142   3.055   8.287 -0.0408 -0.0155  0.1065
  148SAPE  H20R16377   5.115   3.163   8.292  2.5876  0.6886  2.5404
  148SAPE  H20S16378   5.056   2.985   8.294 -1.1120  1.0661 -1.5189
  148SAPE  H20T16379   5.192   3.030   8.191 -1.0870  3.1440 -1.3937
  148SAPE   C3316380   6.008   2.830   9.907  0.0623 -0.0797  1.4486
  148SAPE   H3X16381   6.083   2.753   9.933  0.2702 -0.2926  0.2446
  148SAPE   H3Y16382   6.022   2.927   9.960 -0.3346 -1.2939  3.9319
  148SAPE   C3416383   6.027   2.846   9.756  0.1951 -0.4545  0.5046
  148SAPE   H4X16384   6.120   2.899   9.727 -0.4892  0.2331 -0.4970
  148SAPE   H4Y16385   5.945   2.907   9.714  0.7351 -0.2013 -0.2135
  148SAPE   C3516386   6.025   2.711   9.681  0.3037 -0.4198  0.1621
  148SAPE   H5X16387   5.917   2.691   9.666  0.3863 -1.7041  1.0560
  148SAPE   H5Y16388   6.080   2.638   9.745  2.6641  1.5488  0.5298
  148SAPE   C3616389   6.099   2.711   9.543 -0.2149 -0.0014  0.4924
  148SAPE   H6X16390   6.090   2.613   9.493  1.7098 -0.2298  0.5075
  148SAPE   H6Y16391   6.209   2.728   9.545 -0.0833 -0.8633  0.9660
  148SAPE   C3716392   6.037   2.806   9.440 -0.2369  0.6849  0.3573
  148SAPE   H7X16393   6.037   2.908   9.484  1.2360  0.5869  0.6435
  148SAPE   H7Y16394   5.932   2.779   9.416 -0.1512 -0.2754  1.0282
  148SAPE   C3816395   6.123   2.815   9.310  0.5506  0.0736  0.7555
  148SAPE   H8X16396   6.144   2.715   9.265 -1.0814  0.4204 -0.8893
  148SAPE   H8Y16397   6.218   2.865   9.338  0.4843  1.5320 -1.3998
  148SAPE   C3916398   6.060   2.896   9.199 -0.7384 -0.6824 -0.4573
  148SAPE   H9X16399   6.029   2.996   9.235 -0.4605 -0.6475 -0.3166
  148SAPE   H9Y16400   5.970   2.834   9.176 -1.9548 -0.2953  2.8043
  148SAPE  C31016401   6.152   2.912   9.072 -0.1696 -0.4364  0.3109
  148SAPE  H10X16402   6.180   2.807   9.048 -3.1626 -1.3027  0.1732
  148SAPE  H10Y16403   6.241   2.973   9.099 -2.1258  0.9106  4.7058
  148SAPE  C31116404   6.089   2.975   8.945 -0.0887  0.0171 -0.5008
  148SAPE  H11X16405   5.993   2.922   8.930  0.7742 -0.8970 -3.8511
  148SAPE  H11Y16406   6.152   2.937   8.861 -0.6341 -2.0234 -0.0397
  148SAPE  C31216407   6.090   3.125   8.955 -0.3223 -0.1184 -0.5916
  148SAPE  H12X16408   6.194   3.164   8.950  0.0716 -0.9465  0.6670
  148SAPE  H12Y16409   6.046   3.168   9.048  1.7467  3.7855 -1.1917
  148SAPE  C31316410   6.017   3.186   8.831 -0.4457 -0.4161  0.3886
  148SAPE  H13X16411   6.058   3.150   8.734 -0.0168  2.6820 -0.6653
  148SAPE  H13Y16412   6.037   3.295   8.823 -0.2937 -0.2460  2.5250
  148SAPE  C31416413   5.862   3.159   8.827 -0.3684 -0.3683  0.3316
  148SAPE  H14X16414   5.817   3.230   8.900  0.1046  0.6316 -0.3165
  148SAPE  H14Y16415   5.833   3.067   8.881 -1.7840  0.8674  1.7790
  148SAPE  C31516416   5.805   3.174   8.688 -0.2944  0.3347 -0.1046
  148SAPE  H15X16417   5.835   3.082   8.634 -1.5469 -0.1342 -0.0277
  148SAPE  H15Y16418   5.843   3.263   8.633 -0.5821  0.2708 -0.4101
  148SAPE  C31616419   5.653   3.162   8.699 -0.0423 -0.2413  0.0395
  148SAPE  H16X16420   5.627   3.227   8.785  0.6960 -0.5725  0.5219
  148SAPE  H16Y16421   5.628   3.056   8.724 -0.5642 -0.1025  0.1174
  148SAPE  C31716422   5.587   3.211   8.571 -0.0065 -0.0606 -0.4837
  148SAPE  H17X16423   5.610   3.319   8.555 -0.4034  0.0242 -0.4871
  148SAPE  H17Y16424   5.479   3.199   8.595  0.1663  1.5999  1.3494
  148SAPE  C31816425   5.618   3.125   8.450 -0.6950 -0.0235  0.6906
  148SAPE  H18X16426   5.551   3.141   8.363 -0.0038 -0.5794  0.0421
  148SAPE  H18Y16427   5.605   3.015   8.460 -3.4752  0.2607  0.9823
  148SAPE  H18Z16428   5.715   3.162   8.411  0.0287 -2.1409  0.3851
  149SAPE     N16429   2.148   1.321  10.973 -0.2948 -0.1220  0.0498
  149SAPE   HN116430   2.066   1.273  10.930  0.1809  0.2098 -1.2642
  149SAPE   HN216431   2.120   1.420  10.988 -0.6071  0.0683 -1.5654
  149SAPE   HN316432   2.231   1.310  10.912 -1.6546 -0.0921 -1.9268
  149SAPE   C1216433   2.156   1.251  11.102 -0.0829  0.0216 -0.5523
  149SAPE  H12A16434   2.070   1.280  11.167  0.2782 -0.0862 -0.0297
  149SAPE  H12B16435   2.257   1.272  11.143  0.2676 -1.5282 -0.5952
  149SAPE   C1116436   2.146   1.095  11.098 -0.3663 -0.0562 -0.6033
  149SAPE  H11A16437   2.047   1.059  11.061 -0.8797 -0.0624  0.7272
  149SAPE  H11B16438   2.162   1.057  11.201  1.1898  1.9022 -0.0645
  149SAPE     P16439   2.292   0.892  10.998 -0.1658  0.0788 -0.1173
  149SAPE   O1316440   2.402   0.848  11.089 -0.0841 -0.3986  0.3361
  149SAPE   O1416441   2.166   0.813  11.009 -0.3185  0.0721  0.3739
  149SAPE   O1216442   2.254   1.045  11.022 -0.2201  0.0182 -0.9653
  149SAPE   O1116443   2.329   0.881  10.845  0.1222  0.1356 -0.2466
  149SAPE    C116444   2.304   0.997  10.755  0.2240 -0.2622 -0.4051
  149SAPE    HA16445   2.206   1.047  10.772  0.4552  0.3052 -0.6772
  149SAPE    HB16446   2.380   1.074  10.782  0.9319 -1.6980  1.9883
  149SAPE    C216447   2.323   0.957  10.606 -0.1299 -0.3704 -0.3662
  149SAPE    HS16448   2.286   1.036  10.537 -0.9282 -1.0023 -0.6769
  149SAPE   O2116449   2.270   0.830  10.569 -0.4709 -0.0791 -0.6163
  149SAPE   C2116450   2.150   0.830  10.518  0.1971 -0.2063 -0.1661
  149SAPE   O2216451   2.079   0.930  10.514  0.2702  0.6345  0.0499
  149SAPE   C2216452   2.130   0.714  10.430 -0.3925  0.3307  0.1273
  149SAPE   H2R16453   2.224   0.687  10.379 -0.0714 -0.1442  0.9566
  149SAPE   H2S16454   2.098   0.629  10.493  2.7697 -2.3438 -1.5809
  149SAPE    C316455   2.480   0.945  10.603  0.4480 -0.1012 -0.1256
  149SAPE    HX16456   2.511   0.858  10.665  2.0269  1.2057  1.0030
  149SAPE    HY16457   2.526   1.033  10.654  3.1984 -2.6785  2.2517
  149SAPE   O3116458   2.532   0.927  10.468 -0.1096  0.2536 -0.8081
  149SAPE   C3116459   2.543   0.797  10.429 -0.0617 -0.5200  0.7184
  149SAPE   O3216460   2.513   0.699  10.495 -0.5316 -0.3034 -0.1561
  149SAPE   C3216461   2.611   0.790  10.287 -0.6350  0.4976  0.3424
  149SAPE   H2X16462   2.704   0.730  10.301  0.0476  1.5206  0.2729
  149SAPE   H2Y16463   2.643   0.894  10.264 -0.5806  0.2511 -0.7692
  149SAPE   C2316464   2.016   0.748  10.329  0.1534  0.2710 -0.3527
  149SAPE   H3R16465   2.049   0.842  10.280 -0.3513  0.7967  0.2924
  149SAPE   H3S16466   1.921   0.772  10.382 -0.0323 -1.3883  0.1324
  149SAPE   C2416467   1.979   0.641  10.222 -1.2324  0.4036 -0.0940
  149SAPE   H4R16468   1.879   0.675  10.188 -1.3777  0.7005  0.6190
  149SAPE   H4S16469   1.960   0.536  10.256 -1.9021 -0.1333 -1.9995
  149SAPE   C2516470   2.085   0.640  10.114  0.4183 -0.6308 -0.6006
  149SAPE   H5R16471   2.187   0.675  10.134  1.1971 -1.9568 -1.9920
  149SAPE   C2616472   2.064   0.580   9.997  0.4499 -0.1566 -0.1325
  149SAPE   H6R16473   2.151   0.576   9.929  2.1831  1.9349  1.8056
  149SAPE   C2716474   1.933   0.508   9.963 -0.3640  0.0231 -0.1982
  149SAPE   H7R16475   1.869   0.487  10.051  0.1249  0.4696  0.2718
  149SAPE   H7S16476   1.964   0.411   9.919 -0.2318  0.1138 -0.3075
  149SAPE   C2816477   1.853   0.579   9.862  0.9789  0.9260 -0.1943
  149SAPE   H8R16478   1.787   0.648   9.916 -0.8761 -0.4603 -0.5798
  149SAPE   C2916479   1.845   0.568   9.725  0.3084 -0.8043 -0.2421
  149SAPE   H9R16480   1.757   0.616   9.679 -0.4252  0.2736  2.1103
  149SAPE  C21016481   1.931   0.478   9.642 -0.5116  0.8686 -0.1974
  149SAPE  H10R16482   1.985   0.403   9.703  0.0103  1.4394  0.0449
  149SAPE  H10S16483   2.002   0.556   9.608 -0.5682  1.3620  0.7726
  149SAPE  C21116484   1.865   0.418   9.519 -0.1382 -0.2806  0.3512
  149SAPE  H11R16485   1.770   0.368   9.543  0.5212 -1.8028 -0.1399
  149SAPE  C21216486   1.910   0.422   9.395 -0.6969  0.0707  0.0583
  149SAPE  H12R16487   1.847   0.376   9.317  2.2288 -2.5116 -0.9886
  149SAPE  C21316488   2.038   0.479   9.340 -0.1236  0.0023  0.9810
  149SAPE  H13R16489   2.084   0.415   9.261  0.8830  0.6562  1.0347
  149SAPE  H13S16490   2.119   0.485   9.415  0.9241 -0.3164 -0.0996
  149SAPE  C21416491   2.005   0.614   9.283 -0.0058 -0.5545 -0.1499
  149SAPE  H14R16492   2.035   0.703   9.340  0.1387 -0.5619 -0.2132
  149SAPE  C21516493   1.960   0.638   9.159 -0.4630  0.1269  0.5047
  149SAPE  H15R16494   1.962   0.740   9.120 -1.8834  0.7122  1.8753
  149SAPE  C21616495   1.925   0.525   9.066 -0.2686  0.5841  0.2304
  149SAPE  H16R16496   1.822   0.487   9.085  0.1891 -0.1746  1.2616
  149SAPE  H16S16497   1.997   0.441   9.077  0.2798  0.8945 -0.8341
  149SAPE  C21716498   1.931   0.574   8.916  0.0261  0.0023 -0.0773
  149SAPE  H17R16499   1.883   0.674   8.913 -1.8865 -0.8832 -0.0722
  149SAPE  H17S16500   1.875   0.502   8.852 -0.6517  2.6975 -2.7846
  149SAPE  C21816501   2.072   0.580   8.867 -0.9593 -1.2733  0.2607
  149SAPE  H18R16502   2.116   0.478   8.860  0.6085 -0.6130  0.1618
  149SAPE  H18S16503   2.139   0.644   8.928 -2.0406  0.8596 -0.6773
  149SAPE  C21916504   2.084   0.641   8.729 -0.4549 -0.2242  0.6444
  149SAPE  H19R16505   2.188   0.617   8.696 -0.2341 -1.1634  1.9587
  149SAPE  H19S16506   2.079   0.751   8.743  1.5916 -0.1236  0.8289
  149SAPE  C22016507   1.986   0.586   8.631 -0.1560  0.2773  0.5450
  149SAPE  H20R16508   2.022   0.610   8.529  0.5461  1.4390  1.0478
  149SAPE  H20S16509   1.885   0.628   8.653  0.8650  1.8782  2.4829
  149SAPE  H20T16510   1.994   0.475   8.628  1.8203  0.3956 -0.7917
  149SAPE   C3316511   2.526   0.729  10.176  0.6484 -0.9144  0.0565
  149SAPE   H3X16512   2.425   0.759  10.211  1.1771  1.6457 -0.4555
  149SAPE   H3Y16513   2.538   0.618  10.179  1.0454 -0.8791 -0.2128
  149SAPE   C3416514   2.546   0.796  10.040  0.1268 -0.9896 -0.7083
  149SAPE   H4X16515   2.488   0.891  10.034  1.0998 -0.3200  0.1316
  149SAPE   H4Y16516   2.494   0.735   9.964 -1.3665 -1.1933  0.4422
  149SAPE   C3516517   2.694   0.830  10.001  0.4607 -0.2292  0.0419
  149SAPE   H5X16518   2.753   0.738  10.024 -0.4952 -1.0255 -0.5757
  149SAPE   H5Y16519   2.731   0.908  10.070 -0.5258 -0.8240  1.3087
  149SAPE   C3616520   2.713   0.847   9.847 -0.7187 -0.2895  0.0882
  149SAPE   H6X16521   2.655   0.939   9.824  0.2874 -0.3111 -2.9562
  149SAPE   H6Y16522   2.683   0.753   9.797  0.3842 -1.3421  1.3375
  149SAPE   C3716523   2.865   0.864   9.811  0.5362 -0.8217 -0.1772
  149SAPE   H7X16524   2.908   0.762   9.816  2.6771  0.0479  0.0287
  149SAPE   H7Y16525   2.904   0.920   9.899 -0.9812  0.3696 -0.2149
  149SAPE   C3816526   2.900   0.935   9.682  0.7092  0.0629  0.2660
  149SAPE   H8X16527   3.007   0.960   9.674  0.4633  0.7033 -1.7106
  149SAPE   H8Y16528   2.850   1.034   9.681  2.5748  1.0256  0.1796
  149SAPE   C3916529   2.856   0.856   9.554  0.4363 -0.5909 -0.3523
  149SAPE   H9X16530   2.750   0.822   9.558  0.1773 -0.0629 -1.9604
  149SAPE   H9Y16531   2.921   0.765   9.553  1.0077 -0.2892  2.0949
  149SAPE  C31016532   2.868   0.938   9.429  0.1390 -0.4154  0.6753
  149SAPE  H10X16533   2.961   0.998   9.436 -0.9948  1.2260  4.9629
  149SAPE  H10Y16534   2.786   1.013   9.429  0.5064 -0.0051  0.8555
  149SAPE  C31116535   2.870   0.859   9.301 -0.6623  0.3464  1.0844
  149SAPE  H11X16536   2.770   0.823   9.268  0.9260 -2.6466 -0.9613
  149SAPE  H11Y16537   2.927   0.768   9.329 -2.6927 -1.4179 -0.1857
  149SAPE  C31216538   2.946   0.931   9.189 -0.1078  0.2466  0.4145
  149SAPE  H12X16539   3.053   0.952   9.207  0.3703  0.0662 -1.9250
  149SAPE  H12Y16540   2.898   1.028   9.165 -1.6431 -0.5071  0.2585
  149SAPE  C31316541   2.963   0.848   9.061 -0.0437 -0.8124  0.0456
  149SAPE  H13X16542   3.009   0.912   8.982 -1.5690  1.5547  0.9579
  149SAPE  H13Y16543   2.861   0.814   9.032 -0.5485 -0.1168  0.9517
  149SAPE  C31416544   3.044   0.724   9.076  0.6257  0.2265  0.8084
  149SAPE  H14X16545   2.996   0.651   9.144 -1.7403  0.0019 -1.0023
  149SAPE  H14Y16546   3.148   0.754   9.102  1.3495 -1.1265 -0.4062
  149SAPE  C31516547   3.017   0.647   8.949  0.0097 -0.0348 -0.5145
  149SAPE  H15X16548   3.050   0.706   8.861 -1.0681 -0.2163 -1.0575
  149SAPE  H15Y16549   2.909   0.642   8.924 -0.5629  3.2642  0.8091
  149SAPE  C31616550   3.074   0.508   8.928  0.3615 -0.5617 -0.3134
  149SAPE  H16X16551   3.026   0.433   8.995 -2.0980  1.3951  0.2934
  149SAPE  H16Y16552   3.183   0.505   8.948  0.9363  3.2155 -2.0121
  149SAPE  C31716553   3.059   0.447   8.785  0.5179 -0.3337  0.2490
  149SAPE  H17X16554   3.117   0.513   8.716 -1.6646  0.7600 -0.6533
  149SAPE  H17Y16555   2.953   0.463   8.755  0.0676  1.2997  2.4083
  149SAPE  C31816556   3.104   0.304   8.772  0.3194  0.2316  0.0574
  149SAPE  H18X16557   3.107   0.281   8.663  2.1328  2.3591 -0.4172
  149SAPE  H18Y16558   3.041   0.233   8.829  1.0301 -0.7230 -0.3151
  149SAPE  H18Z16559   3.211   0.301   8.802  0.5711  0.7369 -0.7512
  150SAPE     N16560   0.462   5.733  11.112 -0.2103  0.1493  0.0509
  150SAPE   HN116561   0.450   5.836  11.114 -0.9123  0.0659  1.8364
  150SAPE   HN216562   0.371   5.706  11.070 -0.0848 -1.1947  0.5952
  150SAPE   HN316563   0.471   5.700  11.210  0.4341 -1.3425 -0.4753
  150SAPE   C1216564   0.584   5.706  11.030 -0.5612 -0.1175 -0.0918
  150SAPE  H12A16565   0.626   5.610  11.066  0.0019  0.6035  1.2931
  150SAPE  H12B16566   0.659   5.785  11.055 -0.4693 -0.4681  0.7794
  150SAPE   C1116567   0.541   5.709  10.881  0.3649  0.3547 -0.1530
  150SAPE  H11A16568   0.460   5.638  10.852 -0.3297  0.9788  0.2120
  150SAPE  H11B16569   0.631   5.682  10.822  1.1683  1.3763  0.5945
  150SAPE     P16570   0.503   5.890  10.697 -0.2553  0.2972  0.0734
  150SAPE   O1316571   0.441   6.020  10.688  0.4992  0.4667 -0.0403
  150SAPE   O1416572   0.647   5.886  10.647 -0.2085 -0.3916  0.2862
  150SAPE   O1216573   0.497   5.843  10.850 -0.1323 -0.3748  0.0224
  150SAPE   O1116574   0.411   5.794  10.614  0.3152 -0.0005  0.1408
  150SAPE    C116575   0.376   5.839  10.486 -0.0957 -0.7389 -0.3282
  150SAPE    HA16576   0.270   5.812  10.465  0.1874 -1.1577 -1.2657
  150SAPE    HB16577   0.378   5.950  10.478 -0.9420 -0.5125  1.8490
  150SAPE    C216578   0.461   5.764  10.377  0.4833 -0.2416  0.4136
  150SAPE    HS16579   0.571   5.775  10.386  0.6821 -0.9443 -0.9501
  150SAPE   O2116580   0.421   5.810  10.246  0.0512  0.4881  0.1834
  150SAPE   C2116581   0.460   5.934  10.213  0.5583  1.1887  0.8425
  150SAPE   O2216582   0.527   6.000  10.286 -0.6589  0.3856 -0.0996
  150SAPE   C2216583   0.393   5.978  10.083  0.6149  0.2403 -0.3564
  150SAPE   H2R16584   0.381   5.888  10.020  1.9257  0.5721 -1.1099
  150SAPE   H2S16585   0.288   6.000  10.109  0.4243  1.2834 -1.9199
  150SAPE    C316586   0.446   5.611  10.385  0.7515  0.4148  0.0758
  150SAPE    HX16587   0.339   5.599  10.413  0.8884  1.5049  1.1759
  150SAPE    HY16588   0.513   5.564  10.460 -0.6749 -0.1803  1.0247
  150SAPE   O3116589   0.477   5.556  10.254 -0.0706  0.1510  0.3568
  150SAPE   C3116590   0.495   5.422  10.253 -0.5305 -0.0514 -0.1539
  150SAPE   O3216591   0.475   5.349  10.348  0.4906 -0.2914 -1.0958
  150SAPE   C3216592   0.546   5.377  10.112  0.5321  0.1733  0.2222
  150SAPE   H2X16593   0.618   5.455  10.078  0.5814  0.3461  0.7176
  150SAPE   H2Y16594   0.464   5.381  10.037  1.6129 -1.7801 -1.1543
  150SAPE   C2316595   0.443   6.096  10.007 -0.3053 -0.8166 -0.6099
  150SAPE   H3R16596   0.481   6.175  10.075 -0.1844 -0.0314 -1.5762
  150SAPE   H3S16597   0.368   6.146   9.942 -0.1256  0.2775  0.0016
  150SAPE   C2416598   0.560   6.054   9.908 -0.0411 -0.3786 -0.0308
  150SAPE   H4R16599   0.513   5.986   9.834  1.1190 -0.9183 -0.2877
  150SAPE   H4S16600   0.628   5.991   9.969  0.3846  0.2257  0.1268
  150SAPE   C2516601   0.630   6.175   9.845  0.9230 -0.2087 -0.1285
  150SAPE   H5R16602   0.709   6.225   9.902 -0.9070 -0.9573  3.3233
  150SAPE   C2616603   0.613   6.232   9.725  0.0722  0.0552  0.1000
  150SAPE   H6R16604   0.687   6.306   9.694  1.0811  0.3538  3.0068
  150SAPE   C2716605   0.518   6.187   9.610 -0.4882 -0.4524  0.2957
  150SAPE   H7R16606   0.458   6.275   9.577  1.4754 -0.0018 -2.3895
  150SAPE   H7S16607   0.443   6.123   9.661 -1.3542  0.3394  0.0468
  150SAPE   C2816608   0.582   6.113   9.495 -0.2290  0.3340  0.1734
  150SAPE   H8R16609   0.633   6.024   9.534  1.5799  1.1042 -0.3519
  150SAPE   C2916610   0.583   6.140   9.364 -0.8654 -0.4076  0.6247
  150SAPE   H9R16611   0.617   6.065   9.290 -1.1107 -1.5115  1.5928
  150SAPE  C21016612   0.508   6.256   9.310  0.0627  0.0794 -0.8034
  150SAPE  H10R16613   0.436   6.300   9.382 -1.1218 -0.1139 -1.8286
  150SAPE  H10S16614   0.449   6.221   9.223 -0.1083 -0.9853 -0.2706
  150SAPE  C21116615   0.594   6.366   9.268 -0.5638  0.1980  0.0561
  150SAPE  H11R16616   0.685   6.389   9.326  0.5162 -0.5193 -1.2959
  150SAPE  C21216617   0.578   6.438   9.153  0.0385  0.5701  0.7653
  150SAPE  H12R16618   0.657   6.505   9.119  0.7941  0.3016  1.9271
  150SAPE  C21316619   0.471   6.418   9.044 -0.6364  0.1424  0.0460
  150SAPE  H13R16620   0.470   6.310   9.016  1.0079 -0.1327  0.8889
  150SAPE  H13S16621   0.512   6.470   8.956 -0.1614  3.6736  2.1512
  150SAPE  C21416622   0.335   6.471   9.077 -0.3284  0.0797 -0.7094
  150SAPE  H14R16623   0.332   6.563   9.138  0.9983 -0.0322 -0.4493
  150SAPE  C21516624   0.219   6.413   9.046  0.0281  0.3256  0.3175
  150SAPE  H15R16625   0.127   6.463   9.081  0.4846  1.7319 -0.3947
  150SAPE  C21616626   0.213   6.300   8.943  0.7408 -0.2799  0.2595
  150SAPE  H16R16627   0.173   6.211   8.997  0.4658 -0.6037 -0.4756
  150SAPE  H16S16628   0.311   6.273   8.899  1.3357  3.3791 -0.9711
  150SAPE  C21716629   0.115   6.333   8.824 -0.4661  0.4364  0.1276
  150SAPE  H17R16630   0.170   6.421   8.785  1.6313 -1.1078 -0.5422
  150SAPE  H17S16631   0.012   6.362   8.855 -0.4291  1.5293 -0.6917
  150SAPE  C21816632   0.100   6.220   8.718 -0.3966 -0.9006 -0.0757
  150SAPE  H18R16633   0.031   6.147   8.766  0.0847 -0.9854  0.4956
  150SAPE  H18S16634   0.199   6.174   8.697  1.2550  1.6900  1.4728
  150SAPE  C21916635   0.041   6.258   8.587  0.1829 -0.0240 -0.1480
  150SAPE  H19R16636   0.114   6.325   8.535 -0.0901  2.3641  2.3016
  150SAPE  H19S16637  -0.058   6.309   8.593  0.3321  0.1445  1.1122
  150SAPE  C22016638   0.008   6.131   8.501 -0.1153 -0.2717  0.9020
  150SAPE  H20R16639  -0.077   6.082   8.554 -2.0966  0.9239 -1.0101
  150SAPE  H20S16640   0.090   6.057   8.497 -0.9472 -1.1550 -0.8793
  150SAPE  H20T16641  -0.015   6.149   8.394  2.4878 -2.4467 -0.1216
  150SAPE   C3316642   0.600   5.232  10.113  0.3228 -0.3444 -0.5236
  150SAPE   H3X16643   0.522   5.155  10.130  2.0895 -1.9494  0.6727
  150SAPE   H3Y16644   0.686   5.217  10.182 -0.6060  1.2862  1.0728
  150SAPE   C3416645   0.664   5.201   9.971 -0.0326  0.0606 -0.1953
  150SAPE   H4X16646   0.713   5.101   9.980 -1.3553 -0.7162 -1.2411
  150SAPE   H4Y16647   0.735   5.284   9.950 -2.5319  2.4777  0.4577
  150SAPE   C3516648   0.562   5.193   9.855 -0.4664 -0.0536  0.4106
  150SAPE   H5X16649   0.511   5.291   9.843  2.0533  1.2193 -0.3424
  150SAPE   H5Y16650   0.482   5.118   9.875 -0.0224 -0.5485  0.3594
  150SAPE   C3616651   0.624   5.188   9.717 -0.2074  0.4810  0.0499
  150SAPE   H6X16652   0.684   5.094   9.716  0.3455  0.8379 -0.4240
  150SAPE   H6Y16653   0.695   5.271   9.699  0.8735 -0.9917 -3.0853
  150SAPE   C3716654   0.526   5.170   9.594 -0.9600 -0.1141 -0.6398
  150SAPE   H7X16655   0.458   5.257   9.582 -0.2303  0.2839 -2.2705
  150SAPE   H7Y16656   0.467   5.076   9.598  0.7921 -1.2770 -0.9182
  150SAPE   C3816657   0.623   5.167   9.475 -0.1777  0.1475 -0.6194
  150SAPE   H8X16658   0.675   5.069   9.469  1.4327  1.0186 -1.5915
  150SAPE   H8Y16659   0.705   5.241   9.482  1.5852 -1.7157 -0.8569
  150SAPE   C3916660   0.544   5.185   9.346  0.1496  0.4106 -0.2365
  150SAPE   H9X16661   0.509   5.288   9.365  0.0937  0.2884  0.3366
  150SAPE   H9Y16662   0.463   5.110   9.329  1.7808 -1.2351 -1.2455
  150SAPE  C31016663   0.631   5.200   9.221 -0.2768 -0.0018  0.0786
  150SAPE  H10X16664   0.698   5.112   9.208  1.1543  1.1754 -0.9189
  150SAPE  H10Y16665   0.707   5.279   9.234  0.3931 -0.3848 -1.2847
  150SAPE  C31116666   0.549   5.219   9.087  0.0141 -0.1428  0.0632
  150SAPE  H11X16667   0.534   5.328   9.071 -1.1706 -0.3173 -0.1579
  150SAPE  H11Y16668   0.448   5.173   9.095  0.3395 -1.1352 -1.1333
  150SAPE  C31216669   0.607   5.155   8.955  0.1716  0.1653  0.4727
  150SAPE  H12X16670   0.532   5.174   8.876  1.2183  0.2430 -0.5176
  150SAPE  H12Y16671   0.611   5.044   8.955  0.6940  0.1058  3.3511
  150SAPE  C31316672   0.741   5.222   8.918 -0.4683 -0.1413 -1.1336
  150SAPE  H13X16673   0.816   5.199   8.996 -1.6290 -1.6644 -0.4188
  150SAPE  H13Y16674   0.728   5.332   8.916  1.4417  0.2276  1.9613
  150SAPE  C31416675   0.802   5.163   8.789  0.0981 -0.3213  0.6686
  150SAPE  H14X16676   0.871   5.247   8.765  0.6789  0.3656  4.2434
  150SAPE  H14Y16677   0.722   5.162   8.712  0.0585 -1.3651  0.7132
  150SAPE  C31516678   0.877   5.031   8.807  0.0707 -0.7878  0.1875
  150SAPE  H15X16679   0.811   4.958   8.858 -0.6415  0.0179  0.4459
  150SAPE  H15Y16680   0.958   5.056   8.879  0.5887  1.9787 -1.1966
  150SAPE  C31616681   0.947   4.990   8.680 -0.3129 -0.2705 -0.4284
  150SAPE  H16X16682   1.052   4.958   8.696  0.0066  1.2739  0.8974
  150SAPE  H16Y16683   0.956   5.080   8.616 -0.4680 -0.7251 -1.0915
  150SAPE  C31716684   0.882   4.889   8.585  0.6173  0.2458  0.1990
  150SAPE  H17X16685   0.944   4.874   8.494  1.6999 -1.0346  1.0990
  150SAPE  H17Y16686   0.787   4.915   8.534 -0.2052 -0.4974  1.3020
  150SAPE  C31816687   0.855   4.751   8.655 -0.4618 -0.0743  0.8627
  150SAPE  H18X16688   0.800   4.758   8.752  1.3703 -2.0109  2.1133
  150SAPE  H18Y16689   0.951   4.722   8.702 -0.7975 -0.6920  1.1758
  150SAPE  H18Z16690   0.817   4.672   8.587  2.3519  1.0997 -2.3861
  151SAPE     N16691   0.608   2.085  10.529  0.1962  0.8780 -0.3267
  151SAPE   HN116692   0.674   2.011  10.561  0.5365  2.3824  2.9039
  151SAPE   HN216693   0.626   2.181  10.565 -2.0814  0.4797  2.1613
  151SAPE   HN316694   0.524   2.053  10.582 -0.4387  0.4011 -1.5939
  151SAPE   C1216695   0.560   2.081  10.384  0.0731  0.4104 -0.0221
  151SAPE  H12A16696   0.474   2.152  10.387 -1.9261 -1.8893  0.4783
  151SAPE  H12B16697   0.529   1.976  10.369 -0.9349  0.3667  2.0326
  151SAPE   C1116698   0.673   2.135  10.292 -0.7384 -0.2213  0.2493
  151SAPE  H11A16699   0.645   2.149  10.186  1.9793  1.6566 -0.3336
  151SAPE  H11B16700   0.755   2.060  10.295  0.2748  0.8486  0.3675
  151SAPE     P16701   0.839   2.341  10.340  0.2738 -0.5495 -0.3337
  151SAPE   O1316702   0.812   2.482  10.303  0.6931  0.2069  0.4176
  151SAPE   O1416703   0.913   2.334  10.471 -0.1985  0.4864  0.3994
  151SAPE   O1216704   0.708   2.263  10.345 -0.1423 -0.1099 -0.3021
  151SAPE   O1116705   0.927   2.275  10.225 -0.0048  0.1248 -0.0028
  151SAPE    C116706   0.917   2.319  10.087 -0.4156 -0.4253 -0.0261
  151SAPE    HA16707   0.858   2.412  10.073  1.8501  0.7992 -2.0816
  151SAPE    HB16708   1.022   2.344  10.062 -0.2011 -1.0661  0.2210
  151SAPE    C216709   0.886   2.202   9.993  0.2650  0.0649  0.2983
  151SAPE    HS16710   0.796   2.156  10.038  1.4955 -2.2677  0.5517
  151SAPE   O2116711   1.000   2.106   9.998  0.3854  0.5111  0.3864
  151SAPE   C2116712   0.962   1.979   9.962 -0.2131  0.2112 -0.0208
  151SAPE   O2216713   0.850   1.947   9.927  0.0467  0.3096 -0.2798
  151SAPE   C2216714   1.082   1.886   9.970 -0.1928  0.3439 -0.4264
  151SAPE   H2R16715   1.173   1.950   9.975 -1.9686  3.2274 -2.1960
  151SAPE   H2S16716   1.070   1.828  10.064  1.3751 -0.8408 -0.9104
  151SAPE    C316717   0.861   2.247   9.851  0.3462 -0.2281  0.0119
  151SAPE    HX16718   0.833   2.154   9.799  0.4172 -0.8525  1.0659
  151SAPE    HY16719   0.965   2.280   9.825  1.2443 -3.0087 -0.2199
  151SAPE   O3116720   0.765   2.352   9.836 -1.0212 -0.5092 -0.5394
  151SAPE   C3116721   0.634   2.323   9.834 -0.4763 -0.3607  0.7572
  151SAPE   O3216722   0.588   2.213   9.824 -0.2228 -0.6176 -0.6389
  151SAPE   C3216723   0.550   2.450   9.821 -0.3283  0.1480 -0.2932
  151SAPE   H2X16724   0.561   2.521   9.906 -2.9694 -0.4573  0.6639
  151SAPE   H2Y16725   0.442   2.427   9.809 -0.6611  0.0784  2.3012
  151SAPE   C2316726   1.094   1.793   9.851  0.0298  0.3733  0.1815
  151SAPE   H3R16727   0.987   1.775   9.827  0.1680  0.8700 -0.8843
  151SAPE   H3S16728   1.139   1.698   9.887 -1.0130  0.1007  0.7987
  151SAPE   C2416729   1.182   1.844   9.738 -0.4218 -0.0073  0.2417
  151SAPE   H4R16730   1.283   1.860   9.781 -0.5848 -0.4866  0.8111
  151SAPE   H4S16731   1.145   1.945   9.708 -2.3954 -0.8420 -0.2890
  151SAPE   C2516732   1.192   1.756   9.614  0.3051 -0.4712 -0.8010
  151SAPE   H5R16733   1.262   1.671   9.615 -1.1093 -1.6932 -1.3953
  151SAPE   C2616734   1.126   1.785   9.502 -0.3194 -0.1021  0.1390
  151SAPE   H6R16735   1.127   1.712   9.419  1.4578  1.6389 -1.4727
  151SAPE   C2716736   1.025   1.897   9.473 -0.1406  0.2017  0.6776
  151SAPE   H7R16737   0.996   1.896   9.365  2.6227 -2.7482 -0.2098
  151SAPE   H7S16738   1.088   1.989   9.469  2.3822 -1.4505 -2.1908
  151SAPE   C2816739   0.908   1.896   9.562 -0.1811  0.7412 -0.4408
  151SAPE   H8R16740   0.904   1.806   9.625  0.2377  0.2380 -1.1111
  151SAPE   C2916741   0.810   1.985   9.552  0.0504  0.0771  0.1800
  151SAPE   H9R16742   0.717   1.954   9.601  0.4865 -0.5691  0.6231
  151SAPE  C21016743   0.801   2.092   9.456 -0.0318  0.0288  0.0800
  151SAPE  H10R16744   0.880   2.094   9.378 -2.1499  2.5949 -2.2170
  151SAPE  H10S16745   0.807   2.181   9.522 -0.6576 -0.8930  1.4327
  151SAPE  C21116746   0.677   2.086   9.368  0.3786  0.5165 -0.3157
  151SAPE  H11R16747   0.583   2.123   9.411 -1.6389 -3.7347 -0.5471
  151SAPE  C21216748   0.664   2.026   9.245  0.6234 -0.2846  0.3516
  151SAPE  H12R16749   0.564   2.010   9.201 -0.4763  0.3254  2.4908
  151SAPE  C21316750   0.774   1.950   9.171  0.0346 -0.5801 -0.7173
  151SAPE  H13R16751   0.753   1.841   9.174  0.1321 -0.6064 -0.9410
  151SAPE  H13S16752   0.872   1.957   9.223  0.1530 -1.1592 -0.8575
  151SAPE  C21416753   0.790   1.987   9.030  0.4193  0.0321  0.0217
  151SAPE  H14R16754   0.811   2.092   9.006  0.4305  0.0025 -0.0994
  151SAPE  C21516755   0.775   1.903   8.928  0.0103  0.4929 -0.3067
  151SAPE  H15R16756   0.789   1.962   8.835 -1.4598 -0.1310 -0.9460
  151SAPE  C21616757   0.726   1.763   8.929  0.1997  0.0889 -0.4943
  151SAPE  H16R16758   0.694   1.736   8.826  2.8995 -0.2276 -1.3050
  151SAPE  H16S16759   0.633   1.759   8.990 -0.3997  0.9292 -1.3038
  151SAPE  C21716760   0.827   1.658   8.976 -0.0820 -0.3531  0.5320
  151SAPE  H17R16761   0.770   1.562   8.970  0.1749 -0.7610  3.3426
  151SAPE  H17S16762   0.863   1.678   9.079  0.5054  0.0348  0.2577
  151SAPE  C21816763   0.945   1.644   8.878 -0.3332 -0.1401  0.2201
  151SAPE  H18R16764   1.028   1.599   8.938  0.5839  0.4013 -0.6018
  151SAPE  H18S16765   0.975   1.749   8.857  0.7524 -0.2705  1.0303
  151SAPE  C21916766   0.913   1.569   8.750  0.4417 -0.0338 -0.4145
  151SAPE  H19R16767   0.818   1.603   8.703  1.4390 -1.0998 -3.4725
  151SAPE  H19S16768   0.896   1.465   8.784 -2.5905  0.7691  0.8353
  151SAPE  C22016769   1.023   1.594   8.645  0.0703  0.3810 -0.3756
  151SAPE  H20R16770   1.009   1.518   8.565 -0.2362 -1.1223  1.0612
  151SAPE  H20S16771   1.125   1.594   8.689 -0.5115  0.3433  1.0172
  151SAPE  H20T16772   1.006   1.692   8.594 -2.0486  1.0324  1.4181
  151SAPE   C3316773   0.591   2.536   9.703 -0.2857 -0.4330 -0.4551
  151SAPE   H3X16774   0.688   2.590   9.706 -0.8264  0.7122 -1.9617
  151SAPE   H3Y16775   0.511   2.612   9.687  0.6596  1.1299  1.8030
  151SAPE   C3416776   0.603   2.449   9.578 -0.6965 -0.4935  0.0326
  151SAPE   H4X16777   0.542   2.356   9.579  2.0133 -2.4226 -1.5804
  151SAPE   H4Y16778   0.711   2.425   9.569 -0.1392  1.8946 -0.4751
  151SAPE   C3516779   0.565   2.521   9.447 -0.3776  0.0166 -0.3912
  151SAPE   H5X16780   0.650   2.585   9.415  0.9466 -1.6781 -0.4535
  151SAPE   H5Y16781   0.473   2.580   9.465 -0.1723  0.0948  0.4216
  151SAPE   C3616782   0.560   2.420   9.334  0.2201 -0.1470 -0.5032
  151SAPE   H6X16783   0.476   2.349   9.345 -1.2015  0.9719 -3.1676
  151SAPE   H6Y16784   0.656   2.366   9.321  0.8964  1.1094 -0.8868
  151SAPE   C3716785   0.535   2.490   9.204 -0.1723 -0.3828 -0.4067
  151SAPE   H7X16786   0.467   2.577   9.219  2.3828  1.9070 -1.3089
  151SAPE   H7Y16787   0.489   2.421   9.130 -2.6706 -0.5776  1.1886
  151SAPE   C3816788   0.657   2.553   9.134  0.4254  0.3943  0.6030
  151SAPE   H8X16789   0.741   2.483   9.157  0.7799  1.1060  1.5551
  151SAPE   H8Y16790   0.665   2.659   9.167 -0.7148  0.2533  1.4062
  151SAPE   C3916791   0.633   2.559   8.980 -0.1452 -0.8625 -0.1578
  151SAPE   H9X16792   0.546   2.626   8.960 -0.1036 -0.9154 -0.5349
  151SAPE   H9Y16793   0.616   2.456   8.943 -1.1381 -0.8160  0.1391
  151SAPE  C31016794   0.759   2.635   8.924 -0.2182  0.3465  0.2258
  151SAPE  H10X16795   0.849   2.580   8.957 -1.4648 -1.7048  0.3836
  151SAPE  H10Y16796   0.764   2.739   8.961 -0.2555  0.2628  0.4680
  151SAPE  C31116797   0.766   2.624   8.770  0.7895 -0.5997  0.5646
  151SAPE  H11X16798   0.674   2.680   8.744  0.7141 -0.3362  1.3682
  151SAPE  H11Y16799   0.746   2.517   8.748 -1.4579 -0.4475  1.6189
  151SAPE  C31216800   0.896   2.677   8.696  0.0605  0.4306 -0.5753
  151SAPE  H12X16801   0.990   2.637   8.740  0.6719  2.5281  0.1109
  151SAPE  H12Y16802   0.910   2.786   8.707  2.7622  0.0270  1.0167
  151SAPE  C31316803   0.893   2.628   8.550  0.1812 -0.4533  0.1803
  151SAPE  H13X16804   0.881   2.517   8.552 -0.3230 -0.4614 -1.4150
  151SAPE  H13Y16805   0.984   2.664   8.497 -0.4153 -0.6276 -1.0029
  151SAPE  C31416806   0.775   2.691   8.467  0.2523  0.0037 -0.5399
  151SAPE  H14X16807   0.784   2.802   8.479  2.3821 -0.1134 -0.5938
  151SAPE  H14Y16808   0.673   2.673   8.505 -0.7818  1.2334 -2.5762
  151SAPE  C31516809   0.779   2.665   8.318  0.1845 -0.3361 -0.3255
  151SAPE  H15X16810   0.874   2.711   8.282 -1.0833  4.1656  1.4714
  151SAPE  H15Y16811   0.707   2.710   8.247  0.6378  0.3238 -0.3715
  151SAPE  C31616812   0.790   2.515   8.288  0.3526 -0.2331 -0.2777
  151SAPE  H16X16813   0.715   2.469   8.357  0.9274  0.5630  0.9160
  151SAPE  H16Y16814   0.885   2.469   8.321 -0.5075 -0.6229  1.8533
  151SAPE  C31716815   0.758   2.484   8.139 -0.5705  0.0030  0.0478
  151SAPE  H17X16816   0.655   2.513   8.109 -0.2916 -0.2793 -1.2167
  151SAPE  H17Y16817   0.764   2.375   8.123 -2.3743 -0.1213 -0.0338
  151SAPE  C31816818   0.848   2.563   8.036  0.1300  0.8217 -0.0495
  151SAPE  H18X16819   0.818   2.540   7.931 -2.3591  1.8041  0.3868
  151SAPE  H18Y16820   0.949   2.519   8.048 -0.6199 -1.3529 -0.9856
  151SAPE  H18Z16821   0.851   2.670   8.065 -0.2204  0.0925  3.0154
  152SAPE     N16822   1.345   0.698  10.810 -0.1465  0.7954  0.4685
  152SAPE   HN116823   1.346   0.700  10.706  0.9595 -1.1643  0.3807
  152SAPE   HN216824   1.258   0.645  10.829 -1.4246  2.4869 -0.4229
  152SAPE   HN316825   1.331   0.797  10.837 -0.6979  0.4421  1.5405
  152SAPE   C1216826   1.471   0.650  10.873  0.5419 -0.2895  0.4360
  152SAPE  H12A16827   1.465   0.669  10.982 -2.3711 -0.6165  0.4290
  152SAPE  H12B16828   1.556   0.708  10.830  0.8495 -0.9273  0.1726
  152SAPE   C1116829   1.481   0.503  10.853 -0.0210  0.3392 -1.1420
  152SAPE  H11A16830   1.562   0.460  10.915 -1.7796 -0.9746  0.3490
  152SAPE  H11B16831   1.497   0.482  10.745 -0.5330  1.2516 -1.4111
  152SAPE     P16832   1.321   0.296  10.881  0.0745 -0.1148 -0.0356
  152SAPE   O1316833   1.422   0.200  10.942  0.6562 -0.1545 -0.1011
  152SAPE   O1416834   1.179   0.278  10.921  0.2881  0.0827  0.2116
  152SAPE   O1216835   1.365   0.442  10.914 -0.2381  0.7629 -0.0944
  152SAPE   O1116836   1.333   0.282  10.724 -0.3186  0.1033 -0.3869
  152SAPE    C116837   1.220   0.280  10.645  0.1293  0.1895  0.1162
  152SAPE    HA16838   1.149   0.203  10.684  0.2668 -0.0106 -0.0258
  152SAPE    HB16839   1.166   0.377  10.648 -0.5473 -0.1511 -0.6847
  152SAPE    C216840   1.255   0.233  10.500  0.4761 -0.0978  0.6573
  152SAPE    HS16841   1.312   0.139  10.510  0.8889  0.1332  0.4890
  152SAPE   O2116842   1.338   0.334  10.440 -0.0074  0.5209 -0.1894
  152SAPE   C2116843   1.465   0.328  10.458 -0.2199  0.0411 -0.4788
  152SAPE   O2216844   1.526   0.244  10.521 -0.5975 -0.2912  0.9994
  152SAPE   C2216845   1.526   0.448  10.381  0.5054  0.0951  0.6010
  152SAPE   H2R16846   1.485   0.536  10.436  1.1691  0.4101  0.5958
  152SAPE   H2S16847   1.637   0.445  10.387  0.6639  2.2412 -0.4436
  152SAPE    C316848   1.125   0.226  10.411 -0.3914 -0.1482 -0.2798
  152SAPE    HX16849   1.064   0.319  10.412  2.5592  1.9402  1.2446
  152SAPE    HY16850   1.056   0.142  10.432  0.8067 -0.5535  2.4918
  152SAPE   O3116851   1.170   0.209  10.271 -0.0817 -0.2625 -0.5615
  152SAPE   C3116852   1.176   0.085  10.225  0.1635  0.1469  0.4543
  152SAPE   O3216853   1.164  -0.013  10.291  0.4524  0.2160 -0.6859
  152SAPE   C3216854   1.194   0.084  10.072  0.1054 -0.1995  1.0423
  152SAPE   H2X16855   1.304   0.077  10.055  0.0582  2.9981 -1.5308
  152SAPE   H2Y16856   1.170   0.187  10.041  3.2000  0.2662 -0.2063
  152SAPE   C2316857   1.497   0.459  10.233 -0.5479 -0.6088  0.6948
  152SAPE   H3R16858   1.386   0.450  10.223 -0.5917 -0.4145  0.9857
  152SAPE   H3S16859   1.540   0.367  10.187 -1.0685 -0.2336 -0.5909
  152SAPE   C2416860   1.569   0.577  10.171  0.2459  0.1498  0.0829
  152SAPE   H4R16861   1.553   0.558  10.063 -0.0523  0.7461  0.0210
  152SAPE   H4S16862   1.676   0.562  10.197  0.1384  1.8610  1.7166
  152SAPE   C2516863   1.519   0.712  10.213  0.0031 -0.5027  0.4786
  152SAPE   H5R16864   1.503   0.737  10.319  0.2187  0.5294  0.2873
  152SAPE   C2616865   1.475   0.808  10.131  0.6224 -0.0007 -0.0896
  152SAPE   H6R16866   1.449   0.902  10.182  3.0488 -0.6583  2.6080
  152SAPE   C2716867   1.468   0.801   9.977 -0.0609 -0.0805 -0.7236
  152SAPE   H7R16868   1.416   0.704   9.962 -0.1399 -0.4974  1.7582
  152SAPE   H7S16869   1.568   0.790   9.931  0.5126 -0.0155  0.4600
  152SAPE   C2816870   1.387   0.912   9.914  0.1774 -0.2203 -0.0231
  152SAPE   H8R16871   1.327   0.978   9.978  0.2149 -0.0118 -0.1999
  152SAPE   C2916872   1.380   0.927   9.781  0.2087  0.1346  0.3184
  152SAPE   H9R16873   1.324   1.015   9.749 -0.3146 -0.4026 -0.2617
  152SAPE  C21016874   1.448   0.843   9.673  0.5585 -0.2846  0.1062
  152SAPE  H10R16875   1.475   0.743   9.713  3.5696  1.1364  1.9681
  152SAPE  H10S16876   1.547   0.887   9.648  1.4750 -1.8421  0.8421
  152SAPE  C21116877   1.360   0.814   9.553  0.2805  0.1076 -0.0425
  152SAPE  H11R16878   1.251   0.829   9.557 -0.0410 -1.6931 -0.9687
  152SAPE  C21216879   1.407   0.763   9.435  0.4967 -0.1653 -0.3967
  152SAPE  H12R16880   1.328   0.729   9.366 -1.7671  2.2762  0.8166
  152SAPE  C21316881   1.553   0.726   9.406  0.8489 -0.5382 -0.1113
  152SAPE  H13R16882   1.557   0.616   9.416  3.9987 -0.3655  2.0571
  152SAPE  H13S16883   1.618   0.762   9.488  1.6786  1.1882 -1.4434
  152SAPE  C21416884   1.610   0.780   9.277  0.1271 -0.1422  0.0302
  152SAPE  H14R16885   1.670   0.873   9.284  1.7664 -1.2633  1.8463
  152SAPE  C21516886   1.598   0.725   9.157  0.3333 -0.5622 -0.2238
  152SAPE  H15R16887   1.661   0.759   9.074 -1.1155 -0.6041 -1.3665
  152SAPE  C21616888   1.525   0.599   9.126  0.0826 -0.5081  0.4927
  152SAPE  H16R16889   1.439   0.587   9.196  0.8616  0.1295  1.5979
  152SAPE  H16S16890   1.600   0.518   9.127 -1.2194 -1.7621  1.4946
  152SAPE  C21716891   1.465   0.600   8.983  0.0892 -0.4161 -0.5877
  152SAPE  H17R16892   1.423   0.500   8.955 -0.9458 -0.5926  1.4627
  152SAPE  H17S16893   1.541   0.629   8.908  1.1139  0.2549  0.6862
  152SAPE  C21816894   1.356   0.704   8.962  0.1750  0.1220 -0.1699
  152SAPE  H18R16895   1.404   0.802   8.984  0.0518  0.0386  0.4870
  152SAPE  H18S16896   1.282   0.684   9.042  0.6851  1.3615  0.6479
  152SAPE  C21916897   1.321   0.723   8.811 -0.2349 -0.7029  0.5294
  152SAPE  H19R16898   1.410   0.712   8.747  0.4253 -1.9370  1.6146
  152SAPE  H19S16899   1.273   0.822   8.796 -0.8329 -0.9404  0.8489
  152SAPE  C22016900   1.224   0.618   8.758  0.4003  0.6747  0.5344
  152SAPE  H20R16901   1.235   0.608   8.648  1.0614 -0.4192  0.6866
  152SAPE  H20S16902   1.117   0.644   8.776  0.1136 -1.5190  2.4262
  152SAPE  H20T16903   1.240   0.515   8.796 -0.5535  0.6119  0.8053
  152SAPE   C3316904   1.119  -0.032   9.994  0.9176 -0.2804 -0.0714
  152SAPE   H3X16905   1.017   0.011   9.986  0.9829 -0.2086 -0.5389
  152SAPE   H3Y16906   1.124  -0.117  10.066  1.3298 -0.2200 -0.0225
  152SAPE   C3416907   1.174  -0.063   9.855  0.9587 -0.0679  0.2630
  152SAPE   H4X16908   1.129  -0.159   9.822  2.4144 -1.7652  2.7861
  152SAPE   H4Y16909   1.284  -0.081   9.860  1.0478  0.2364 -0.5505
  152SAPE   C3516910   1.146   0.048   9.756  0.7940  0.5409 -0.2506
  152SAPE   H5X16911   1.192   0.137   9.805 -0.9460  0.9537  0.7397
  152SAPE   H5Y16912   1.039   0.068   9.735  0.1109 -0.6705  1.7979
  152SAPE   C3616913   1.223   0.035   9.624  0.6077 -0.3191 -0.4700
  152SAPE   H6X16914   1.332   0.018   9.636  0.4796 -0.6262  0.3306
  152SAPE   H6Y16915   1.202   0.136   9.583  1.3107 -0.1009 -0.2979
  152SAPE   C3716916   1.167  -0.063   9.523 -0.2610  1.0364  0.3756
  152SAPE   H7X16917   1.057  -0.056   9.511 -0.2156 -1.4146 -2.7849
  152SAPE   H7Y16918   1.177  -0.170   9.552  2.1819  0.5125 -2.0330
  152SAPE   C3816919   1.220  -0.041   9.383 -0.0983 -0.2331 -0.2977
  152SAPE   H8X16920   1.331  -0.030   9.387 -0.1745  0.9279 -0.9269
  152SAPE   H8Y16921   1.187   0.060   9.352 -3.0864 -0.2039  2.5035
  152SAPE   C3916922   1.189  -0.162   9.288 -0.2202  0.1290  0.8440
  152SAPE   H9X16923   1.080  -0.158   9.265 -0.0055  1.4117 -0.0635
  152SAPE   H9Y16924   1.224  -0.254   9.338 -0.4862 -0.5992 -0.2689
  152SAPE  C31016925   1.277  -0.140   9.156 -0.7814  0.2027 -0.4286
  152SAPE  H10X16926   1.386  -0.151   9.176 -1.0270  1.0448  1.6197
  152SAPE  H10Y16927   1.266  -0.034   9.127 -0.0079 -0.0146 -1.5488
  152SAPE  C31116928   1.227  -0.220   9.040 -0.1929 -0.6700  0.5449
  152SAPE  H11X16929   1.206  -0.324   9.070 -1.3958 -0.4036  0.6731
  152SAPE  H11Y16930   1.306  -0.218   8.962  1.2674  0.7753  1.9665
  152SAPE  C31216931   1.089  -0.155   8.993 -0.0108  0.0517  0.6966
  152SAPE  H12X16932   1.102  -0.046   8.973  1.6745 -0.2424  0.0037
  152SAPE  H12Y16933   1.013  -0.172   9.071  1.1652 -0.1699  1.8164
  152SAPE  C31316934   1.035  -0.231   8.862 -0.2491  0.0541 -0.5870
  152SAPE  H13X16935   0.936  -0.182   8.846 -0.2832  0.2585  0.2056
  152SAPE  H13Y16936   1.017  -0.336   8.894  3.2662 -0.1212  1.2419
  152SAPE  C31416937   1.120  -0.235   8.733 -0.2244 -0.2436 -0.3964
  152SAPE  H14X16938   1.071  -0.277   8.643  1.0047 -0.8065 -0.8205
  152SAPE  H14Y16939   1.204  -0.303   8.760  1.4150  1.8692  0.1803
  152SAPE  C31516940   1.181  -0.102   8.691 -0.2427  0.1131 -0.0500
  152SAPE  H15X16941   1.248  -0.129   8.606 -1.1778 -1.4659 -0.3200
  152SAPE  H15Y16942   1.243  -0.066   8.776  0.2643 -2.3507  0.7137
  152SAPE  C31616943   1.085  -0.001   8.630 -0.4300 -0.6737  1.0186
  152SAPE  H16X16944   1.008   0.035   8.702  1.5374  1.8624  2.0049
  152SAPE  H16Y16945   1.040  -0.033   8.533 -0.1620 -1.5555  1.1759
  152SAPE  C31716946   1.160   0.116   8.568 -0.3455  0.5301  0.1423
  152SAPE  H17X16947   1.237   0.083   8.496  0.9594  1.3593  1.0981
  152SAPE  H17Y16948   1.205   0.172   8.653 -1.3539 -0.7373  1.5562
  152SAPE  C31816949   1.067   0.215   8.493  0.4877  0.3230  0.0127
  152SAPE  H18X16950   1.010   0.164   8.412 -1.7538  0.3974  1.4717
  152SAPE  H18Y16951   1.127   0.302   8.457  1.0771 -0.7043 -1.5955
  152SAPE  H18Z16952   0.989   0.248   8.566  0.9936 -0.4648  0.9251
  153SAPE     N16953   6.147   2.478  10.650 -0.0188  0.1760 -0.4370
  153SAPE   HN116954   6.077   2.500  10.723  0.6893  2.1529 -0.2984
  153SAPE   HN216955   6.156   2.374  10.656  0.2959  0.1921 -0.5812
  153SAPE   HN316956   6.232   2.520  10.691 -0.5575  0.8923 -0.0391
  153SAPE   C1216957   6.127   2.532  10.516 -0.5199 -0.3107  0.8191
  153SAPE  H12A16958   6.029   2.495  10.476  0.1951  0.6642 -2.1274
  153SAPE  H12B16959   6.203   2.478  10.455  0.7062  0.6141  1.4842
  153SAPE   C1116960   6.134   2.691  10.523 -0.0732  0.9472 -0.3723
  153SAPE  H11A16961   6.051   2.720  10.591  0.9619  1.4810  0.7044
  153SAPE  H11B16962   6.109   2.740  10.426 -0.1139 -3.0621 -2.5954
  153SAPE     P16963   6.392   2.761  10.495 -0.0830 -0.1480 -0.1482
  153SAPE   O1316964   6.467   2.867  10.561  0.2819  0.0003  0.5664
  153SAPE   O1416965   6.466   2.634  10.481 -0.2363 -0.0731 -0.6648
  153SAPE   O1216966   6.263   2.733  10.582  0.6153 -0.2263  0.4207
  153SAPE   O1116967   6.335   2.792  10.353 -0.2903 -0.1069  0.0888
  153SAPE    C116968   6.416   2.815  10.238  0.4351  0.2813  0.1824
  153SAPE    HA16969   6.515   2.764  10.247 -0.4580 -1.4095  0.7593
  153SAPE    HB16970   6.367   2.773  10.148  0.7961  1.5269 -0.6222
  153SAPE    C216971   6.437   2.969  10.220 -0.2841 -0.0103  0.5105
  153SAPE    HS16972   6.463   3.014  10.318 -2.0068  1.7590  0.2172
  153SAPE   O2116973   6.313   3.024  10.173  0.1540  1.0230  0.4207
  153SAPE   C2116974   6.323   3.149  10.172  0.4325 -0.0258  0.3331
  153SAPE   O2216975   6.406   3.222  10.225 -0.3218  0.0402  0.2012
  153SAPE   C2216976   6.190   3.203  10.097  0.1229 -1.0634  0.1681
  153SAPE   H2R16977   6.122   3.122  10.060  0.8873 -1.9268  0.6065
  153SAPE   H2S16978   6.151   3.264  10.181  0.8818  1.8475 -1.4618
  153SAPE    C316979   6.559   3.000  10.124  0.3033  0.3567 -1.2788
  153SAPE    HX16980   6.645   2.940  10.158  0.1142 -0.2302 -1.8205
  153SAPE    HY16981   6.592   3.104  10.146  0.7194 -0.0193 -0.0513
  153SAPE   O3116982   6.521   2.996   9.985 -0.1494 -0.1891 -0.0362
  153SAPE   C3116983   6.548   2.869   9.938  0.2025  0.1709  0.0768
  153SAPE   O3216984   6.591   2.778  10.007 -0.2535 -0.7666 -0.1318
  153SAPE   C3216985   6.500   2.865   9.794  0.3039 -1.0596  0.3701
  153SAPE   H2X16986   6.389   2.861   9.795  0.2899 -0.6255  1.0330
  153SAPE   H2Y16987   6.528   2.772   9.741 -0.2101 -0.3626 -1.1846
  153SAPE   C2316988   6.217   3.316   9.995  0.1397  0.2393 -0.7499
  153SAPE   H3R16989   6.259   3.406  10.046  0.7826 -0.3241 -0.2619
  153SAPE   H3S16990   6.120   3.342   9.946 -0.4343  0.6238  0.5494
  153SAPE   C2416991   6.298   3.267   9.870  0.0741 -0.4450  1.3971
  153SAPE   H4R16992   6.391   3.230   9.920  0.0448 -1.9854  0.4006
  153SAPE   H4S16993   6.320   3.365   9.823 -1.4630  0.0222  1.6003
  153SAPE   C2516994   6.235   3.158   9.787  0.0768  0.0693  0.5269
  153SAPE   H5R16995   6.181   3.074   9.833 -1.6109 -0.3388 -1.9640
  153SAPE   C2616996   6.249   3.143   9.659  0.8032  0.2142 -0.2491
  153SAPE   H6R16997   6.206   3.053   9.611  0.4668  1.5284 -2.5825
  153SAPE   C2716998   6.320   3.240   9.562 -0.7755  0.6902  0.2754
  153SAPE   H7R16999   6.428   3.218   9.563 -1.0284 -0.8785 -1.4615
  153SAPE   H7S17000   6.305   3.343   9.602  1.5155  1.8144 -1.5384
  153SAPE   C2817001   6.253   3.234   9.427  0.3026 -0.2519 -0.1974
  153SAPE   H8R17002   6.143   3.231   9.430  0.2708 -1.0064 -1.2585
  153SAPE   C2917003   6.310   3.204   9.309  0.5219  0.3364 -0.2485
  153SAPE   H9R17004   6.240   3.214   9.224 -2.6530  2.5844  2.3557
  153SAPE  C21017005   6.454   3.174   9.285  0.0070 -0.5537 -0.1401
  153SAPE  H10R17006   6.516   3.231   9.357  1.2431  0.4595 -1.9365
  153SAPE  H10S17007   6.479   3.205   9.181  1.2134 -1.9456 -0.2946
  153SAPE  C21117008   6.487   3.028   9.315 -0.1316  0.2290 -0.5421
  153SAPE  H11R17009   6.453   2.983   9.410 -1.1592  0.7184 -0.6667
  153SAPE  C21217010   6.541   2.940   9.221 -0.5511  0.3309  0.0389
  153SAPE  H12R17011   6.566   2.840   9.260 -1.5675 -0.3274 -0.9186
  153SAPE  C21317012   6.584   2.970   9.078 -0.5570 -0.5313  0.2076
  153SAPE  H13R17013   6.495   3.008   9.024 -0.9787 -0.7070  0.7622
  153SAPE  H13S17014   6.605   2.870   9.035 -2.5257 -1.7816  1.9615
  153SAPE  C21417015   6.708   3.058   9.072 -0.1623  0.4884  0.0606
  153SAPE  H14R17016   6.749   3.084   9.170 -1.0953  2.1392  0.0418
  153SAPE  C21517017   6.781   3.088   8.966 -0.2267  0.2279  0.0657
  153SAPE  H15R17018   6.871   3.148   8.982  0.4660 -1.1879  1.7583
  153SAPE  C21617019   6.748   3.039   8.822 -0.1418  0.7014 -0.2077
  153SAPE  H16R17020   6.664   2.968   8.828  1.5236 -1.2535  1.5271
  153SAPE  H16S17021   6.832   2.983   8.777 -0.2322  0.5432 -0.1774
  153SAPE  C21717022   6.711   3.145   8.717  0.3654 -0.3636  0.0300
  153SAPE  H17R17023   6.703   3.091   8.620 -0.4504  0.3978 -0.3365
  153SAPE  H17S17024   6.795   3.216   8.719  0.0335  0.0266  0.3106
  153SAPE  C21817025   6.576   3.206   8.754  0.3872  0.0525  0.5005
  153SAPE  H18R17026   6.581   3.309   8.712  1.9313 -1.0053 -2.1999
  153SAPE  H18S17027   6.549   3.219   8.861  0.1210  0.6818  0.3605
  153SAPE  C21917028   6.459   3.129   8.677  0.8379 -0.8166  0.4641
  153SAPE  H19R17029   6.494   3.123   8.571  0.8368 -0.4478  0.4423
  153SAPE  H19S17030   6.379   3.205   8.681  1.3674 -0.2761  1.2566
  153SAPE  C22017031   6.408   2.998   8.730 -0.6653  0.1059 -0.3141
  153SAPE  H20R17032   6.308   2.967   8.692 -0.1757 -0.0269 -1.5459
  153SAPE  H20S17033   6.399   3.015   8.840  3.5992 -0.6978  0.3284
  153SAPE  H20T17034   6.491   2.925   8.718 -1.4502 -1.0642  1.1030
  153SAPE   C3317035   6.536   2.987   9.704  0.2546  0.8204  0.5554
  153SAPE   H3X17036   6.509   3.086   9.748  1.5250  0.3580  2.5510
  153SAPE   H3Y17037   6.488   2.953   9.611 -0.4006 -1.3424  1.6202
  153SAPE   C3417038   6.690   2.994   9.680 -0.1192 -0.0305 -0.6447
  153SAPE   H4X17039   6.744   2.973   9.775 -2.6579 -1.8645  0.5050
  153SAPE   H4Y17040   6.703   3.101   9.653 -1.6637  0.1889 -0.5887
  153SAPE   C3517041   6.756   2.895   9.579 -0.7950 -0.2451  0.3102
  153SAPE   H5X17042   6.699   2.907   9.484  0.5629 -0.8200 -0.5975
  153SAPE   H5Y17043   6.738   2.792   9.616 -1.3734 -0.1764  0.2344
  153SAPE   C3617044   6.905   2.919   9.546 -0.5809  0.0740 -0.3779
  153SAPE   H6X17045   6.966   2.912   9.639 -0.8769 -2.8749 -0.3316
  153SAPE   H6Y17046   6.929   3.020   9.506 -1.5286  0.3052 -0.3739
  153SAPE   C3717047   6.952   2.805   9.458 -0.6394 -0.1673  0.1408
  153SAPE   H7X17048   6.917   2.704   9.491  3.5336 -1.1579  2.2594
  153SAPE   H7Y17049   7.063   2.796   9.463 -0.7063 -0.4244  1.3621
  153SAPE   C3817050   6.901   2.824   9.310 -0.5994 -0.1844 -0.0647
  153SAPE   H8X17051   6.906   2.930   9.276 -2.4870 -0.2831 -0.7630
  153SAPE   H8Y17052   6.791   2.813   9.314 -0.4327 -1.8182  1.1230
  153SAPE   C3917053   6.952   2.719   9.214 -0.0572  0.0809 -0.0617
  153SAPE   H9X17054   6.940   2.613   9.244 -1.8823  0.2809  0.0149
  153SAPE   H9Y17055   7.063   2.726   9.221  0.0954 -1.5055 -0.5306
  153SAPE  C31017056   6.900   2.721   9.064 -0.1772  0.2235 -0.4839
  153SAPE  H10X17057   6.936   2.819   9.025  0.2779  0.1952 -0.1416
  153SAPE  H10Y17058   6.790   2.705   9.061 -0.6264  2.5181  1.1470
  153SAPE  C31117059   6.960   2.613   8.984 -0.4083  0.2230  0.2484
  153SAPE  H11X17060   6.971   2.529   9.056  2.7068  0.8980  0.7282
  153SAPE  H11Y17061   7.064   2.648   8.964 -0.0299  0.1738  1.9663
  153SAPE  C31217062   6.873   2.587   8.856 -0.4292  0.1974  0.3483
  153SAPE  H12X17063   6.767   2.572   8.886 -0.3043 -0.5179  0.4453
  153SAPE  H12Y17064   6.907   2.506   8.788 -0.9145  2.1457 -2.3400
  153SAPE  C31317065   6.876   2.713   8.767 -0.1793  0.1387 -0.4890
  153SAPE  H13X17066   6.980   2.751   8.774 -0.7747  1.5381  1.7563
  153SAPE  H13Y17067   6.814   2.790   8.816 -1.9998 -1.6419  0.1628
  153SAPE  C31417068   6.850   2.691   8.617 -0.5624  0.3691 -0.0130
  153SAPE  H14X17069   6.761   2.624   8.620  0.0601 -0.5430 -1.1160
  153SAPE  H14Y17070   6.927   2.623   8.574 -0.6078  1.2142 -1.4763
  153SAPE  C31517071   6.831   2.822   8.538 -0.1812  0.3749 -0.6817
  153SAPE  H15X17072   6.927   2.878   8.539 -1.2058  2.2218 -0.7719
  153SAPE  H15Y17073   6.758   2.879   8.600  0.6311  0.2396  0.4522
  153SAPE  C31617074   6.793   2.797   8.393 -0.7348  0.6138  0.2788
  153SAPE  H16X17075   6.862   2.718   8.358 -3.4234 -2.5328  1.6402
  153SAPE  H16Y17076   6.822   2.890   8.338 -0.3616 -0.8783 -2.2029
  153SAPE  C31717077   6.645   2.768   8.356  0.3595 -0.1309  0.1969
  153SAPE  H17X17078   6.581   2.850   8.396  1.5865 -0.1180  2.2515
  153SAPE  H17Y17079   6.621   2.666   8.394  4.0322 -1.1990  0.0308
  153SAPE  C31817080   6.623   2.758   8.205 -0.0455 -0.8393  0.9482
  153SAPE  H18X17081   6.660   2.848   8.152 -2.0350 -0.6414 -0.2266
  153SAPE  H18Y17082   6.513   2.747   8.190 -0.3298  2.6506 -0.4339
  153SAPE  H18Z17083   6.681   2.673   8.163  0.3559  0.1180 -0.5349
  154SAPE     N17084   1.616   3.779  10.718  0.2057  0.0981 -0.7356
  154SAPE   HN117085   1.561   3.754  10.802  1.0912  3.1486  0.8863
  154SAPE   HN217086   1.713   3.745  10.734  0.2242  1.2973  2.4619
  154SAPE   HN317087   1.616   3.883  10.725 -1.0651  0.1642 -1.4646
  154SAPE   C1217088   1.555   3.711  10.601  0.0093 -0.5507 -0.3149
  154SAPE  H12A17089   1.540   3.608  10.638 -0.9103  0.1135  1.2700
  154SAPE  H12B17090   1.614   3.719  10.507  0.8635  1.0316  0.3095
  154SAPE   C1117091   1.407   3.756  10.585 -0.5738 -0.1190  0.7063
  154SAPE  H11A17092   1.379   3.702  10.492 -2.3532 -0.2764  1.2898
  154SAPE  H11B17093   1.409   3.867  10.573  2.2051  0.2508  3.3209
  154SAPE     P17094   1.247   3.595  10.727  0.2002 -0.3402 -0.1965
  154SAPE   O1317095   1.346   3.512  10.792  0.3831 -0.0597 -0.0495
  154SAPE   O1417096   1.123   3.611  10.810  0.4151  0.2942 -0.8208
  154SAPE   O1217097   1.322   3.732  10.698  0.1532  0.3369 -0.1620
  154SAPE   O1117098   1.207   3.537  10.593  0.4620 -0.0153 -0.2003
  154SAPE    C117099   1.101   3.606  10.523 -0.6556  0.2361 -0.3883
  154SAPE    HA17100   1.028   3.666  10.581 -0.3145 -1.2208  1.6430
  154SAPE    HB17101   1.148   3.682  10.457  0.1369  0.6942  0.6660
  154SAPE    C217102   1.017   3.517  10.427  0.3310 -0.0078  0.2514
  154SAPE    HS17103   0.983   3.428  10.483 -1.8927 -0.8143 -2.2219
  154SAPE   O2117104   1.104   3.471  10.327 -0.6282  0.6287 -0.0538
  154SAPE   C2117105   1.056   3.430  10.206  0.3673 -0.3240  0.1001
  154SAPE   O2217106   0.941   3.403  10.183  0.7743 -0.4886 -0.2395
  154SAPE   C2217107   1.173   3.404  10.114 -0.1613  0.0986 -0.2423
  154SAPE   H2R17108   1.197   3.506  10.076 -1.6639 -0.7527 -3.7939
  154SAPE   H2S17109   1.265   3.381  10.173  1.4187  1.8046 -1.9171
  154SAPE    C317110   0.894   3.602  10.374  0.0713 -0.0623 -0.9336
  154SAPE    HX17111   0.840   3.641  10.463  0.7252 -0.1876 -0.4722
  154SAPE    HY17112   0.821   3.532  10.329  2.6164 -3.3367 -0.3871
  154SAPE   O3117113   0.941   3.706  10.278  0.0055  0.3077 -0.6278
  154SAPE   C3117114   0.869   3.822  10.284  0.3572  0.4927 -0.4090
  154SAPE   O3217115   0.770   3.840  10.350  0.5257 -0.1167 -0.4094
  154SAPE   C3217116   0.945   3.909  10.191  0.7501 -0.2526  0.7320
  154SAPE   H2X17117   1.038   3.866  10.150  0.0786 -1.1107  0.0767
  154SAPE   H2Y17118   0.969   3.995  10.258 -2.7345  0.8643  0.7295
  154SAPE   C2317119   1.142   3.302  10.008  0.3201 -0.1894 -0.2033
  154SAPE   H3R17120   1.036   3.306   9.975  0.5095 -1.5087 -1.0642
  154SAPE   H3S17121   1.153   3.200  10.050  0.1642 -0.0981  0.0603
  154SAPE   C2417122   1.216   3.341   9.878 -0.8804  0.6477 -0.3496
  154SAPE   H4R17123   1.326   3.342   9.897 -0.9319  0.0259 -0.0001
  154SAPE   H4S17124   1.201   3.449   9.855  1.9881  1.6603  1.9147
  154SAPE   C2517125   1.172   3.246   9.772 -0.0589 -0.6525  0.6153
  154SAPE   H5R17126   1.156   3.144   9.811 -0.3699  0.0838  2.5088
  154SAPE   C2617127   1.134   3.283   9.647  0.2279  0.2884  0.0849
  154SAPE   H6R17128   1.100   3.203   9.580  1.5377 -0.5784  0.4244
  154SAPE   C2717129   1.134   3.423   9.595  0.5160 -0.8066 -0.5290
  154SAPE   H7R17130   1.150   3.426   9.485 -1.2607 -0.9109 -0.8248
  154SAPE   H7S17131   1.225   3.468   9.639  0.1531 -0.5939  0.0090
  154SAPE   C2817132   1.008   3.502   9.633 -0.9594 -0.2900 -0.0424
  154SAPE   H8R17133   0.984   3.518   9.739 -0.3922  2.9312 -0.3025
  154SAPE   C2917134   0.912   3.536   9.543 -0.6685  0.0666 -0.0889
  154SAPE   H9R17135   0.829   3.600   9.576 -0.1286  0.9062 -0.2983
  154SAPE  C21017136   0.916   3.510   9.394  0.3001 -0.9576 -0.0310
  154SAPE  H10R17137   0.813   3.509   9.352  0.4554 -3.3836 -0.4791
  154SAPE  H10S17138   0.954   3.409   9.369 -1.1454 -0.8350 -3.2101
  154SAPE  C21117139   1.013   3.612   9.325 -0.1702  0.3084  0.3018
  154SAPE  H11R17140   1.045   3.692   9.393 -4.8882  1.5500  1.4053
  154SAPE  C21217141   1.045   3.602   9.191  0.0948  0.1729  0.1935
  154SAPE  H12R17142   1.109   3.681   9.149  0.2468  0.3047  0.6755
  154SAPE  C21317143   0.997   3.500   9.087 -0.1300  0.6565  0.3378
  154SAPE  H13R17144   0.909   3.442   9.123  1.1573 -0.4613  1.8483
  154SAPE  H13S17145   1.075   3.420   9.080 -0.4442  0.3516  0.2790
  154SAPE  C21417146   0.990   3.561   8.950  0.3274 -0.5850  0.1354
  154SAPE  H14R17147   1.056   3.649   8.940  0.5869 -0.5259  2.0189
  154SAPE  C21517148   0.919   3.522   8.837 -0.0975 -0.2271 -0.0228
  154SAPE  H15R17149   0.921   3.583   8.745 -1.7980 -0.6164 -0.3605
  154SAPE  C21617150   0.829   3.409   8.821 -0.3007 -0.2800  0.0063
  154SAPE  H16R17151   0.861   3.324   8.885 -0.0559  0.8256  1.4025
  154SAPE  H16S17152   0.819   3.369   8.718 -2.1503 -0.1956  0.1155
  154SAPE  C21717153   0.691   3.450   8.875  1.1649  0.2836 -0.4325
  154SAPE  H17R17154   0.696   3.496   8.976  1.9746 -0.7219  0.0008
  154SAPE  H17S17155   0.633   3.358   8.898  1.7441  0.3902  1.5659
  154SAPE  C21817156   0.592   3.531   8.784  0.5685  0.5543 -0.1974
  154SAPE  H18R17157   0.647   3.625   8.762 -0.2838  1.4807  1.4834
  154SAPE  H18S17158   0.503   3.562   8.843  0.3245  0.0492 -0.2936
  154SAPE  C21917159   0.557   3.457   8.664 -0.3026 -0.2817 -0.4125
  154SAPE  H19R17160   0.504   3.364   8.696  1.2859 -0.9856  0.2669
  154SAPE  H19S17161   0.651   3.428   8.612 -0.1153  1.0931 -0.8678
  154SAPE  C22017162   0.484   3.541   8.560  0.0965 -0.1311  0.0473
  154SAPE  H20R17163   0.403   3.600   8.609 -0.3980 -1.3323  0.7071
  154SAPE  H20S17164   0.434   3.475   8.486  1.1164 -0.1710 -0.6391
  154SAPE  H20T17165   0.538   3.617   8.499 -2.4842  0.6961 -1.3820
  154SAPE   C3317166   0.870   3.965  10.071  1.1058 -0.4269 -0.2153
  154SAPE   H3X17167   0.872   4.076  10.073 -1.6424 -0.3260  1.1339
  154SAPE   H3Y17168   0.766   3.926  10.068  0.9177 -0.0605  1.0290
  154SAPE   C3417169   0.923   3.918   9.941  0.4404  0.0244 -0.0234
  154SAPE   H4X17170   0.912   3.808   9.929  3.5394 -0.2822 -1.1534
  154SAPE   H4Y17171   1.031   3.945   9.938  0.5434 -0.4611 -1.2324
  154SAPE   C3517172   0.862   3.975   9.818  0.8617  0.3587  0.5069
  154SAPE   H5X17173   0.849   4.084   9.832  0.8455  0.7457 -2.0275
  154SAPE   H5Y17174   0.761   3.930   9.808  0.8951  0.6465 -1.7036
  154SAPE   C3617175   0.951   3.949   9.691 -0.0549 -0.8684 -0.8189
  154SAPE   H6X17176   0.977   3.846   9.657 -1.5372 -0.3564 -3.8822
  154SAPE   H6Y17177   1.040   4.011   9.710 -1.4861  0.6735  1.3070
  154SAPE   C3717178   0.864   3.998   9.571 -0.1501 -0.6906  0.3159
  154SAPE   H7X17179   0.828   4.101   9.593 -1.0997 -0.5798 -1.5898
  154SAPE   H7Y17180   0.776   3.933   9.555 -0.2903 -0.5960  0.6973
  154SAPE   C3817181   0.948   4.000   9.446  0.3199 -0.2898  0.2824
  154SAPE   H8X17182   1.017   3.913   9.452  2.2431  0.9400 -2.1788
  154SAPE   H8Y17183   1.019   4.086   9.436  2.2620 -1.3411  3.5028
  154SAPE   C3917184   0.873   3.987   9.311  0.3160  0.0612  0.2243
  154SAPE   H9X17185   0.792   4.063   9.301  0.1653 -0.0107  0.8562
  154SAPE   H9Y17186   0.817   3.892   9.311  1.5059 -0.8344 -3.6813
  154SAPE  C31017187   0.950   3.981   9.183 -0.0018 -0.8618 -0.2366
  154SAPE  H10X17188   1.040   3.916   9.186  1.7655  1.2366 -3.0452
  154SAPE  H10Y17189   0.996   4.079   9.160 -2.3511  0.0373 -1.5145
  154SAPE  C31117190   0.856   3.938   9.065  0.4951  0.2398 -0.2087
  154SAPE  H11X17191   0.762   3.996   9.062  0.7939  0.7268 -0.2257
  154SAPE  H11Y17192   0.830   3.831   9.079 -0.1932  0.6333  1.8791
  154SAPE  C31217193   0.924   3.954   8.932  0.4508  0.5673 -0.0148
  154SAPE  H12X17194   1.028   3.915   8.939 -0.6754 -3.0110 -0.7612
  154SAPE  H12Y17195   0.912   4.062   8.912  0.1755  0.2387 -1.7956
  154SAPE  C31317196   0.858   3.878   8.819  0.2636 -0.1587 -0.8494
  154SAPE  H13X17197   0.766   3.935   8.794  1.9857  3.3557  0.2690
  154SAPE  H13Y17198   0.828   3.778   8.857 -0.7634  1.5873  3.5146
  154SAPE  C31417199   0.939   3.878   8.688 -0.2010 -0.0691 -0.2050
  154SAPE  H14X17200   1.020   3.804   8.705 -0.3145 -0.2049 -0.2482
  154SAPE  H14Y17201   0.975   3.980   8.665  1.4217 -0.7067 -0.6132
  154SAPE  C31517202   0.851   3.829   8.573  0.2396 -0.0166 -0.6219
  154SAPE  H15X17203   0.773   3.905   8.549 -0.5316  0.3202  2.5052
  154SAPE  H15Y17204   0.794   3.742   8.612  0.8836 -0.4199 -0.5782
  154SAPE  C31617205   0.920   3.797   8.434 -0.5043  0.3596 -0.8211
  154SAPE  H16X17206   1.014   3.740   8.448  0.0975  0.6444 -3.3831
  154SAPE  H16Y17207   0.950   3.891   8.385 -3.1138  0.5580 -2.2107
  154SAPE  C31717208   0.812   3.730   8.348 -0.5143  0.5250  0.0791
  154SAPE  H17X17209   0.854   3.743   8.246  2.3422  1.3591  1.2432
  154SAPE  H17Y17210   0.711   3.770   8.367  0.0311  0.7660  2.9333
  154SAPE  C31817211   0.805   3.581   8.375  0.2804 -0.2079 -0.4698
  154SAPE  H18X17212   0.733   3.537   8.302 -1.0415 -2.8760  2.2047
  154SAPE  H18Y17213   0.762   3.552   8.473 -3.7691  1.5366 -1.5403
  154SAPE  H18Z17214   0.904   3.531   8.370 -1.1157 -3.4305  1.1551
  155SAPE     N17215   2.124   5.323  10.789  0.8810  0.1213 -0.3472
  155SAPE   HN117216   2.085   5.230  10.815 -1.4645  1.1816  0.2207
  155SAPE   HN217217   2.227   5.313  10.798  0.5413 -3.0958  1.8629
  155SAPE   HN317218   2.079   5.398  10.846 -1.1779 -0.5407 -1.0334
  155SAPE   C1217219   2.088   5.340  10.646 -0.4464  0.4319  0.1192
  155SAPE  H12A17220   2.092   5.450  10.636  0.7123  0.2224 -2.5005
  155SAPE  H12B17221   1.983   5.306  10.634 -0.7303  0.9075  1.1943
  155SAPE   C1117222   2.177   5.257  10.550  0.1440  0.1413  0.1789
  155SAPE  H11A17223   2.132   5.264  10.449  0.6245 -1.0041 -0.1175
  155SAPE  H11B17224   2.175   5.151  10.583 -0.7421  0.3329  0.8156
  155SAPE     P17225   2.431   5.256  10.632 -0.4949  0.3691 -0.0914
  155SAPE   O1317226   2.385   5.240  10.773  0.3400 -0.1690  0.4721
  155SAPE   O1417227   2.499   5.134  10.580  0.8000 -0.4985  0.3310
  155SAPE   O1217228   2.306   5.304  10.540  0.1459 -0.3699 -0.1402
  155SAPE   O1117229   2.540   5.371  10.623  0.9784 -0.3202  0.1032
  155SAPE    C117230   2.498   5.504  10.615  0.4199 -0.5102  0.1595
  155SAPE    HA17231   2.391   5.521  10.639  0.0898 -0.9910 -0.9420
  155SAPE    HB17232   2.565   5.552  10.690 -0.6365 -1.0677  1.5032
  155SAPE    C217233   2.531   5.563  10.470 -0.0091 -0.4771 -0.0352
  155SAPE    HS17234   2.503   5.670  10.476 -0.0332 -0.3690 -1.7519
  155SAPE   O2117235   2.469   5.491  10.364 -0.5059  0.2126 -1.1163
  155SAPE   C2117236   2.338   5.519  10.353 -0.0370  0.0166  0.6859
  155SAPE   O2217237   2.279   5.605  10.416  0.3240 -0.4517 -0.1701
  155SAPE   C2217238   2.271   5.421  10.256  0.2437 -0.0838  0.5372
  155SAPE   H2R17239   2.321   5.322  10.260  1.5299  0.5254 -0.0845
  155SAPE   H2S17240   2.169   5.403  10.297  0.7661 -0.5755  1.6924
  155SAPE    C317241   2.682   5.565  10.445 -0.2113 -0.1770  0.2145
  155SAPE    HX17242   2.698   5.455  10.451 -2.4050 -0.5475  0.3752
  155SAPE    HY17243   2.744   5.632  10.509  0.8595 -1.4681  0.5705
  155SAPE   O3117244   2.691   5.608  10.305  0.1909  0.1263  0.1587
  155SAPE   C3117245   2.804   5.580  10.245  1.0180  0.3223  0.7967
  155SAPE   O3217246   2.900   5.535  10.299  0.3206 -0.4194 -0.8983
  155SAPE   C3217247   2.782   5.609  10.091 -0.1585 -0.6547 -0.0390
  155SAPE   H2X17248   2.848   5.546  10.028 -0.7117 -1.2454 -0.0468
  155SAPE   H2Y17249   2.795   5.718  10.080 -2.3081 -0.4206 -0.6953
  155SAPE   C2317250   2.258   5.452  10.111 -0.2367 -0.1294  0.8152
  155SAPE   H3R17251   2.226   5.365  10.050 -0.8280  0.6958 -0.0691
  155SAPE   H3S17252   2.360   5.486  10.084  0.1596 -1.1314  1.0008
  155SAPE   C2417253   2.161   5.572  10.081  0.0657  0.0531  0.4289
  155SAPE   H4R17254   2.194   5.622   9.987 -1.6166 -0.7431 -0.6379
  155SAPE   H4S17255   2.168   5.641  10.167  0.5551  1.9078 -1.0354
  155SAPE   C2517256   2.013   5.540  10.069  0.1351 -0.4794 -0.2632
  155SAPE   H5R17257   1.964   5.522  10.166 -0.3294 -2.0995 -0.7713
  155SAPE   C2617258   1.927   5.531   9.960  0.5820 -0.6908 -0.4432
  155SAPE   H6R17259   1.827   5.494   9.986  0.4153 -0.0871 -0.2160
  155SAPE   C2717260   1.969   5.538   9.815 -0.4933 -0.5122  0.0844
  155SAPE   H7R17261   1.999   5.434   9.788 -1.6880 -0.9346  0.3323
  155SAPE   H7S17262   2.054   5.607   9.799  0.7140 -2.2334 -1.3202
  155SAPE   C2817263   1.864   5.563   9.710 -0.2017 -0.6367  0.3760
  155SAPE   H8R17264   1.778   5.613   9.756  0.0209 -0.9583  1.1622
  155SAPE   C2917265   1.870   5.552   9.575 -0.6671 -0.1812  0.2943
  155SAPE   H9R17266   1.771   5.553   9.527 -0.4472 -2.6356 -0.3473
  155SAPE  C21017267   1.990   5.516   9.490 -0.2460  0.7710  0.0621
  155SAPE  H10R17268   1.959   5.436   9.420  0.1359  2.3418 -2.0353
  155SAPE  H10S17269   2.073   5.492   9.559  1.9019  0.9774 -2.3209
  155SAPE  C21117270   2.028   5.634   9.399 -0.5004 -0.3246  0.2019
  155SAPE  H11R17271   2.095   5.706   9.449 -0.8032  1.7456 -2.1895
  155SAPE  C21217272   2.002   5.662   9.272 -0.2177  0.0529 -0.1619
  155SAPE  H12R17273   2.041   5.760   9.240 -0.4279  0.5501  1.0550
  155SAPE  C21317274   1.915   5.588   9.180 -0.6687  0.0483 -0.7355
  155SAPE  H13R17275   1.840   5.521   9.228 -0.4409 -0.3552 -0.9305
  155SAPE  H13S17276   1.984   5.516   9.131 -0.6111 -0.1587 -0.3558
  155SAPE  C21417277   1.826   5.675   9.084 -0.1337  0.3283 -0.1881
  155SAPE  H14R17278   1.748   5.725   9.144  0.1513 -2.4759  2.8097
  155SAPE  C21517279   1.837   5.700   8.948  0.4842 -0.0159  0.0840
  155SAPE  H15R17280   1.767   5.773   8.904 -1.5069 -1.9879 -0.1880
  155SAPE  C21617281   1.943   5.624   8.866  0.1163 -0.0204 -0.4356
  155SAPE  H16R17282   1.909   5.633   8.761 -0.5151  1.3331 -0.1339
  155SAPE  H16S17283   1.950   5.514   8.881  1.2227  0.1366  0.4442
  155SAPE  C21717284   2.089   5.681   8.871  0.0290  0.2446 -0.6817
  155SAPE  H17R17285   2.122   5.669   8.976 -0.1054  1.5023 -0.4839
  155SAPE  H17S17286   2.093   5.788   8.841 -1.1870  0.5664  0.2359
  155SAPE  C21817287   2.180   5.603   8.772 -0.3405 -0.3388 -0.1420
  155SAPE  H18R17288   2.151   5.636   8.670 -0.4903  0.1611  0.0549
  155SAPE  H18S17289   2.174   5.493   8.778  1.4432 -0.4663 -0.2001
  155SAPE  C21917290   2.326   5.645   8.776  0.6996  0.7224 -0.3488
  155SAPE  H19R17291   2.353   5.634   8.884  0.6013 -1.8233 -0.5298
  155SAPE  H19S17292   2.321   5.746   8.732 -2.8052  1.0876  0.6008
  155SAPE  C22017293   2.423   5.566   8.686 -0.0676  0.9158 -0.0668
  155SAPE  H20R17294   2.405   5.456   8.685 -0.7303  0.9426  2.1835
  155SAPE  H20S17295   2.528   5.592   8.712  0.0580  0.6547 -0.3146
  155SAPE  H20T17296   2.401   5.607   8.586 -2.8865  2.0672  0.9164
  155SAPE   C3317297   2.643   5.572  10.033  0.6899 -0.2688 -0.0791
  155SAPE   H3X17298   2.576   5.652  10.071  0.3277 -0.1229 -1.0047
  155SAPE   H3Y17299   2.607   5.477  10.078  1.8479 -1.4125 -1.4757
  155SAPE   C3417300   2.632   5.568   9.882 -0.0459 -0.0847 -0.1636
  155SAPE   H4X17301   2.723   5.516   9.847  0.0417 -0.5887  0.7897
  155SAPE   H4Y17302   2.655   5.671   9.848  0.1018  0.2772  0.9705
  155SAPE   C3517303   2.499   5.515   9.826  0.0275  0.3778  0.0468
  155SAPE   H5X17304   2.419   5.580   9.867 -1.8565 -2.2136  0.7511
  155SAPE   H5Y17305   2.492   5.413   9.869 -0.1046 -0.1372 -1.1338
  155SAPE   C3617306   2.491   5.504   9.673 -0.0624 -0.5758 -0.5670
  155SAPE   H6X17307   2.574   5.433   9.651 -0.5152 -1.2460 -0.1727
  155SAPE   H6Y17308   2.522   5.603   9.634  0.5552 -1.1236 -1.5048
  155SAPE   C3717309   2.355   5.455   9.622 -0.2923  0.1473 -0.3394
  155SAPE   H7X17310   2.281   5.524   9.667  2.0666  2.4455  0.2425
  155SAPE   H7Y17311   2.334   5.355   9.666 -0.6345  0.8675  1.1721
  155SAPE   C3817312   2.344   5.429   9.473  0.6484  0.3815  0.6976
  155SAPE   H8X17313   2.343   5.525   9.418  2.9330  0.9760  1.6183
  155SAPE   H8Y17314   2.246   5.382   9.448  0.8956 -0.4385  1.2017
  155SAPE   C3917315   2.458   5.349   9.411  0.0411  0.6350 -0.3991
  155SAPE   H9X17316   2.458   5.238   9.415  2.6203  0.5742 -0.5751
  155SAPE   H9Y17317   2.562   5.374   9.442  1.0222  0.0101 -2.9251
  155SAPE  C31017318   2.471   5.378   9.259  0.7399 -0.0276 -0.4169
  155SAPE  H10X17319   2.566   5.332   9.222  2.0787  2.5316 -0.4367
  155SAPE  H10Y17320   2.493   5.485   9.237 -2.0527  0.2877 -2.1917
  155SAPE  C31117321   2.349   5.326   9.191 -0.3725  0.2236 -0.1252
  155SAPE  H11X17322   2.254   5.380   9.212 -1.3003 -1.9744  1.7074
  155SAPE  H11Y17323   2.351   5.217   9.214  1.3182  0.1314 -0.6273
  155SAPE  C31217324   2.374   5.336   9.040  0.7654  0.0240  0.7613
  155SAPE  H12X17325   2.483   5.325   9.026  0.2208 -5.0538 -2.0230
  155SAPE  H12Y17326   2.352   5.442   9.016  0.4636 -0.0866  0.5344
  155SAPE  C31317327   2.302   5.232   8.949 -0.2502 -0.1283 -0.1722
  155SAPE  H13X17328   2.326   5.249   8.842 -1.6121  3.0399 -0.0906
  155SAPE  H13Y17329   2.192   5.241   8.961 -0.4309  2.8006 -2.6750
  155SAPE  C31417330   2.348   5.092   8.983 -0.3637  0.1158  0.1878
  155SAPE  H14X17331   2.377   5.073   9.088  1.1957  3.1205  0.3917
  155SAPE  H14Y17332   2.443   5.073   8.928  0.4520  1.5147  1.0808
  155SAPE  C31517333   2.249   4.975   8.947  0.4434 -0.5640  0.0402
  155SAPE  H15X17334   2.161   4.980   9.015  0.3099 -1.9812 -0.0069
  155SAPE  H15Y17335   2.295   4.876   8.966  2.1844  0.0480 -0.7424
  155SAPE  C31617336   2.204   4.993   8.807 -0.4528 -0.1240  0.4522
  155SAPE  H16X17337   2.285   5.004   8.731 -0.5413  0.9814  0.4983
  155SAPE  H16Y17338   2.136   5.081   8.798 -0.1028  0.0543 -0.6314
  155SAPE  C31717339   2.120   4.869   8.765 -0.5469  0.8199  0.5097
  155SAPE  H17X17340   2.176   4.777   8.792  0.5857  1.5380  0.7178
  155SAPE  H17Y17341   2.127   4.865   8.654  1.6684  0.1236  0.6260
  155SAPE  C31817342   1.977   4.866   8.805  0.2621  0.3656 -0.6086
  155SAPE  H18X17343   1.972   4.859   8.916 -1.5165 -0.1337 -0.6966
  155SAPE  H18Y17344   1.926   4.775   8.768  0.4236 -0.0582  0.1816
  155SAPE  H18Z17345   1.921   4.954   8.768 -1.1847 -0.6824 -0.9840
  156SAPE     N17346   0.850   2.787  10.726  0.4844  0.4716 -0.3602
  156SAPE   HN117347   0.930   2.726  10.700 -0.4164 -0.2616 -1.4976
  156SAPE   HN217348   0.873   2.874  10.674  0.9284 -0.4218 -1.7231
  156SAPE   HN317349   0.842   2.804  10.829 -1.6795  1.7896 -0.6662
  156SAPE   C1217350   0.730   2.725  10.663 -0.0331  0.8170  0.2378
  156SAPE  H12A17351   0.764   2.668  10.574  0.3599 -0.4022  1.1446
  156SAPE  H12B17352   0.670   2.813  10.631  2.1756  1.1905 -3.5188
  156SAPE   C1117353   0.654   2.629  10.759 -0.1043 -0.9890  0.0462
  156SAPE  H11A17354   0.617   2.690  10.845 -2.3394 -0.2380 -1.3391
  156SAPE  H11B17355   0.726   2.565  10.813 -1.9400 -1.1113  2.5568
  156SAPE     P17356   0.405   2.611  10.662 -0.3379  0.2881 -0.2234
  156SAPE   O1317357   0.307   2.501  10.662 -0.2470  0.5367 -0.1061
  156SAPE   O1417358   0.383   2.737  10.732 -0.5309 -0.9120 -0.5403
  156SAPE   O1217359   0.549   2.549  10.699  0.2920 -0.3497 -0.5103
  156SAPE   O1117360   0.424   2.649  10.511  0.0359  0.6663 -0.5340
  156SAPE    C117361   0.522   2.591  10.422 -0.4601  0.1197 -0.8551
  156SAPE    HA17362   0.600   2.669  10.416  0.9918 -0.8933  2.4473
  156SAPE    HB17363   0.585   2.507  10.456  0.6430  0.9590 -0.7785
  156SAPE    C217364   0.474   2.555  10.276 -0.5900 -0.8886 -0.9376
  156SAPE    HS17365   0.567   2.548  10.215  1.5419  1.1742  1.8350
  156SAPE   O2117366   0.384   2.652  10.215  0.3827 -0.4695  0.4745
  156SAPE   C2117367   0.447   2.770  10.184 -0.0314  0.5149 -0.4502
  156SAPE   O2217368   0.568   2.786  10.175  0.1220  0.1088 -0.1660
  156SAPE   C2217369   0.339   2.868  10.146  1.0674  0.8673  0.0536
  156SAPE   H2R17370   0.238   2.832  10.174  0.2138  0.5551 -3.0246
  156SAPE   H2S17371   0.358   2.959  10.206  0.6733  0.1710  1.2530
  156SAPE    C317372   0.405   2.422  10.291 -0.3130  0.0615  0.0739
  156SAPE    HX17373   0.310   2.434  10.346  0.9373  1.9463  1.9702
  156SAPE    HY17374   0.472   2.362  10.357  1.1356  0.4849 -0.9518
  156SAPE   O3117375   0.387   2.351  10.161  0.1291 -0.1998 -0.1098
  156SAPE   C3117376   0.302   2.249  10.166 -0.3011 -0.8836  0.2817
  156SAPE   O3217377   0.256   2.207  10.269 -0.3323  0.4792 -0.0503
  156SAPE   C3217378   0.279   2.204  10.019  0.2961 -0.0157  0.2760
  156SAPE   H2X17379   0.371   2.151   9.985  0.0974 -0.9900  1.2254
  156SAPE   H2Y17380   0.249   2.289   9.954  0.6728 -0.1961 -0.1441
  156SAPE   C2317381   0.340   2.907   9.993  0.6306  0.5937 -0.0228
  156SAPE   H3R17382   0.442   2.942   9.967 -0.0167  1.6668 -1.2254
  156SAPE   H3S17383   0.271   2.993   9.976  1.5713  1.1157 -1.2720
  156SAPE   C2417384   0.289   2.794   9.910 -0.1425 -0.1990  0.0995
  156SAPE   H4R17385   0.347   2.701   9.931  2.1394  0.8294 -1.3359
  156SAPE   H4S17386   0.308   2.808   9.801  2.2162  1.6406  0.6848
  156SAPE   C2517387   0.142   2.773   9.915 -0.7489 -0.2318  1.0145
  156SAPE   H5R17388   0.076   2.842   9.969  0.4362  3.3202 -1.7223
  156SAPE   C2617389   0.087   2.659   9.865  0.2264  0.0120  0.0283
  156SAPE   H6R17390  -0.017   2.637   9.891  0.3697 -0.0807  0.5178
  156SAPE   C2717391   0.158   2.553   9.785  0.1273  0.5729 -0.1434
  156SAPE   H7R17392   0.202   2.477   9.853 -1.0000  0.7614  0.8436
  156SAPE   H7S17393   0.239   2.602   9.728  1.4376  0.2938  1.4208
  156SAPE   C2817394   0.069   2.475   9.685  0.1501  0.3782  0.1031
  156SAPE   H8R17395  -0.037   2.503   9.684 -0.4987 -1.9251 -0.5441
  156SAPE   C2917396   0.101   2.397   9.580 -0.0981  0.0104 -0.5618
  156SAPE   H9R17397   0.020   2.360   9.515 -0.7979 -0.2920  0.4694
  156SAPE  C21017398   0.242   2.352   9.542  0.1697  0.3068  0.9890
  156SAPE  H10R17399   0.315   2.352   9.626  0.3475 -3.5206  1.0131
  156SAPE  H10S17400   0.288   2.416   9.463 -0.9230 -2.0354 -1.7362
  156SAPE  C21117401   0.235   2.216   9.474 -0.4762  0.1140 -0.3614
  156SAPE  H11R17402   0.243   2.132   9.545  1.2202  0.3792 -0.2121
  156SAPE  C21217403   0.215   2.186   9.345 -0.5789 -0.1947 -0.3023
  156SAPE  H12R17404   0.202   2.080   9.321 -0.9639 -0.1345 -0.3659
  156SAPE  C21317405   0.201   2.281   9.224 -0.7860  0.7335 -0.4809
  156SAPE  H13R17406   0.302   2.296   9.179 -0.7266  2.2299  0.1039
  156SAPE  H13S17407   0.162   2.380   9.255 -0.1148  0.6093  0.8238
  156SAPE  C21417408   0.107   2.226   9.126  0.0533 -0.0420  0.6294
  156SAPE  H14R17409   0.007   2.270   9.114 -0.0986 -0.3413  0.7936
  156SAPE  C21517410   0.127   2.126   9.040  0.2889 -0.3481  0.1255
  156SAPE  H15R17411   0.042   2.086   8.982  0.9109 -1.6466  0.0538
  156SAPE  C21617412   0.258   2.064   9.011 -0.0129 -1.0463  0.9742
  156SAPE  H16R17413   0.267   1.954   9.024  4.8413 -1.0302 -0.5041
  156SAPE  H16S17414   0.340   2.101   9.076 -0.0750  0.8230  0.0513
  156SAPE  C21717415   0.314   2.096   8.870  0.4235 -0.0434 -0.8635
  156SAPE  H17R17416   0.254   2.050   8.788 -2.2286 -0.2726  1.0809
  156SAPE  H17S17417   0.409   2.039   8.875  0.1371 -0.4495  0.1404
  156SAPE  C21817418   0.335   2.242   8.849  0.2449  0.0224  0.3490
  156SAPE  H18R17419   0.384   2.291   8.936  3.2724 -0.0883 -1.1434
  156SAPE  H18S17420   0.241   2.300   8.836  1.7911  2.5518 -0.1850
  156SAPE  C21917421   0.429   2.274   8.731  0.8734  0.5207  0.4799
  156SAPE  H19R17422   0.389   2.218   8.644  0.9427 -0.0542  0.8117
  156SAPE  H19S17423   0.525   2.219   8.746 -0.8050 -2.6775  0.4560
  156SAPE  C22017424   0.435   2.415   8.677 -0.4683  0.2773 -0.1991
  156SAPE  H20R17425   0.340   2.472   8.675  0.2673  1.6975 -4.2987
  156SAPE  H20S17426   0.480   2.415   8.575  1.0549  0.4116  0.4370
  156SAPE  H20T17427   0.496   2.473   8.750 -0.5846 -0.5679  0.5881
  156SAPE   C3317428   0.165   2.101  10.022  0.4632  0.0311  0.1100
  156SAPE   H3X17429   0.077   2.152  10.067  0.0089 -1.2053  0.6383
  156SAPE   H3Y17430   0.181   2.008  10.079 -4.0564 -0.4479  0.9453
  156SAPE   C3417431   0.114   2.071   9.880  0.0581 -0.2743 -0.0660
  156SAPE   H4X17432   0.182   2.007   9.820  0.1520 -0.2100 -0.0285
  156SAPE   H4Y17433   0.119   2.167   9.824 -0.2568 -1.1515 -1.6672
  156SAPE   C3517434  -0.028   2.019   9.879 -0.2125  1.0500  0.2716
  156SAPE   H5X17435  -0.089   2.072   9.956  0.2728 -1.6258  2.6643
  156SAPE   H5Y17436  -0.032   1.912   9.910  0.3234  0.5917 -1.1465
  156SAPE   C3617437  -0.086   2.024   9.736 -0.3759  0.1092  0.0020
  156SAPE   H6X17438  -0.083   2.131   9.704  0.0552  0.3706  0.8759
  156SAPE   H6Y17439  -0.196   2.012   9.748 -0.4895  1.7942  1.0834
  156SAPE   C3717440  -0.028   1.916   9.648  0.3679  0.3874 -0.0813
  156SAPE   H7X17441  -0.053   1.817   9.690  2.0170 -0.2398 -0.4922
  156SAPE   H7Y17442   0.082   1.926   9.636  0.3134  0.7324 -0.3111
  156SAPE   C3817443  -0.070   1.925   9.498  0.1869 -0.0194  0.0498
  156SAPE   H8X17444  -0.050   2.028   9.461  0.1425  0.7104  1.9251
  156SAPE   H8Y17445  -0.182   1.925   9.496  0.1101  1.7956  1.5202
  156SAPE   C3917446  -0.002   1.821   9.414 -0.2435  0.1501 -0.0492
  156SAPE   H9X17447  -0.008   1.724   9.467 -1.8726 -0.0717 -0.6065
  156SAPE   H9Y17448   0.108   1.837   9.409 -0.5753  3.2218  0.1922
  156SAPE  C31017449  -0.062   1.792   9.275 -0.3038 -0.0416  0.3270
  156SAPE  H10X17450  -0.072   1.881   9.209  0.0388 -0.4870 -0.3357
  156SAPE  H10Y17451  -0.168   1.759   9.288 -1.3344  2.4898 -0.8336
  156SAPE  C31117452   0.017   1.698   9.184 -0.3372  0.0145 -0.4309
  156SAPE  H11X17453   0.021   1.596   9.227  1.3076 -0.4562 -1.5801
  156SAPE  H11Y17454   0.122   1.733   9.174 -0.5159  0.4477 -0.8442
  156SAPE  C31217455  -0.054   1.673   9.047 -0.4271  1.3524 -0.4311
  156SAPE  H12X17456  -0.065   1.770   8.994  2.0092  1.7654 -0.3050
  156SAPE  H12Y17457  -0.156   1.634   9.069  0.3687 -0.5288  0.1698
  156SAPE  C31317458   0.025   1.577   8.947  0.6240 -0.5220 -0.7139
  156SAPE  H13X17459  -0.042   1.580   8.859 -0.5012  0.4178  0.1513
  156SAPE  H13Y17460   0.039   1.475   8.990  1.5686 -0.8768 -1.7884
  156SAPE  C31417461   0.173   1.612   8.904  0.0165  0.4670 -0.2931
  156SAPE  H14X17462   0.216   1.522   8.855  0.3971  0.9297 -0.8335
  156SAPE  H14Y17463   0.228   1.628   8.999  1.4143  3.1094 -1.4374
  156SAPE  C31517464   0.190   1.741   8.830  0.6657  0.4489 -0.6568
  156SAPE  H15X17465   0.173   1.828   8.897  2.8090 -1.1181  2.1366
  156SAPE  H15Y17466   0.118   1.751   8.746 -0.4783  0.7530  0.3364
  156SAPE  C31617467   0.338   1.748   8.775  0.0350  1.0036 -0.1807
  156SAPE  H16X17468   0.405   1.715   8.857 -1.2555 -1.5072 -0.0198
  156SAPE  H16Y17469   0.367   1.852   8.750  0.2780  0.4897 -2.1415
  156SAPE  C31717470   0.368   1.662   8.653 -0.6256  0.1012 -0.2192
  156SAPE  H17X17471   0.308   1.703   8.569  0.5565  3.0210  0.2269
  156SAPE  H17Y17472   0.323   1.563   8.676 -0.8746  0.3745  0.5258
  156SAPE  C31817473   0.516   1.641   8.621  0.2824 -0.3219 -0.2037
  156SAPE  H18X17474   0.570   1.587   8.701  0.4284 -0.5494 -0.4550
  156SAPE  H18Y17475   0.566   1.740   8.621 -0.8152  0.3141  2.3343
  156SAPE  H18Z17476   0.530   1.594   8.521 -2.9342 -0.9465 -0.4779
  157SAPE     N17477   0.148   1.464  10.737  0.2305 -0.3166 -0.0672
  157SAPE   HN117478   0.101   1.371  10.738  1.9034 -1.1931  1.5229
  157SAPE   HN217479   0.242   1.445  10.698  0.1693 -0.0961 -0.3195
  157SAPE   HN317480   0.167   1.486  10.837  0.9157 -0.7328 -0.0986
  157SAPE   C1217481   0.081   1.564  10.648 -0.3393  0.1206 -0.1174
  157SAPE  H12A17482  -0.023   1.527  10.649  0.4389 -2.4043  2.8063
  157SAPE  H12B17483   0.112   1.550  10.543 -0.9194  1.9507 -0.5632
  157SAPE   C1117484   0.097   1.709  10.696 -0.8611 -0.1123 -0.1833
  157SAPE  H11A17485   0.051   1.722  10.796 -1.0543 -1.8690 -0.0189
  157SAPE  H11B17486   0.034   1.771  10.628 -2.3380 -2.0758 -0.6977
  157SAPE     P17487   0.284   1.899  10.673  0.3568 -0.3838  0.3826
  157SAPE   O1317488   0.226   1.972  10.785 -0.1925 -0.2850 -0.7955
  157SAPE   O1417489   0.424   1.910  10.659  0.5407  0.2812  0.5629
  157SAPE   O1217490   0.238   1.751  10.695 -0.4662  0.3987  0.0215
  157SAPE   O1117491   0.214   1.949  10.544 -0.2190  0.5046 -0.1584
  157SAPE    C117492   0.244   1.876  10.419  0.3479  0.0517  0.6231
  157SAPE    HA17493   0.292   1.946  10.347  1.2771 -1.5139 -0.3452
  157SAPE    HB17494   0.322   1.798  10.436  1.3729  1.0792  0.8292
  157SAPE    C217495   0.117   1.817  10.354  0.0802 -0.3982  0.2827
  157SAPE    HS17496   0.071   1.750  10.430 -1.1730 -0.2643 -0.3259
  157SAPE   O2117497   0.159   1.760  10.232 -0.3726  0.6573 -0.4267
  157SAPE   C2117498   0.078   1.657  10.186  0.6082  0.1266  0.3863
  157SAPE   O2217499  -0.023   1.615  10.246  0.5769  0.3388  0.2346
  157SAPE   C2217500   0.129   1.635  10.040  0.3656 -0.1519  0.2060
  157SAPE   H2R17501   0.132   1.734   9.991  0.0760  0.4394  1.3341
  157SAPE   H2S17502   0.233   1.600  10.062  1.8324  2.6006 -1.8249
  157SAPE    C317503   0.012   1.933  10.320  0.1027  0.4793 -0.4748
  157SAPE    HX17504   0.054   1.994  10.237  0.4154 -0.6475 -1.1764
  157SAPE    HY17505   0.002   1.990  10.414  0.9871  1.0100 -0.6916
  157SAPE   O3117506  -0.115   1.879  10.279  0.0211 -0.0346  0.0817
  157SAPE   C3117507  -0.204   1.977  10.254  0.0262  0.0184  0.6568
  157SAPE   O3217508  -0.180   2.096  10.258  0.4515  0.9609 -0.8301
  157SAPE   C3217509  -0.335   1.916  10.212  0.9111  0.4359 -0.0346
  157SAPE   H2X17510  -0.407   1.994  10.244  1.3968  0.1833  1.8019
  157SAPE   H2Y17511  -0.352   1.823  10.271 -2.1529  1.6430  1.1574
  157SAPE   C2317512   0.063   1.530   9.947  0.2250 -0.0867  0.4139
  157SAPE   H3R17513  -0.043   1.562   9.943  0.1470 -0.4682 -1.2919
  157SAPE   H3S17514   0.060   1.423   9.978 -0.7435 -0.0716  0.3868
  157SAPE   C2417515   0.110   1.547   9.801  0.3946  0.9062  0.5539
  157SAPE   H4R17516   0.099   1.651   9.763  1.7381  0.8908  0.0602
  157SAPE   H4S17517   0.039   1.497   9.732  0.8098  1.0995 -0.0240
  157SAPE   C2517518   0.248   1.494   9.797  0.2564 -0.6607 -0.3926
  157SAPE   H5R17519   0.323   1.536   9.866 -1.0946  0.2125  0.5759
  157SAPE   C2617520   0.302   1.404   9.710  0.5086  0.1750 -0.7621
  157SAPE   H6R17521   0.400   1.355   9.723  0.1666 -0.9374 -2.1744
  157SAPE   C2717522   0.216   1.339   9.603  0.0627  0.0031 -0.2335
  157SAPE   H7R17523   0.199   1.408   9.518 -0.1513 -1.6114 -1.5760
  157SAPE   H7S17524   0.119   1.312   9.649 -0.6627  0.9828 -1.1332
  157SAPE   C2817525   0.284   1.222   9.535 -0.2376  0.2410 -0.1150
  157SAPE   H8R17526   0.394   1.225   9.533 -0.2506  1.3092  0.0957
  157SAPE   C2917527   0.222   1.121   9.473 -0.2514 -0.7278 -0.3653
  157SAPE   H9R17528   0.270   1.032   9.430  0.1143  0.0874 -1.6795
  157SAPE  C21017529   0.078   1.120   9.454  0.2277  0.7556 -0.1294
  157SAPE  H10R17530   0.051   1.215   9.404 -0.6290 -0.0957 -1.3367
  157SAPE  H10S17531   0.033   1.109   9.555  1.8102 -0.7628  0.4498
  157SAPE  C21117532   0.018   1.004   9.370 -0.2600  1.0288 -0.4055
  157SAPE  H11R17533  -0.045   0.929   9.420 -1.3016  1.0186 -1.6943
  157SAPE  C21217534   0.031   1.001   9.235  0.0535 -0.3180 -0.6470
  157SAPE  H12R17535  -0.014   0.919   9.176 -0.1958 -0.1520 -0.6907
  157SAPE  C21317536   0.105   1.102   9.156 -0.3036  0.0052  0.0659
  157SAPE  H13R17537   0.170   1.060   9.076  0.0937 -0.5862  0.6950
  157SAPE  H13S17538   0.165   1.168   9.222 -3.3012  1.2797  1.6758
  157SAPE  C21417539   0.016   1.191   9.081  0.4581 -0.6936 -0.1883
  157SAPE  H14R17540  -0.015   1.282   9.133  1.3993  0.4182 -1.4882
  157SAPE  C21517541  -0.021   1.191   8.952 -0.2623 -0.2991  0.4280
  157SAPE  H15R17542  -0.075   1.274   8.904  1.2876  0.4626 -0.0602
  157SAPE  C21617543   0.027   1.089   8.851 -0.3045  0.0817  0.3723
  157SAPE  H16R17544   0.075   1.001   8.900  0.9595  0.9269  0.7022
  157SAPE  H16S17545   0.113   1.131   8.794  2.0441 -0.9860  2.9099
  157SAPE  C21717546  -0.088   1.056   8.755  0.2139 -0.2518 -0.3636
  157SAPE  H17R17547  -0.137   1.151   8.725  0.5647  0.6854  1.8152
  157SAPE  H17S17548  -0.167   0.997   8.806  0.4883 -0.9027 -0.6631
  157SAPE  C21817549  -0.035   0.972   8.640  0.3202  0.7440 -0.0306
  157SAPE  H18R17550   0.013   0.882   8.684 -1.0048  0.6525  1.3186
  157SAPE  H18S17551   0.047   1.022   8.584 -0.3822  1.0284 -0.8117
  157SAPE  C21917552  -0.133   0.918   8.535 -0.1415  0.3069  0.9022
  157SAPE  H19R17553  -0.205   0.851   8.587 -0.8281  1.2231  1.1685
  157SAPE  H19S17554  -0.067   0.857   8.470 -0.3343  0.4303  0.5889
  157SAPE  C22017555  -0.215   1.013   8.449  0.1597  0.0175 -0.1898
  157SAPE  H20R17556  -0.141   1.076   8.396  1.1668  0.0965  1.2658
  157SAPE  H20S17557  -0.285   1.064   8.519  1.1346  0.8633  0.2001
  157SAPE  H20T17558  -0.273   0.964   8.368 -1.4901  1.3049  0.1404
  157SAPE   C3317559  -0.342   1.878  10.066  0.8049 -0.3226 -0.0162
  157SAPE   H3X17560  -0.288   1.782  10.056 -1.9858 -2.0291  0.0944
  157SAPE   H3Y17561  -0.292   1.952  10.000  2.2104 -1.2849 -0.0724
  157SAPE   C3417562  -0.486   1.863  10.020  0.3723  0.1382  0.2271
  157SAPE   H4X17563  -0.541   1.954  10.053  0.0240  0.9560 -2.4078
  157SAPE   H4Y17564  -0.546   1.779  10.060 -1.0126 -0.4661 -2.8621
  157SAPE   C3517565  -0.511   1.850   9.862  0.4338  0.1242  0.3708
  157SAPE   H5X17566  -0.439   1.921   9.818 -0.7652  0.5407 -0.9884
  157SAPE   H5Y17567  -0.615   1.881   9.837  1.2866  1.7948 -1.2883
  157SAPE   C3617568  -0.485   1.708   9.808 -0.3662  0.8078 -0.3807
  157SAPE   H6X17569  -0.545   1.635   9.868 -0.2529 -0.5507 -1.8576
  157SAPE   H6Y17570  -0.378   1.683   9.827 -0.5249  0.3250 -0.0899
  157SAPE   C3717571  -0.520   1.693   9.661 -0.5601  0.2337 -0.5286
  157SAPE   H7X17572  -0.630   1.690   9.646 -0.3902  0.9480 -2.0856
  157SAPE   H7Y17573  -0.478   1.593   9.636  0.5653 -0.2613  2.7597
  157SAPE   C3817574  -0.467   1.805   9.566 -0.3656 -0.0981  0.5830
  157SAPE   H8X17575  -0.360   1.825   9.588 -0.6563  2.1503  0.1795
  157SAPE   H8Y17576  -0.519   1.900   9.592 -1.0780  0.0255 -1.1752
  157SAPE   C3917577  -0.481   1.763   9.417  0.0661 -0.3968 -0.0520
  157SAPE   H9X17578  -0.585   1.736   9.388  0.4747  0.5036 -2.6735
  157SAPE   H9Y17579  -0.415   1.674   9.412  0.5070 -0.0314 -1.0867
  157SAPE  C31017580  -0.436   1.865   9.321  0.4022  0.2446  0.1908
  157SAPE  H10X17581  -0.330   1.896   9.337  0.3754 -0.1769  1.2598
  157SAPE  H10Y17582  -0.499   1.956   9.322 -1.3990 -0.9593  0.9334
  157SAPE  C31117583  -0.433   1.818   9.170 -0.3416 -0.2240  0.1769
  157SAPE  H11X17584  -0.538   1.790   9.146 -0.9976  0.0719  2.4634
  157SAPE  H11Y17585  -0.364   1.731   9.171  1.4504  1.1482  0.5710
  157SAPE  C31217586  -0.376   1.934   9.080  0.5251  0.1177  0.0745
  157SAPE  H12X17587  -0.279   1.970   9.122  0.0245 -3.1445  4.7672
  157SAPE  H12Y17588  -0.453   2.014   9.078  0.6227  0.2784  1.7757
  157SAPE  C31317589  -0.356   1.895   8.933 -0.1222 -0.1949 -0.3440
  157SAPE  H13X17590  -0.457   1.861   8.904  0.6549  0.4671 -4.4575
  157SAPE  H13Y17591  -0.291   1.805   8.927  1.9189  1.2840 -2.2922
  157SAPE  C31417592  -0.302   2.017   8.852  0.0883 -0.0592  0.5936
  157SAPE  H14X17593  -0.204   2.047   8.894 -0.1733 -2.2942  3.0298
  157SAPE  H14Y17594  -0.365   2.104   8.879 -0.3997  0.2707 -1.4191
  157SAPE  C31517595  -0.284   2.006   8.702 -0.1314  0.3218  0.1846
  157SAPE  H15X17596  -0.278   2.109   8.661 -1.0325 -0.2646 -1.5294
  157SAPE  H15Y17597  -0.375   1.957   8.659 -0.2230  0.5455  0.1196
  157SAPE  C31617598  -0.160   1.916   8.665  0.1547  0.3308  0.1516
  157SAPE  H16X17599  -0.181   1.818   8.713 -1.5208  0.8801  0.5892
  157SAPE  H16Y17600  -0.072   1.953   8.723 -0.6932 -0.2036  1.8357
  157SAPE  C31717601  -0.140   1.906   8.518 -0.1854 -0.1846 -0.0429
  157SAPE  H17X17602  -0.173   1.998   8.466 -2.1691 -0.8844 -0.1296
  157SAPE  H17Y17603  -0.207   1.834   8.466 -1.5175 -0.5528  2.0534
  157SAPE  C31817604   0.005   1.886   8.477 -0.2604 -0.0304  0.8888
  157SAPE  H18X17605   0.059   1.978   8.507 -0.3873  1.0313 -1.8039
  157SAPE  H18Y17606   0.021   1.882   8.367 -1.3228  1.1357  0.6755
  157SAPE  H18Z17607   0.044   1.799   8.534 -2.5150  0.2763  3.0484
  158SAPE     N17608   6.605   1.485  11.116 -0.2113 -0.2596 -0.5554
  158SAPE   HN117609   6.567   1.481  11.213  2.5547 -2.7525  0.5945
  158SAPE   HN217610   6.680   1.413  11.111 -0.9886 -1.0272 -1.5751
  158SAPE   HN317611   6.652   1.575  11.093  0.8952 -0.6030  0.2330
  158SAPE   C1217612   6.496   1.452  11.016  0.2644 -0.6513 -0.0286
  158SAPE  H12A17613   6.411   1.524  11.017  1.1881  0.4790  2.0778
  158SAPE  H12B17614   6.458   1.352  11.045 -0.4459 -0.0423  1.2405
  158SAPE   C1117615   6.565   1.451  10.878  0.9577 -0.1729  0.5363
  158SAPE  H11A17616   6.595   1.555  10.851  0.0067  0.0284  0.2276
  158SAPE  H11B17617   6.488   1.425  10.802 -1.1024 -0.1674  2.5145
  158SAPE     P17618   6.686   1.221  10.819 -0.0524 -0.4689 -0.2530
  158SAPE   O1317619   6.823   1.209  10.753 -0.1034 -0.8535  0.5932
  158SAPE   O1417620   6.649   1.139  10.937 -0.2636 -0.2487  0.2452
  158SAPE   O1217621   6.678   1.368  10.876 -0.6033 -0.3479  0.4545
  158SAPE   O1117622   6.573   1.199  10.708 -0.4805 -0.7053 -0.4605
  158SAPE    C117623   6.558   1.070  10.650  0.1371 -0.0577  0.4616
  158SAPE    HA17624   6.656   1.044  10.604 -0.4311  0.4296 -1.0594
  158SAPE    HB17625   6.531   0.994  10.727 -0.1532 -0.5068 -0.0739
  158SAPE    C217626   6.447   1.070  10.536 -0.9982 -0.0596 -0.9329
  158SAPE    HS17627   6.441   0.964  10.504 -2.1176 -0.0901 -0.6480
  158SAPE   O2117628   6.479   1.174  10.431  1.2671 -0.1924 -0.4801
  158SAPE   C2117629   6.454   1.127  10.309 -0.4401 -0.2725  0.1295
  158SAPE   O2217630   6.428   1.012  10.279  0.0496 -0.2596  0.1262
  158SAPE   C2217631   6.468   1.242  10.217 -0.5067 -0.0812 -0.4074
  158SAPE   H2R17632   6.436   1.340  10.258 -2.1277 -1.0246  0.6626
  158SAPE   H2S17633   6.576   1.253  10.193 -0.9318 -0.5745 -2.8312
  158SAPE    C317634   6.319   1.110  10.600  0.3916  0.2964 -0.0980
  158SAPE    HX17635   6.329   1.215  10.632  0.5714  0.6456 -1.2438
  158SAPE    HY17636   6.300   1.051  10.692  0.8793  1.5114  0.8124
  158SAPE   O3117637   6.204   1.105  10.509 -0.2666 -0.9015 -1.0194
  158SAPE   C3117638   6.138   0.991  10.514  0.4418 -0.7613  0.1598
  158SAPE   O3217639   6.163   0.894  10.582 -0.3711 -0.1327  0.0186
  158SAPE   C3217640   6.026   0.997  10.412  0.4334  0.5684 -0.2048
  158SAPE   H2X17641   5.974   1.095  10.420 -0.5176  0.1635 -1.1959
  158SAPE   H2Y17642   5.953   0.916  10.433 -0.3305  1.7331  2.0153
  158SAPE   C2317643   6.396   1.222  10.086  0.3078  0.2987  0.0034
  158SAPE   H3R17644   6.305   1.159  10.092 -0.0326  0.9158  1.8201
  158SAPE   H3S17645   6.465   1.158  10.026  0.3855  0.1702  0.2314
  158SAPE   C2417646   6.373   1.339   9.991 -0.8482 -0.1435  0.1634
  158SAPE   H4R17647   6.471   1.385   9.966 -0.0511 -1.4378  0.8257
  158SAPE   H4S17648   6.317   1.416  10.048 -0.3664  1.3213 -1.2463
  158SAPE   C2517649   6.303   1.289   9.868 -0.3678  0.1860  0.2619
  158SAPE   H5R17650   6.197   1.265   9.886 -0.4705  0.7307  0.3871
  158SAPE   C2617651   6.363   1.259   9.757 -0.2507  0.3392  0.9091
  158SAPE   H6R17652   6.311   1.218   9.669  0.3878  0.1474  0.6131
  158SAPE   C2717653   6.514   1.282   9.733 -0.0693 -0.2755 -0.0203
  158SAPE   H7R17654   6.556   1.202   9.668  1.7957  0.0529  0.6989
  158SAPE   H7S17655   6.577   1.259   9.821 -0.5428 -1.2559  0.0731
  158SAPE   C2817656   6.546   1.413   9.677 -0.2879 -0.5086 -0.0484
  158SAPE   H8R17657   6.588   1.483   9.751 -0.7855  0.9314 -1.0800
  158SAPE   C2917658   6.561   1.444   9.548 -0.3756  0.2135  0.5384
  158SAPE   H9R17659   6.568   1.551   9.522 -1.8753 -0.0582 -1.2536
  158SAPE  C21017660   6.534   1.363   9.423  0.2215 -0.1127 -0.5013
  158SAPE  H10R17661   6.593   1.269   9.423 -1.4477 -1.2846  2.1006
  158SAPE  H10S17662   6.571   1.421   9.336 -0.5668 -0.2439 -0.9400
  158SAPE  C21117663   6.386   1.337   9.391 -0.5912 -0.2323  0.2288
  158SAPE  H11R17664   6.312   1.401   9.442 -2.0636  0.9081 -3.0387
  158SAPE  C21217665   6.336   1.261   9.298 -0.0999  0.7708  0.0340
  158SAPE  H12R17666   6.226   1.253   9.298 -0.0372 -0.1598  0.0907
  158SAPE  C21317667   6.414   1.174   9.196  0.1537  0.1274 -0.8301
  158SAPE  H13R17668   6.461   1.093   9.256 -1.5303 -1.0765 -1.0541
  158SAPE  H13S17669   6.492   1.239   9.152 -0.6629  2.1470  0.5181
  158SAPE  C21417670   6.326   1.117   9.089 -0.3012 -0.2015 -0.4436
  158SAPE  H14R17671   6.275   1.022   9.108  0.2282 -0.2301  0.9207
  158SAPE  C21517672   6.274   1.182   8.986 -0.0846  0.1405  0.4257
  158SAPE  H15R17673   6.204   1.131   8.918  0.2399  0.4557 -0.1475
  158SAPE  C21617674   6.288   1.329   8.950  0.1979  0.4591 -0.6559
  158SAPE  H16R17675   6.293   1.392   9.041  1.5120  0.7111 -0.8852
  158SAPE  H16S17676   6.202   1.368   8.891  1.5006  0.2024 -2.8193
  158SAPE  C21717677   6.407   1.341   8.854 -0.7325 -0.5298  0.2906
  158SAPE  H17R17678   6.380   1.290   8.759 -1.8540  1.0555 -0.2935
  158SAPE  H17S17679   6.490   1.278   8.892 -0.9512 -1.0748 -0.1248
  158SAPE  C21817680   6.447   1.490   8.821  0.7733 -0.2866 -0.3215
  158SAPE  H18R17681   6.548   1.483   8.774  0.5579 -1.2154 -0.6772
  158SAPE  H18S17682   6.456   1.546   8.917  1.9740 -0.1599 -0.4905
  158SAPE  C21917683   6.351   1.567   8.729  0.0070  0.6285  0.3659
  158SAPE  H19R17684   6.373   1.675   8.715 -1.3983  0.5379 -4.2916
  158SAPE  H19S17685   6.250   1.559   8.775 -1.2308 -1.8561 -2.3839
  158SAPE  C22017686   6.316   1.510   8.583 -0.7695 -0.0105 -0.3385
  158SAPE  H20R17687   6.261   1.414   8.590  0.0620 -0.4953 -0.2994
  158SAPE  H20S17688   6.414   1.499   8.531  0.0019  2.5941  0.4129
  158SAPE  H20T17689   6.258   1.582   8.522 -2.1165 -0.5438  0.2680
  158SAPE   C3317690   6.079   0.991  10.272 -0.0939 -0.2223  0.0297
  158SAPE   H3X17691   6.172   1.050  10.257  0.4913 -0.6826  1.6801
  158SAPE   H3Y17692   5.994   1.034  10.214 -2.1266 -2.1992  1.3687
  158SAPE   C3417693   6.091   0.848  10.225  0.2359 -0.1458  0.1176
  158SAPE   H4X17694   5.994   0.795  10.217 -0.8446  1.6071  1.0684
  158SAPE   H4Y17695   6.156   0.804  10.304  2.2474 -0.2048 -1.4642
  158SAPE   C3517696   6.172   0.830  10.092  0.0676 -0.7831 -0.4121
  158SAPE   H5X17697   6.213   0.728  10.100  1.0865 -0.4390 -1.1411
  158SAPE   H5Y17698   6.256   0.901  10.106 -0.1732  0.1509 -3.1182
  158SAPE   C3617699   6.093   0.853   9.968 -0.5621  0.2994 -0.6162
  158SAPE   H6X17700   6.037   0.948   9.959 -0.7340  0.2311 -0.3022
  158SAPE   H6Y17701   6.027   0.767   9.946 -0.7616  0.9352 -2.7393
  158SAPE   C3717702   6.188   0.851   9.853 -0.9192  0.3700 -0.3935
  158SAPE   H7X17703   6.250   0.759   9.846 -1.9557 -0.2701 -1.5357
  158SAPE   H7Y17704   6.265   0.931   9.851  1.2721 -1.6455 -1.2926
  158SAPE   C3817705   6.115   0.869   9.721  0.0966 -0.0579  0.2125
  158SAPE   H8X17706   6.178   0.812   9.650  2.3967  2.6341 -0.0336
  158SAPE   H8Y17707   6.114   0.976   9.693 -2.1175  0.3851  1.7112
  158SAPE   C3917708   5.972   0.816   9.692 -0.4032  0.7660 -0.7077
  158SAPE   H9X17709   5.889   0.875   9.736 -1.6724 -0.6792 -1.0624
  158SAPE   H9Y17710   5.987   0.711   9.723  1.1128  0.6150 -1.8305
  158SAPE  C31017711   5.949   0.798   9.536  0.5904 -0.0992 -0.2942
  158SAPE  H10X17712   5.857   0.740   9.516 -1.0029  1.6070  1.6638
  158SAPE  H10Y17713   6.037   0.736   9.508 -0.3749 -1.4734 -0.3989
  158SAPE  C31117714   5.908   0.934   9.474 -0.4948  0.1539  0.2880
  158SAPE  H11X17715   6.004   0.989   9.487 -0.3300 -0.3869  1.5556
  158SAPE  H11Y17716   5.829   0.961   9.547 -1.8781 -2.1062 -0.2940
  158SAPE  C31217717   5.861   0.925   9.326 -0.5495  0.4035 -0.5980
  158SAPE  H12X17718   5.818   1.018   9.285  2.3035  1.9954 -0.2417
  158SAPE  H12Y17719   5.785   0.844   9.317  1.2767 -1.4077 -0.5420
  158SAPE  C31317720   5.977   0.889   9.230  0.5747  0.4367 -0.7666
  158SAPE  H13X17721   6.050   0.826   9.285 -0.6451  0.3221  0.7788
  158SAPE  H13Y17722   6.031   0.982   9.200 -1.0540  2.1269  1.1877
  158SAPE  C31417723   5.929   0.829   9.100  1.0182 -0.1495 -0.1906
  158SAPE  H14X17724   5.876   0.734   9.119 -1.4756  0.5530 -2.8969
  158SAPE  H14Y17725   6.016   0.810   9.032  0.4158  0.8540 -1.2722
  158SAPE  C31517726   5.840   0.928   9.014 -0.0574 -0.1716 -0.7065
  158SAPE  H15X17727   5.774   0.990   9.078  1.1019  0.2485  0.1307
  158SAPE  H15Y17728   5.776   0.874   8.942  1.2261 -2.4278 -0.2895
  158SAPE  C31617729   5.925   1.012   8.925 -0.5456  0.1998  0.6962
  158SAPE  H16X17730   5.985   0.955   8.851 -0.0605  0.9674  0.4840
  158SAPE  H16Y17731   6.001   1.070   8.983  0.4002  0.3360 -0.6297
  158SAPE  C31717732   5.839   1.112   8.837 -0.0258 -0.0494  0.1861
  158SAPE  H17X17733   5.749   1.143   8.896  0.9334  0.5388  1.3753
  158SAPE  H17Y17734   5.808   1.058   8.745 -0.0698 -0.2027  0.2895
  158SAPE  C31817735   5.928   1.223   8.799  0.4843  0.0807 -0.1792
  158SAPE  H18X17736   5.866   1.303   8.752 -0.4128  1.1410  2.5881
  158SAPE  H18Y17737   6.013   1.195   8.734  0.1306 -0.6948 -0.3110
  158SAPE  H18Z17738   5.979   1.256   8.892  0.2603  2.0674 -0.7235
  159SAPE     N17739   4.834   0.368   6.485  0.3481 -0.2394  1.3007
  159SAPE   HN117740   4.834   0.291   6.415  2.8573 -0.6413  1.6730
  159SAPE   HN217741   4.759   0.366   6.557 -1.7602  0.8175 -0.7148
  159SAPE   HN317742   4.814   0.455   6.431 -0.5262 -2.0104 -1.4084
  159SAPE   C1217743   4.970   0.366   6.556 -0.2041 -0.9964 -0.7239
  159SAPE  H12A17744   5.000   0.262   6.580 -0.0581 -0.9425 -0.6702
  159SAPE  H12B17745   4.961   0.431   6.646 -1.8847 -1.9978 -0.1272
  159SAPE   C1117746   5.077   0.415   6.459  0.4656 -0.4102  0.8146
  159SAPE  H11A17747   5.091   0.334   6.383 -1.6166  0.0713 -0.1573
  159SAPE  H11B17748   5.176   0.428   6.507  0.4046 -0.9942  1.1117
  159SAPE     P17749   5.123   0.652   6.345  0.0977  0.0351 -0.1428
  159SAPE   O1317750   5.248   0.595   6.291  0.1714 -0.1091  0.4788
  159SAPE   O1417751   5.039   0.746   6.268  0.3309 -0.1294  0.3430
  159SAPE   O1217752   5.034   0.535   6.399  0.1447  0.4286 -0.0970
  159SAPE   O1117753   5.167   0.724   6.471 -0.1040  0.8002  0.4148
  159SAPE    C117754   5.065   0.779   6.561 -0.0528  0.3207  0.3979
  159SAPE    HA17755   5.008   0.861   6.512 -2.5776 -1.0440  0.8449
  159SAPE    HB17756   4.993   0.698   6.587  0.9819 -1.2647 -1.3291
  159SAPE    C217757   5.112   0.845   6.690 -0.5889  0.4749  0.0805
  159SAPE    HS17758   5.212   0.887   6.662  2.0239 -3.8673  1.9019
  159SAPE   O2117759   5.128   0.742   6.792  0.1807  0.3202 -0.2683
  159SAPE   C2117760   5.238   0.664   6.778  0.2381 -1.2668 -0.4388
  159SAPE   O2217761   5.324   0.689   6.696  0.1595  0.5989 -0.2975
  159SAPE   C2217762   5.240   0.559   6.892  0.1331 -1.0304  0.2376
  159SAPE   H2R17763   5.228   0.622   6.983 -1.6261 -1.0071  0.0287
  159SAPE   H2S17764   5.142   0.506   6.894  0.3940 -1.5535 -0.3335
  159SAPE    C317765   5.019   0.962   6.737  0.6730 -0.0146 -0.2027
  159SAPE    HX17766   4.916   0.921   6.749  1.0201 -0.7916  0.1467
  159SAPE    HY17767   5.015   1.038   6.655 -0.5592  1.2111  0.9465
  159SAPE   O3117768   5.072   1.025   6.857 -0.0867  0.0228  0.0787
  159SAPE   C3117769   5.006   1.013   6.976  0.7249  0.4389  0.5017
  159SAPE   O3217770   4.910   0.940   6.995 -0.2984  0.1488  0.3755
  159SAPE   C3217771   5.072   1.108   7.081 -0.1764 -0.6094  0.5532
  159SAPE   H2X17772   5.105   1.206   7.040  0.6595 -1.2055 -0.2532
  159SAPE   H2Y17773   5.158   1.046   7.115 -0.5747 -1.0165  0.8270
  159SAPE   C2317774   5.369   0.471   6.906  0.2197  0.2896  0.3523
  159SAPE   H3R17775   5.461   0.529   6.881 -1.0745  2.1420 -0.3540
  159SAPE   H3S17776   5.357   0.390   6.831  0.1112  0.7734 -0.1639
  159SAPE   C2417777   5.399   0.424   7.050 -0.1004  0.1859  0.4347
  159SAPE   H4R17778   5.434   0.514   7.104 -0.8012  0.8159 -0.1280
  159SAPE   H4S17779   5.489   0.359   7.046  0.6396  1.2335 -1.7125
  159SAPE   C2517780   5.288   0.342   7.112 -0.3639  0.0468  0.2284
  159SAPE   H5R17781   5.224   0.280   7.047 -0.1552  0.6546 -0.5654
  159SAPE   C2617782   5.277   0.330   7.246 -0.0238 -0.8980  0.0344
  159SAPE   H6R17783   5.194   0.265   7.279 -0.6622 -0.8982 -1.4645
  159SAPE   C2717784   5.357   0.403   7.357 -0.3269 -0.5784  0.4305
  159SAPE   H7R17785   5.342   0.513   7.350 -0.7291 -0.7108 -1.3275
  159SAPE   H7S17786   5.467   0.391   7.343 -0.1206  1.6657 -0.4936
  159SAPE   C2817787   5.321   0.364   7.497  0.4155  0.3909 -1.1165
  159SAPE   H8R17788   5.216   0.385   7.524  0.6749  1.2037 -0.7050
  159SAPE   C2917789   5.402   0.302   7.586  0.2058  0.0396 -0.2730
  159SAPE   H9R17790   5.357   0.286   7.685 -2.9773  0.5609 -1.5278
  159SAPE  C21017791   5.554   0.283   7.578  0.8636 -0.4932 -0.1540
  159SAPE  H10R17792   5.598   0.385   7.588  0.9028 -0.6147  1.0145
  159SAPE  H10S17793   5.591   0.253   7.477  1.4455  3.3147 -1.2454
  159SAPE  C21117794   5.601   0.197   7.688  0.1535  0.8985 -0.1561
  159SAPE  H11R17795   5.618   0.092   7.661  3.7305  0.6524  2.3886
  159SAPE  C21217796   5.607   0.234   7.817 -0.1296 -0.0966 -0.2456
  159SAPE  H12R17797   5.647   0.161   7.888 -0.8853  0.8656  1.2276
  159SAPE  C21317798   5.578   0.369   7.881  0.4876  0.3742  0.4345
  159SAPE  H13R17799   5.630   0.443   7.816  1.3757 -0.5618  0.0533
  159SAPE  H13S17800   5.639   0.383   7.973 -0.7208  0.6077  1.2189
  159SAPE  C21417801   5.433   0.398   7.900 -0.3978  0.8154 -0.3460
  159SAPE  H14R17802   5.375   0.436   7.815 -0.2705  0.8054 -0.4374
  159SAPE  C21517803   5.370   0.396   8.020 -0.2082 -0.2093 -0.1401
  159SAPE  H15R17804   5.265   0.428   8.026 -0.1750 -0.1429  0.0930
  159SAPE  C21617805   5.436   0.357   8.144  0.0816  0.5612 -0.9244
  159SAPE  H16R17806   5.545   0.336   8.130  0.5010  1.7400  0.2948
  159SAPE  H16S17807   5.378   0.267   8.171 -1.8100  1.5562 -1.5218
  159SAPE  C21717808   5.430   0.456   8.261  0.0594 -0.2981  0.2126
  159SAPE  H17R17809   5.492   0.546   8.239 -1.1273  0.9962  1.8880
  159SAPE  H17S17810   5.473   0.424   8.359  3.0186 -0.6285 -1.0886
  159SAPE  C21817811   5.287   0.499   8.295  0.4604 -0.4453  0.4317
  159SAPE  H18R17812   5.234   0.410   8.337 -0.4360 -0.6251 -1.0007
  159SAPE  H18S17813   5.240   0.541   8.204  2.2016  0.3182 -0.1434
  159SAPE  C21917814   5.304   0.613   8.400 -0.2292  0.8007  0.4531
  159SAPE  H19R17815   5.374   0.683   8.352  0.5187  0.1421  0.5643
  159SAPE  H19S17816   5.348   0.567   8.491  0.7088  0.0827 -0.3422
  159SAPE  C22017817   5.186   0.697   8.431 -0.3447  0.1962  0.0651
  159SAPE  H20R17818   5.211   0.785   8.494  1.0772  0.4602 -0.8317
  159SAPE  H20S17819   5.104   0.642   8.482 -0.6063  2.0059  1.7304
  159SAPE  H20T17820   5.145   0.742   8.338  2.2695  0.8948 -0.8237
  159SAPE   C3317821   4.985   1.153   7.194  0.7109  0.2845 -0.8748
  159SAPE   H3X17822   4.923   1.065   7.223 -2.9418  2.8930 -0.0975
  159SAPE   H3Y17823   4.899   1.213   7.159 -2.1765 -2.2820  1.2886
  159SAPE   C3417824   5.061   1.219   7.305  0.2175  0.0330 -0.0410
  159SAPE   H4X17825   5.109   1.308   7.259  2.2175 -0.5415  0.8239
  159SAPE   H4Y17826   5.145   1.155   7.338 -0.3395 -0.4505  0.4565
  159SAPE   C3517827   4.984   1.252   7.437 -0.3399  0.3923 -0.1654
  159SAPE   H5X17828   4.955   1.153   7.480 -0.9543  0.9854  0.8187
  159SAPE   H5Y17829   4.896   1.317   7.418 -0.7254  0.0041  0.2684
  159SAPE   C3617830   5.071   1.323   7.544 -0.5024  0.0064  0.0173
  159SAPE   H6X17831   5.099   1.423   7.504  0.9434 -1.6446 -3.5182
  159SAPE   H6Y17832   5.170   1.273   7.551 -1.3757 -1.5318  3.7731
  159SAPE   C3717833   5.022   1.322   7.691 -0.2285  1.0057  0.1449
  159SAPE   H7X17834   5.018   1.213   7.712 -0.4928  1.1102  0.6586
  159SAPE   H7Y17835   4.915   1.352   7.701 -0.3991  0.3817  0.2229
  159SAPE   C3817836   5.120   1.382   7.791  0.3821  1.1451  0.1055
  159SAPE   H8X17837   5.084   1.485   7.810 -2.2652  0.2758  0.1495
  159SAPE   H8Y17838   5.224   1.376   7.752  0.0279 -1.0071 -0.6895
  159SAPE   C3917839   5.093   1.301   7.922 -0.1764 -0.7155  0.1551
  159SAPE   H9X17840   4.984   1.286   7.932 -0.4142  1.3426  1.2188
  159SAPE   H9Y17841   5.126   1.372   8.001 -0.2828 -1.0110  0.4671
  159SAPE  C31017842   5.169   1.176   7.937 -0.0579 -0.2675  0.3529
  159SAPE  H10X17843   5.270   1.196   7.894 -1.4224  4.0148 -1.3651
  159SAPE  H10Y17844   5.127   1.101   7.867  1.4637  0.5846 -1.5582
  159SAPE  C31117845   5.162   1.125   8.078 -1.1192 -1.0627 -0.1817
  159SAPE  H11X17846   5.060   1.091   8.107 -1.2011  1.2305  2.5745
  159SAPE  H11Y17847   5.175   1.197   8.162  0.0802 -3.2262  1.6132
  159SAPE  C31217848   5.257   1.006   8.098  0.6122  0.3724  0.1492
  159SAPE  H12X17849   5.256   0.951   8.001  2.4007  1.6823 -0.6769
  159SAPE  H12Y17850   5.226   0.947   8.187  0.3604  1.4916  0.8222
  159SAPE  C31317851   5.403   1.054   8.120  0.4949  0.0960 -0.7623
  159SAPE  H13X17852   5.404   1.120   8.209  0.9713 -0.2038 -0.5401
  159SAPE  H13Y17853   5.454   1.102   8.034  4.0050 -0.4189  0.8708
  159SAPE  C31417854   5.496   0.939   8.170  0.8137 -0.4355 -0.2337
  159SAPE  H14X17855   5.513   0.866   8.088 -0.6999 -0.1619 -0.8237
  159SAPE  H14Y17856   5.445   0.900   8.261 -1.1993 -0.3363 -1.2630
  159SAPE  C31517857   5.632   0.993   8.202  0.2147  0.4481 -0.2195
  159SAPE  H15X17858   5.628   1.086   8.263 -0.6205  0.3050 -0.0452
  159SAPE  H15Y17859   5.688   1.018   8.110  3.2372 -2.6392  0.5786
  159SAPE  C31617860   5.722   0.888   8.270  0.1299  0.8225  0.1083
  159SAPE  H16X17861   5.671   0.858   8.364 -0.6431 -0.8482 -0.7951
  159SAPE  H16Y17862   5.823   0.928   8.294  0.1585  0.2101  1.0623
  159SAPE  C31717863   5.734   0.751   8.197  0.7703 -0.4313  0.3309
  159SAPE  H17X17864   5.735   0.764   8.086 -2.8753  0.3201  0.2649
  159SAPE  H17Y17865   5.636   0.703   8.219 -0.7347  1.9106 -0.7972
  159SAPE  C31817866   5.841   0.646   8.240 -0.2587  0.2694  0.0781
  159SAPE  H18X17867   5.864   0.648   8.349  1.5718 -0.9803 -0.2517
  159SAPE  H18Y17868   5.935   0.655   8.181 -0.9097 -0.6873 -1.1470
  159SAPE  H18Z17869   5.803   0.544   8.218 -0.0340  0.2363 -0.1652
  160SAPE     N17870   4.890   1.605   6.372  0.8975 -0.4395  0.4870
  160SAPE   HN117871   4.945   1.538   6.313  1.4534  1.1287 -0.8583
  160SAPE   HN217872   4.788   1.587   6.381  0.4008 -0.4715 -3.3941
  160SAPE   HN317873   4.896   1.695   6.321 -1.1061 -1.6877 -2.2148
  160SAPE   C1217874   4.947   1.630   6.513 -0.5744  0.5890 -0.4798
  160SAPE  H12A17875   4.924   1.534   6.566 -0.4255  1.2298  0.7946
  160SAPE  H12B17876   4.896   1.714   6.565  1.3860  2.0535 -0.8226
  160SAPE   C1117877   5.089   1.677   6.518  0.2013  0.0764  1.1381
  160SAPE  H11A17878   5.106   1.701   6.625 -1.9139  1.7409  1.1538
  160SAPE  H11B17879   5.091   1.774   6.464  1.0555  0.2286  1.4293
  160SAPE     P17880   5.329   1.598   6.405 -0.2837 -0.2216 -0.0346
  160SAPE   O1317881   5.388   1.465   6.374 -0.0688 -0.1978  0.2904
  160SAPE   O1417882   5.336   1.707   6.302  0.0099  0.2406 -0.3229
  160SAPE   O1217883   5.173   1.573   6.454 -0.3123  0.0747  0.1200
  160SAPE   O1117884   5.406   1.640   6.539 -0.0563 -0.1527  0.1675
  160SAPE    C117885   5.429   1.543   6.645 -0.3862  0.8703  0.2130
  160SAPE    HA17886   5.351   1.465   6.656  0.8728 -0.7766 -1.7910
  160SAPE    HB17887   5.522   1.488   6.618  0.0035  1.4657  0.2995
  160SAPE    C217888   5.458   1.615   6.780  0.1406  0.1296  0.0858
  160SAPE    HS17889   5.497   1.534   6.844 -2.8576 -0.6165  1.1048
  160SAPE   O2117890   5.333   1.661   6.833  0.0858  0.6074  0.2801
  160SAPE   C2117891   5.277   1.588   6.925  0.1775  0.3911  0.7835
  160SAPE   O2217892   5.321   1.480   6.971  0.1882 -0.3404 -0.1984
  160SAPE   C2217893   5.128   1.645   6.951 -0.4861 -0.2723  0.2318
  160SAPE   H2R17894   5.124   1.752   6.921  2.1733 -0.3644 -0.7482
  160SAPE   H2S17895   5.073   1.586   6.874  0.2394 -2.0612  1.0199
  160SAPE    C317896   5.562   1.732   6.775 -0.1207 -0.5922  0.7364
  160SAPE    HX17897   5.538   1.813   6.703 -0.9421  0.3997  2.0757
  160SAPE    HY17898   5.662   1.691   6.747  0.2311  1.1939 -0.9000
  160SAPE   O3117899   5.565   1.793   6.902  0.4405  0.3894  0.0178
  160SAPE   C3117900   5.662   1.737   6.985 -0.0855  0.3773  0.6687
  160SAPE   O3217901   5.758   1.669   6.947  0.1238  0.4821 -0.0224
  160SAPE   C3217902   5.626   1.786   7.124 -0.1373  0.1459 -0.3598
  160SAPE   H2X17903   5.529   1.745   7.159 -0.2083 -0.8366 -1.6623
  160SAPE   H2Y17904   5.617   1.897   7.115 -0.2902  0.3073  1.5013
  160SAPE   C2317905   5.068   1.632   7.091 -0.0304  0.1828  0.1071
  160SAPE   H3R17906   5.071   1.525   7.119 -0.1087 -0.3313 -1.7229
  160SAPE   H3S17907   4.966   1.671   7.108  0.1561  0.8275 -0.2237
  160SAPE   C2417908   5.148   1.714   7.196 -0.0321 -0.2231  0.4277
  160SAPE   H4R17909   5.253   1.678   7.198  0.7264  1.7537 -0.8430
  160SAPE   H4S17910   5.103   1.687   7.294 -1.8436 -2.5770 -0.9524
  160SAPE   C2517911   5.162   1.863   7.165 -0.3278  0.0536 -0.3574
  160SAPE   H5R17912   5.232   1.881   7.083  1.3699 -0.5853  0.9036
  160SAPE   C2617913   5.100   1.961   7.235 -0.6203  0.0087  1.1641
  160SAPE   H6R17914   5.129   2.064   7.208  1.4166 -0.7474  0.2958
  160SAPE   C2717915   5.013   1.953   7.358 -0.1129  0.5155  0.1748
  160SAPE   H7R17916   5.078   1.964   7.447 -0.8519  1.4065  0.6202
  160SAPE   H7S17917   4.980   1.848   7.368 -1.0874  0.7329 -0.5712
  160SAPE   C2817918   4.903   2.057   7.362 -0.4139 -0.0342  0.4434
  160SAPE   H8R17919   4.884   2.113   7.270 -2.0936 -0.0985  0.7272
  160SAPE   C2917920   4.836   2.086   7.473  0.8253 -0.1078 -0.5766
  160SAPE   H9R17921   4.770   2.174   7.461 -1.0458 -1.2831  0.5654
  160SAPE  C21017922   4.837   2.015   7.612 -0.0111 -0.1791  0.9197
  160SAPE  H10R17923   4.868   1.912   7.588  1.5194  0.3942  0.3237
  160SAPE  H10S17924   4.736   2.019   7.659 -0.3012 -1.0019  0.3805
  160SAPE  C21117925   4.940   2.073   7.704 -0.0488  0.1996 -0.1481
  160SAPE  H11R17926   5.044   2.043   7.685  0.1167  0.4407  0.3717
  160SAPE  C21217927   4.922   2.148   7.820 -0.2672 -0.0004 -0.0021
  160SAPE  H12R17928   5.009   2.179   7.880 -0.5152  2.2176 -0.6895
  160SAPE  C21317929   4.788   2.180   7.879  0.0213 -0.4488  0.9416
  160SAPE  H13R17930   4.710   2.192   7.801  1.2792 -0.3818 -0.3528
  160SAPE  H13S17931   4.808   2.275   7.933  0.1125  0.1609 -0.1340
  160SAPE  C21417932   4.741   2.060   7.957 -0.4613  0.0922  0.0732
  160SAPE  H14R17933   4.714   1.965   7.909 -1.7905 -1.4060  3.4009
  160SAPE  C21517934   4.713   2.062   8.090 -0.1489  0.4937 -0.2437
  160SAPE  H15R17935   4.688   1.967   8.138  0.0535  0.7782  0.4416
  160SAPE  C21617936   4.728   2.174   8.184  0.3955 -0.5520 -0.7844
  160SAPE  H16R17937   4.690   2.272   8.148 -1.1328 -0.3681  1.1948
  160SAPE  H16S17938   4.838   2.182   8.194  0.7148  1.4532 -4.1805
  160SAPE  C21717939   4.669   2.150   8.329  0.3799  0.5476 -0.7690
  160SAPE  H17R17940   4.694   2.236   8.394  3.7205  0.1206 -1.3157
  160SAPE  H17S17941   4.724   2.070   8.383  0.2134 -0.2080 -1.6865
  160SAPE  C21817942   4.521   2.122   8.306  0.3988 -0.0550  0.2953
  160SAPE  H18R17943   4.519   2.023   8.256  1.7249  0.3085 -0.5159
  160SAPE  H18S17944   4.472   2.194   8.237 -0.7116 -0.3729  0.7216
  160SAPE  C21917945   4.444   2.104   8.435  0.4763  0.1161 -0.7269
  160SAPE  H19R17946   4.453   2.194   8.499  2.6638 -1.2205  0.9719
  160SAPE  H19S17947   4.499   2.026   8.491 -0.1407  0.5365  0.4938
  160SAPE  C22017948   4.296   2.079   8.403 -0.2827 -0.6008 -0.1762
  160SAPE  H20R17949   4.232   2.068   8.494 -0.5496 -2.1086 -0.5052
  160SAPE  H20S17950   4.286   1.983   8.348  0.1296 -0.2346 -0.8973
  160SAPE  H20T17951   4.257   2.156   8.334 -0.6388  0.6850  1.4150
  160SAPE   C3317952   5.733   1.747   7.231 -0.1993  0.0211  0.1444
  160SAPE   H3X17953   5.833   1.754   7.184 -0.5774  0.0963 -0.6689
  160SAPE   H3Y17954   5.729   1.639   7.257  1.2698 -0.2665 -0.7048
  160SAPE   C3417955   5.730   1.839   7.351  0.0367 -0.2875 -0.2047
  160SAPE   H4X17956   5.631   1.857   7.397  0.5791 -0.3017  0.9852
  160SAPE   H4Y17957   5.767   1.941   7.326 -2.6343  0.5842 -0.9408
  160SAPE   C3517958   5.830   1.780   7.458 -0.2950 -0.4481  0.7116
  160SAPE   H5X17959   5.922   1.764   7.398 -1.5093 -1.1741 -1.0467
  160SAPE   H5Y17960   5.792   1.685   7.501  0.2108 -0.5784  0.8775
  160SAPE   C3617961   5.873   1.881   7.565  0.1526  0.5331 -0.5978
  160SAPE   H6X17962   5.894   1.980   7.517  0.2191  0.5076 -0.6209
  160SAPE   H6Y17963   5.968   1.835   7.599 -0.3846 -0.3692 -0.3008
  160SAPE   C3717964   5.769   1.901   7.675 -0.2980  0.8868 -0.0253
  160SAPE   H7X17965   5.737   1.804   7.719 -0.8068 -0.4900 -3.1519
  160SAPE   H7Y17966   5.686   1.960   7.630  3.3247  5.4833 -1.4092
  160SAPE   C3817967   5.827   1.985   7.792 -0.3649 -0.5868 -0.1538
  160SAPE   H8X17968   5.878   2.073   7.748 -0.1536 -0.8275 -0.3909
  160SAPE   H8Y17969   5.911   1.929   7.837  1.2812  3.4389  2.2317
  160SAPE   C3917970   5.736   2.008   7.914  0.1259  0.4251  0.0127
  160SAPE   H9X17971   5.653   1.935   7.919 -0.7908  1.4675  0.5930
  160SAPE   H9Y17972   5.677   2.102   7.901 -1.5192 -0.5625  0.0228
  160SAPE  C31017973   5.804   2.029   8.046 -0.0229 -0.7890  0.0976
  160SAPE  H10X17974   5.876   2.114   8.051 -2.4426  1.3232  0.7061
  160SAPE  H10Y17975   5.859   1.938   8.080 -1.2752 -0.4677  3.3264
  160SAPE  C31117976   5.703   2.044   8.165  0.6126 -0.1135  0.2493
  160SAPE  H11X17977   5.636   1.955   8.157 -0.3708  0.6271  0.0411
  160SAPE  H11Y17978   5.646   2.139   8.164  1.1366  0.3349  3.3394
  160SAPE  C31217979   5.781   2.033   8.292 -0.7082 -0.0826  0.2039
  160SAPE  H12X17980   5.864   2.107   8.295 -0.4885 -0.2886 -0.4883
  160SAPE  H12Y17981   5.839   1.939   8.289 -1.3731 -0.4892 -0.0490
  160SAPE  C31317982   5.691   2.041   8.417  0.3086 -0.1400 -0.8238
  160SAPE  H13X17983   5.617   1.958   8.411 -2.4034  1.8718  1.7279
  160SAPE  H13Y17984   5.634   2.136   8.421  0.8097  0.1605  3.3071
  160SAPE  C31417985   5.771   2.014   8.547 -0.4773  0.4599 -0.1543
  160SAPE  H14X17986   5.832   1.921   8.543  0.2163  0.8784  0.3756
  160SAPE  H14Y17987   5.709   2.018   8.639 -0.2562  0.3459  0.0024
  160SAPE  C31517988   5.866   2.131   8.576  0.0144 -0.0497 -0.2583
  160SAPE  H15X17989   5.804   2.223   8.566 -0.8258 -0.6066 -0.2675
  160SAPE  H15Y17990   5.958   2.130   8.513 -0.7574  0.9012 -1.4579
  160SAPE  C31617991   5.914   2.150   8.722  0.3333 -0.3711  0.7773
  160SAPE  H16X17992   5.845   2.099   8.792  0.2600 -1.1078  0.1864
  160SAPE  H16Y17993   5.919   2.255   8.759  0.9395  0.7611 -2.2088
  160SAPE  C31717994   6.052   2.093   8.750 -0.8054 -0.2904  0.0064
  160SAPE  H17X17995   6.135   2.149   8.699 -0.5390 -2.0522 -1.6158
  160SAPE  H17Y17996   6.054   2.001   8.688 -0.4429  0.3543 -0.9830
  160SAPE  C31817997   6.099   2.074   8.900  0.0568 -0.3446  0.0603
  160SAPE  H18X17998   6.207   2.055   8.913  0.1377 -2.0081 -2.3251
  160SAPE  H18Y17999   6.036   1.998   8.951  3.0205 -1.7849  1.7958
  160SAPE  H18Z18000   6.072   2.160   8.965  0.4397 -0.8596  0.9094
  161SAPE     N18001   2.886   5.025   6.401 -0.2940  0.2201 -0.2214
  161SAPE   HN118002   2.851   5.032   6.499  2.2001  1.5631  0.6544
  161SAPE   HN218003   2.987   5.045   6.390 -0.3844  1.0926  0.4508
  161SAPE   HN318004   2.830   5.096   6.350 -1.5593 -0.0056  0.8042
  161SAPE   C1218005   2.850   4.888   6.339 -0.2154 -1.2385 -0.3415
  161SAPE  H12A18006   2.873   4.898   6.231 -0.4056  2.3478 -0.1535
  161SAPE  H12B18007   2.741   4.878   6.362  0.0373 -1.0264  1.0744
  161SAPE   C1118008   2.939   4.781   6.394 -0.5328  0.1558  0.2756
  161SAPE  H11A18009   2.910   4.687   6.342 -2.0191  1.4193 -1.3353
  161SAPE  H11B18010   2.916   4.762   6.501  1.9299  1.6357  1.1270
  161SAPE     P18011   3.174   4.796   6.271 -0.2969 -0.0054 -0.3367
  161SAPE   O1318012   3.108   4.723   6.163 -0.1523  0.0698 -0.5537
  161SAPE   O1418013   3.224   4.922   6.227  0.3701 -0.1523  0.5937
  161SAPE   O1218014   3.073   4.821   6.395  0.1169 -0.2620  0.3844
  161SAPE   O1118015   3.300   4.715   6.314  0.0243 -0.0475 -0.5275
  161SAPE    C118016   3.310   4.647   6.443 -0.3901 -0.1284 -0.5801
  161SAPE    HA18017   3.212   4.603   6.471 -0.6722  0.5337 -0.5111
  161SAPE    HB18018   3.388   4.570   6.424 -1.0364 -0.9022 -0.1430
  161SAPE    C218019   3.373   4.736   6.557  0.3458 -0.1628 -0.6617
  161SAPE    HS18020   3.384   4.662   6.639 -0.8226 -0.0533 -0.3927
  161SAPE   O2118021   3.289   4.844   6.589 -0.2209 -0.5142 -0.6739
  161SAPE   C2118022   3.197   4.822   6.682 -0.6387  0.5401 -0.7668
  161SAPE   O2218023   3.190   4.715   6.742  0.6081  0.3222  0.3509
  161SAPE   C2218024   3.116   4.952   6.698 -0.7778 -0.0209 -0.6454
  161SAPE   H2R18025   3.036   4.964   6.621 -0.2135  0.8636 -1.1108
  161SAPE   H2S18026   3.058   4.947   6.792  1.1347  0.4618  0.6224
  161SAPE    C318027   3.513   4.791   6.518  0.1468  0.6894  0.6025
  161SAPE    HX18028   3.488   4.869   6.443  0.1973 -1.0796 -1.3554
  161SAPE    HY18029   3.558   4.709   6.458  1.9667  2.3487 -0.4409
  161SAPE   O3118030   3.582   4.819   6.639  0.6621 -0.2759  0.5464
  161SAPE   C3118031   3.695   4.876   6.606 -1.1517 -0.1780 -0.2965
  161SAPE   O3218032   3.748   4.880   6.497  0.5762  0.0147 -0.2959
  161SAPE   C3218033   3.759   4.929   6.731 -0.8396 -0.0627  0.1251
  161SAPE   H2X18034   3.855   4.875   6.738 -0.0487  1.3882  1.2049
  161SAPE   H2Y18035   3.709   4.909   6.829  0.5285  0.9987  1.0792
  161SAPE   C2318036   3.206   5.084   6.680  0.3887  0.1546  0.8247
  161SAPE   H3R18037   3.144   5.174   6.662  0.0029 -0.9547 -5.9024
  161SAPE   H3S18038   3.271   5.076   6.591  1.7632  0.3588  1.7840
  161SAPE   C2418039   3.277   5.132   6.805 -0.2400 -0.4940 -0.3111
  161SAPE   H4R18040   3.201   5.150   6.884 -2.7310  0.2184 -2.7336
  161SAPE   H4S18041   3.341   5.221   6.787  1.1353 -0.9990  1.7067
  161SAPE   C2518042   3.375   5.023   6.844 -0.2180  0.5068 -0.5359
  161SAPE   H5R18043   3.420   4.969   6.760 -0.0738 -2.6555  1.3971
  161SAPE   C2618044   3.414   4.983   6.962 -0.0649  0.8597 -0.5188
  161SAPE   H6R18045   3.476   4.892   6.968 -1.8391 -0.3386  1.8730
  161SAPE   C2718046   3.357   5.038   7.088 -0.3455  0.2277 -1.5127
  161SAPE   H7R18047   3.351   4.956   7.163  3.2739  0.2008 -1.0619
  161SAPE   H7S18048   3.252   5.071   7.070 -0.6634 -0.9397 -1.9168
  161SAPE   C2818049   3.436   5.152   7.135  0.3534 -0.3319  0.3275
  161SAPE   H8R18050   3.474   5.225   7.061  2.2482  1.6181  3.0382
  161SAPE   C2918051   3.460   5.173   7.264  0.0414 -0.3230 -0.3907
  161SAPE   H9R18052   3.531   5.249   7.300 -2.0905  0.3805  2.7463
  161SAPE  C21018053   3.419   5.085   7.379  0.4238  0.6041  0.1615
  161SAPE  H10R18054   3.428   4.983   7.335  1.5379  2.1278 -3.5752
  161SAPE  H10S18055   3.311   5.097   7.402  0.3809  0.9320 -0.1914
  161SAPE  C21118056   3.514   5.097   7.497 -0.1100  0.2196  0.0806
  161SAPE  H11R18057   3.618   5.068   7.478 -0.4147  0.2429 -1.8246
  161SAPE  C21218058   3.479   5.120   7.629  0.0488 -0.4108 -0.1543
  161SAPE  H12R18059   3.558   5.136   7.704 -1.4262  0.7195  1.2279
  161SAPE  C21318060   3.338   5.150   7.678  0.6518 -0.2024 -0.4066
  161SAPE  H13R18061   3.300   5.054   7.719 -0.0328  0.8402  1.5316
  161SAPE  H13S18062   3.266   5.173   7.597 -1.3311 -0.4059  1.2157
  161SAPE  C21418063   3.317   5.259   7.785 -0.3545 -0.0494 -0.5320
  161SAPE  H14R18064   3.279   5.356   7.750  0.3394  1.2438  2.0674
  161SAPE  C21518065   3.360   5.262   7.919  0.7468 -0.1682 -0.1054
  161SAPE  H15R18066   3.346   5.355   7.976  2.6671  1.3975 -2.0606
  161SAPE  C21618067   3.419   5.147   7.997  0.1959  0.4984  0.0915
  161SAPE  H16R18068   3.499   5.175   8.069  0.7466 -1.5241  0.3377
  161SAPE  H16S18069   3.460   5.072   7.925  0.5036 -0.3979  1.1676
  161SAPE  C21718070   3.326   5.056   8.083  0.6670  0.5337 -0.0111
  161SAPE  H17R18071   3.220   5.051   8.048  0.3454  0.7109  0.9038
  161SAPE  H17S18072   3.310   5.109   8.179  1.9287  2.3144 -0.7280
  161SAPE  C21818073   3.374   4.909   8.106  0.3752 -0.8421  0.5244
  161SAPE  H18R18074   3.481   4.915   8.138  0.6757  1.3563 -0.6777
  161SAPE  H18S18075   3.379   4.850   8.011  0.1877 -3.0134  1.7917
  161SAPE  C21918076   3.298   4.823   8.209 -0.1189 -0.2868 -0.2902
  161SAPE  H19R18077   3.189   4.844   8.196  0.0830  0.2086 -1.2836
  161SAPE  H19S18078   3.341   4.843   8.310  1.2257 -1.4587 -0.5981
  161SAPE  C22018079   3.326   4.671   8.189  0.4227 -0.6112 -0.3586
  161SAPE  H20R18080   3.241   4.604   8.217  0.6817 -1.2718 -1.1244
  161SAPE  H20S18081   3.412   4.648   8.255 -0.8221 -1.9641  0.8769
  161SAPE  H20T18082   3.356   4.657   8.083  1.4193 -0.6381 -0.0772
  161SAPE   C3318083   3.791   5.081   6.729  0.0258 -0.0736  0.5459
  161SAPE   H3X18084   3.700   5.143   6.739  0.7349  0.9748  0.5685
  161SAPE   H3Y18085   3.843   5.108   6.635  1.3777 -0.8691  1.0394
  161SAPE   C3418086   3.885   5.134   6.839  1.1316  0.4919 -0.1014
  161SAPE   H4X18087   3.907   5.242   6.825  0.3238  0.6203 -0.4545
  161SAPE   H4Y18088   3.976   5.071   6.828  2.1683  2.0882 -1.0450
  161SAPE   C3518089   3.831   5.127   6.981 -0.3029 -0.6328 -0.6107
  161SAPE   H5X18090   3.818   5.022   7.015 -2.0459  0.3820  2.1395
  161SAPE   H5Y18091   3.729   5.171   6.980 -0.9665 -2.1103  0.2596
  161SAPE   C3618092   3.904   5.209   7.086  0.1414  0.0852  0.0184
  161SAPE   H6X18093   3.912   5.315   7.053  0.8473 -0.6913 -2.5319
  161SAPE   H6Y18094   4.004   5.164   7.100 -0.0331 -1.7033 -3.4561
  161SAPE   C3718095   3.847   5.189   7.227 -0.2954 -0.5352  0.4436
  161SAPE   H7X18096   3.841   5.080   7.245  0.9707 -0.4768  1.3834
  161SAPE   H7Y18097   3.743   5.225   7.242  0.2942  1.9418 -0.7839
  161SAPE   C3818098   3.925   5.259   7.340  0.0719  0.4242 -0.7360
  161SAPE   H8X18099   3.932   5.369   7.329  1.2109  0.5949  1.1657
  161SAPE   H8Y18100   4.032   5.230   7.330  0.0354 -0.0686  0.1956
  161SAPE   C3918101   3.886   5.207   7.484  0.2435 -0.6336 -0.3487
  161SAPE   H9X18102   3.898   5.097   7.476  0.3744 -0.5353 -1.9095
  161SAPE   H9Y18103   3.782   5.239   7.505  1.0311  3.0995 -1.3593
  161SAPE  C31018104   3.986   5.253   7.596  0.2551 -0.3318  0.0571
  161SAPE  H10X18105   3.981   5.362   7.618  0.5120 -0.8950  3.4471
  161SAPE  H10Y18106   4.093   5.231   7.576  0.3305  1.0000 -1.1796
  161SAPE  C31118107   3.936   5.195   7.731 -0.5486  0.5429 -0.0493
  161SAPE  H11X18108   3.935   5.086   7.709  0.6244  0.3167  0.9175
  161SAPE  H11Y18109   3.833   5.226   7.760 -1.2663 -0.9191 -0.9260
  161SAPE  C31218110   4.044   5.216   7.838  0.1184 -0.2086  0.4255
  161SAPE  H12X18111   4.044   5.323   7.866 -2.4425  0.6220 -2.3270
  161SAPE  H12Y18112   4.139   5.173   7.800 -0.9148  0.4477 -3.2289
  161SAPE  C31318113   4.021   5.145   7.967  0.6896  0.0817 -1.0626
  161SAPE  H13X18114   4.113   5.152   8.028  0.7092  1.5505 -1.2377
  161SAPE  H13Y18115   4.012   5.035   7.953  0.2894 -0.0413  0.0350
  161SAPE  C31418116   3.898   5.191   8.045 -0.1703 -0.4718 -0.8086
  161SAPE  H14X18117   3.804   5.167   7.993 -1.9744 -0.0030  2.0248
  161SAPE  H14Y18118   3.922   5.300   8.051  0.6503 -0.6340 -1.0423
  161SAPE  C31518119   3.907   5.127   8.192  0.1227  0.4442  0.1718
  161SAPE  H15X18120   4.014   5.136   8.219 -0.5792  0.4218  3.3402
  161SAPE  H15Y18121   3.887   5.018   8.180  0.3681  0.6721 -3.2184
  161SAPE  C31618122   3.825   5.168   8.315  0.7475 -0.0018  0.0811
  161SAPE  H16X18123   3.717   5.157   8.295  1.4316 -0.8552 -4.0160
  161SAPE  H16Y18124   3.853   5.275   8.330 -0.7666  0.6968 -1.7056
  161SAPE  C31718125   3.888   5.106   8.443 -1.0767 -0.1154  0.4450
  161SAPE  H17X18126   3.996   5.088   8.430 -0.4388  2.5142  1.5299
  161SAPE  H17Y18127   3.851   5.001   8.447 -1.8528  0.1752  1.3933
  161SAPE  C31818128   3.862   5.180   8.573  0.1639  0.0172  0.5456
  161SAPE  H18X18129   3.891   5.124   8.665  0.6601  2.3555  1.8953
  161SAPE  H18Y18130   3.755   5.207   8.587  0.6721  2.3802  0.2980
  161SAPE  H18Z18131   3.911   5.279   8.564 -0.0866 -0.0160 -1.6672
  162SAPE     N18132   5.890   3.661   6.081 -0.2370  0.2085  0.0412
  162SAPE   HN118133   5.806   3.602   6.100  0.1618 -0.1350  0.7810
  162SAPE   HN218134   5.869   3.753   6.038  0.9007  0.1050 -0.8051
  162SAPE   HN318135   5.956   3.616   6.014  0.1130  0.6990  0.0501
  162SAPE   C1218136   5.963   3.679   6.210  0.4311  0.6627 -0.6801
  162SAPE  H12A18137   6.000   3.784   6.205 -1.1386  1.2649 -0.0775
  162SAPE  H12B18138   6.051   3.613   6.230  1.5439  2.7972  2.3394
  162SAPE   C1118139   5.873   3.675   6.339  0.4921 -0.1081 -0.2222
  162SAPE  H11A18140   5.781   3.731   6.312 -0.3699 -1.0166  0.7034
  162SAPE  H11B18141   5.915   3.736   6.422 -0.9246 -1.0010  1.2167
  162SAPE     P18142   5.716   3.471   6.334  0.0380  0.0157 -0.2101
  162SAPE   O1318143   5.730   3.483   6.190  0.2227  0.5184 -0.0615
  162SAPE   O1418144   5.717   3.338   6.395 -0.3668  0.8225  0.6888
  162SAPE   O1218145   5.842   3.549   6.391  0.1072  0.5107  0.1776
  162SAPE   O1118146   5.584   3.559   6.372 -0.1184 -0.5537 -0.4565
  162SAPE    C118147   5.540   3.550   6.510  0.1456 -0.0765  0.4548
  162SAPE    HA18148   5.434   3.581   6.515 -0.4323 -1.2949 -2.6734
  162SAPE    HB18149   5.553   3.447   6.551  1.0849 -0.4753 -0.7770
  162SAPE    C218150   5.614   3.649   6.609 -0.0347 -0.8155  0.1607
  162SAPE    HS18151   5.722   3.634   6.592  0.1058  1.8444 -1.9875
  162SAPE   O2118152   5.568   3.617   6.745 -0.3363  0.7055 -0.5235
  162SAPE   C2118153   5.653   3.651   6.838  0.9207 -0.7387  0.0480
  162SAPE   O2218154   5.753   3.720   6.816  0.6912 -0.4328  0.4548
  162SAPE   C2218155   5.603   3.605   6.976 -0.1056  0.4044 -0.5885
  162SAPE   H2R18156   5.501   3.560   6.976 -0.8569  2.0116  0.7339
  162SAPE   H2S18157   5.668   3.523   7.012 -1.3671 -0.9772 -1.3299
  162SAPE    C318158   5.581   3.804   6.574 -0.8335  0.0340 -0.5137
  162SAPE    HX18159   5.600   3.819   6.466  0.8146  0.2186 -0.2341
  162SAPE    HY18160   5.654   3.865   6.632 -0.7042  1.3433 -1.9765
  162SAPE   O3118161   5.442   3.834   6.594  0.0226  0.4550 -0.4661
  162SAPE   C3118162   5.420   3.908   6.706 -0.1263 -0.1760  0.6473
  162SAPE   O3218163   5.506   3.939   6.792 -0.3370  0.3764  1.0342
  162SAPE   C3218164   5.276   3.966   6.693 -0.1330  0.3018 -0.0044
  162SAPE   H2X18165   5.209   3.884   6.660 -2.4729  1.8117  0.6981
  162SAPE   H2Y18166   5.274   4.045   6.615  1.1123  1.1421  0.7777
  162SAPE   C2318167   5.596   3.731   7.067 -0.4048 -0.1092  0.2966
  162SAPE   H3R18168   5.541   3.809   7.010  1.6043  1.5467  0.4985
  162SAPE   H3S18169   5.697   3.777   7.069 -0.3297 -0.1241 -1.4453
  162SAPE   C2418170   5.543   3.706   7.202 -0.6107  0.3443  0.2043
  162SAPE   H4R18171   5.445   3.655   7.187  0.2278 -0.6980 -2.3764
  162SAPE   H4S18172   5.532   3.808   7.244  2.4402  1.6395 -1.7513
  162SAPE   C2518173   5.648   3.622   7.277 -0.2543  0.2653 -0.3716
  162SAPE   H5R18174   5.654   3.515   7.252  1.0418 -0.2641  1.9319
  162SAPE   C2618175   5.740   3.658   7.372  1.4024  0.1618  0.8173
  162SAPE   H6R18176   5.805   3.578   7.409  1.0687 -0.6350 -0.2643
  162SAPE   C2718177   5.762   3.798   7.425 -0.0443 -0.1648  0.2826
  162SAPE   H7R18178   5.770   3.874   7.344  0.0421  0.1204  0.5589
  162SAPE   H7S18179   5.865   3.794   7.465  0.0125  0.8870  0.2777
  162SAPE   C2818180   5.673   3.850   7.536 -0.2009 -0.6460  0.4466
  162SAPE   H8R18181   5.600   3.927   7.508  1.1408  0.3476 -0.4153
  162SAPE   C2918182   5.671   3.819   7.662  0.9009  0.4054  0.1985
  162SAPE   H9R18183   5.604   3.881   7.724 -1.3871  1.4781 -3.0868
  162SAPE  C21018184   5.755   3.720   7.746 -0.6722  0.0122  0.0943
  162SAPE  H10R18185   5.859   3.710   7.708 -0.7943  0.6060 -0.4114
  162SAPE  H10S18186   5.724   3.617   7.715  0.0650 -0.1042 -0.2830
  162SAPE  C21118187   5.763   3.741   7.896 -0.2437 -0.3065 -0.5780
  162SAPE  H11R18188   5.814   3.834   7.925 -0.0603 -0.6809  0.3176
  162SAPE  C21218189   5.698   3.672   7.992 -0.1932 -0.0057 -0.2336
  162SAPE  H12R18190   5.709   3.700   8.098  0.2514 -0.3930 -0.1714
  162SAPE  C21318191   5.613   3.546   7.976  0.1033 -0.7877 -0.4771
  162SAPE  H13R18192   5.655   3.464   8.039 -1.6312 -1.6375 -0.3769
  162SAPE  H13S18193   5.603   3.510   7.872  0.7094  2.1763 -1.6718
  162SAPE  C21418194   5.473   3.583   8.019 -0.0314  0.3212  0.0193
  162SAPE  H14R18195   5.410   3.615   7.934 -2.2656 -0.1022  1.4235
  162SAPE  C21518196   5.405   3.581   8.138  0.2240  0.3885 -0.1456
  162SAPE  H15R18197   5.304   3.623   8.142 -1.4533 -3.3463  3.1724
  162SAPE  C21618198   5.461   3.536   8.269 -0.2446 -0.1808 -0.3396
  162SAPE  H16R18199   5.496   3.434   8.242  1.1590  0.8917 -2.9351
  162SAPE  H16S18200   5.385   3.519   8.348  1.3764  2.3014  1.9070
  162SAPE  C21718201   5.579   3.622   8.329  0.2937  0.2048 -0.3274
  162SAPE  H17R18202   5.676   3.595   8.283  0.3850  0.7450 -0.4547
  162SAPE  H17S18203   5.588   3.591   8.435 -0.5258  0.9271 -0.0319
  162SAPE  C21818204   5.561   3.775   8.327  0.1478 -0.6999 -0.6779
  162SAPE  H18R18205   5.464   3.797   8.376  0.7832  1.0065 -0.1473
  162SAPE  H18S18206   5.547   3.802   8.220 -0.6280  1.0150 -0.1831
  162SAPE  C21918207   5.668   3.845   8.406  0.8804  0.0700  0.1056
  162SAPE  H19R18208   5.770   3.820   8.369  1.4734  1.0297  1.0131
  162SAPE  H19S18209   5.658   3.807   8.510  2.5096 -1.4924 -0.2567
  162SAPE  C22018210   5.657   4.000   8.408  0.0147  0.0719  0.3343
  162SAPE  H20R18211   5.744   4.033   8.468  0.7057 -2.1909  0.6650
  162SAPE  H20S18212   5.563   4.030   8.460 -1.6933 -1.2408 -1.8026
  162SAPE  H20T18213   5.653   4.040   8.304 -0.6236  0.4459  0.4952
  162SAPE   C3318214   5.218   4.039   6.813  0.4943  0.4267 -1.1383
  162SAPE   H3X18215   5.122   4.086   6.783  0.0383 -0.0865 -0.5131
  162SAPE   H3Y18216   5.285   4.123   6.840 -1.0437  1.0096  1.1911
  162SAPE   C3418217   5.190   3.940   6.929 -0.3288  0.4340 -0.3074
  162SAPE   H4X18218   5.273   3.868   6.944  0.4636  1.3351 -0.3062
  162SAPE   H4Y18219   5.110   3.869   6.897  0.3764 -1.2558  1.4496
  162SAPE   C3518220   5.135   4.008   7.059 -0.7628 -0.0974  0.8806
  162SAPE   H5X18221   5.039   4.057   7.031 -0.8662 -0.3172  0.8454
  162SAPE   H5Y18222   5.200   4.090   7.095 -0.8778 -0.5207  2.0821
  162SAPE   C3618223   5.100   3.904   7.165 -0.0580 -0.4405  0.7554
  162SAPE   H6X18224   5.073   3.812   7.109  0.6682 -1.0412  1.3725
  162SAPE   H6Y18225   5.009   3.941   7.216 -1.1098 -1.6057 -0.2042
  162SAPE   C3718226   5.206   3.868   7.268 -0.5553  0.0765  0.8640
  162SAPE   H7X18227   5.239   3.971   7.296 -1.0458  1.1255 -2.0296
  162SAPE   H7Y18228   5.287   3.807   7.222 -1.7393 -1.6507  0.9713
  162SAPE   C3818229   5.149   3.798   7.390  0.4508 -0.1956  0.1168
  162SAPE   H8X18230   5.116   3.693   7.376 -1.1662 -0.0760  2.4888
  162SAPE   H8Y18231   5.057   3.850   7.424  1.4518  2.0980 -0.5155
  162SAPE   C3918232   5.238   3.785   7.519 -0.1061  0.1246  0.2256
  162SAPE   H9X18233   5.273   3.890   7.528 -1.7062  0.8483 -1.4592
  162SAPE   H9Y18234   5.328   3.724   7.498 -1.2014 -1.5788  0.2654
  162SAPE  C31018235   5.167   3.758   7.650  0.2703  0.3600 -0.1336
  162SAPE  H10X18236   5.138   3.651   7.651 -0.1763  0.4394 -1.7547
  162SAPE  H10Y18237   5.079   3.826   7.655  1.1126  1.4095  2.4725
  162SAPE  C31118238   5.259   3.806   7.771  0.1781 -0.1821  0.6316
  162SAPE  H11X18239   5.364   3.781   7.747 -0.6035 -2.2712 -0.9972
  162SAPE  H11Y18240   5.216   3.750   7.857 -1.4720 -0.4443 -0.3152
  162SAPE  C31218241   5.235   3.950   7.809  0.5395  0.1723  0.1490
  162SAPE  H12X18242   5.124   3.963   7.814  0.3159 -1.3700 -0.2481
  162SAPE  H12Y18243   5.275   4.017   7.730 -0.4927 -0.6983 -1.1586
  162SAPE  C31318244   5.313   3.988   7.940  0.2651  0.3831 -0.9902
  162SAPE  H13X18245   5.413   3.940   7.927  0.0167  0.2130 -2.4500
  162SAPE  H13Y18246   5.262   3.934   8.023  2.5351 -1.1572 -0.4822
  162SAPE  C31418247   5.309   4.140   7.958 -0.0190 -0.4813 -0.0884
  162SAPE  H14X18248   5.202   4.165   7.974  0.4292  3.8037 -2.1963
  162SAPE  H14Y18249   5.351   4.176   7.861 -0.9495 -2.5607 -1.3187
  162SAPE  C31518250   5.393   4.199   8.074 -0.2730 -0.0213 -0.2488
  162SAPE  H15X18251   5.495   4.161   8.054  0.3268  0.5530  1.5760
  162SAPE  H15Y18252   5.360   4.155   8.171  3.9801  1.7835  2.2766
  162SAPE  C31618253   5.385   4.349   8.069  1.0731 -0.4760  0.2449
  162SAPE  H16X18254   5.404   4.388   7.967 -1.2248 -0.5821 -0.2956
  162SAPE  H16Y18255   5.470   4.397   8.121  0.4752  0.4243  0.4147
  162SAPE  C31718256   5.253   4.398   8.135  0.4503  0.3322 -0.0677
  162SAPE  H17X18257   5.268   4.378   8.243  1.4160 -2.3675 -0.6165
  162SAPE  H17Y18258   5.162   4.344   8.100  0.8547 -0.0507 -0.5467
  162SAPE  C31818259   5.224   4.553   8.117 -0.2469 -0.4058 -0.1908
  162SAPE  H18X18260   5.204   4.578   8.011  0.5824  2.0895  0.1753
  162SAPE  H18Y18261   5.316   4.601   8.157 -0.4460 -0.7356  0.7104
  162SAPE  H18Z18262   5.134   4.559   8.183  0.0135  2.3734  0.0014
  163SAPE     N18263   4.704   6.527   6.319 -0.5993  0.0022  0.1200
  163SAPE   HN118264   4.728   6.626   6.296 -3.0979  0.5706 -0.3603
  163SAPE   HN218265   4.780   6.458   6.299 -0.9517 -0.1513 -0.7280
  163SAPE   HN318266   4.629   6.510   6.249  0.4218 -2.9668 -0.3998
  163SAPE   C1218267   4.645   6.523   6.453 -0.0334 -0.0665  0.2718
  163SAPE  H12A18268   4.543   6.566   6.448 -0.2224 -0.5324 -0.0314
  163SAPE  H12B18269   4.709   6.589   6.515  0.0333 -1.0334  1.2640
  163SAPE   C1118270   4.650   6.379   6.510 -0.1386 -1.1585  0.9409
  163SAPE  H11A18271   4.648   6.387   6.621  1.3901 -2.3208  1.0851
  163SAPE  H11B18272   4.744   6.323   6.489 -0.7626 -1.1687 -2.2783
  163SAPE     P18273   4.504   6.161   6.518 -0.2831 -0.6000  0.6613
  163SAPE   O1318274   4.405   6.189   6.624 -0.4368  0.1539 -0.7765
  163SAPE   O1418275   4.468   6.066   6.410 -0.4065 -0.2631 -0.1699
  163SAPE   O1218276   4.539   6.307   6.461  0.2132 -0.0390 -0.1081
  163SAPE   O1118277   4.642   6.113   6.576 -0.3257 -0.2315  0.5173
  163SAPE    C118278   4.646   5.997   6.658  0.2486  0.0592 -0.1578
  163SAPE    HA18279   4.556   5.932   6.647 -0.5820  0.5726  2.8955
  163SAPE    HB18280   4.728   5.935   6.615  1.0405  1.3528 -0.5930
  163SAPE    C218281   4.694   6.024   6.800  0.0709  0.0218  0.7442
  163SAPE    HS18282   4.697   5.926   6.853  1.3221  0.3215  1.2612
  163SAPE   O2118283   4.593   6.102   6.864  0.1668  0.2276  0.4619
  163SAPE   C2118284   4.468   6.041   6.870 -0.9402  0.3690 -0.5407
  163SAPE   O2218285   4.444   5.925   6.838  0.0273  0.1843 -0.0901
  163SAPE   C2218286   4.371   6.135   6.943 -0.2882  0.5174  0.0410
  163SAPE   H2R18287   4.421   6.205   7.013  0.4029  0.2224 -0.1502
  163SAPE   H2S18288   4.308   6.184   6.866  0.3538 -1.5477 -1.9336
  163SAPE    C318289   4.828   6.097   6.814 -0.9051  0.5588 -0.1814
  163SAPE    HX18290   4.844   6.189   6.755  0.8936  0.6260  0.3539
  163SAPE    HY18291   4.899   6.016   6.786 -1.2659 -0.5651  1.9093
  163SAPE   O3118292   4.850   6.114   6.957  0.1691  0.0276  0.0127
  163SAPE   C3118293   4.871   6.234   6.996  0.3179  1.0330 -0.1709
  163SAPE   O3218294   4.899   6.327   6.926  0.0371 -0.1062  0.0427
  163SAPE   C3218295   4.859   6.227   7.142  0.0887  0.6840 -0.4543
  163SAPE   H2X18296   4.933   6.155   7.181  0.6487  1.1466 -0.6463
  163SAPE   H2Y18297   4.758   6.187   7.165  0.4885 -0.9582 -1.4581
  163SAPE   C2318298   4.275   6.051   7.040 -0.0171 -0.6706  0.7147
  163SAPE   H3R18299   4.222   5.980   6.973  1.1669 -0.5799 -0.3500
  163SAPE   H3S18300   4.219   6.117   7.110  0.6725  2.0461 -1.1484
  163SAPE   C2418301   4.355   5.961   7.142 -0.0926 -0.7530  0.6933
  163SAPE   H4R18302   4.417   5.887   7.086 -0.4841 -0.8017  0.3191
  163SAPE   H4S18303   4.295   5.897   7.211 -0.8627 -1.3378 -0.4712
  163SAPE   C2518304   4.458   6.041   7.227  0.0063 -0.5783 -0.1932
  163SAPE   H5R18305   4.531   6.088   7.160 -0.1261  1.8102  1.2193
  163SAPE   C2618306   4.456   6.065   7.361  0.4433  0.2369  0.0317
  163SAPE   H6R18307   4.543   6.115   7.408  1.0955 -1.6962  0.9821
  163SAPE   C2718308   4.359   6.011   7.464 -0.0222  0.4233  0.6210
  163SAPE   H7R18309   4.372   5.901   7.468 -0.8232  0.2314 -0.9742
  163SAPE   H7S18310   4.260   6.018   7.413  0.1590 -1.2211 -0.0033
  163SAPE   C2818311   4.370   6.074   7.600  0.7226  0.2373  0.4936
  163SAPE   H8R18312   4.469   6.077   7.647  0.9164  1.0536  0.0493
  163SAPE   C2918313   4.269   6.143   7.666 -0.2494 -0.1873 -0.4807
  163SAPE   H9R18314   4.291   6.170   7.770 -1.6020 -1.6972  0.2405
  163SAPE  C21018315   4.128   6.166   7.630 -0.4585 -0.0549  0.2865
  163SAPE  H10R18316   4.103   6.091   7.551  2.0029  0.0249 -0.6546
  163SAPE  H10S18317   4.108   6.262   7.577  1.3062 -0.2215 -0.7761
  163SAPE  C21118318   4.021   6.146   7.742 -0.7006 -0.6747 -0.7784
  163SAPE  H11R18319   3.937   6.082   7.711 -2.6536  1.4689 -0.1871
  163SAPE  C21218320   4.021   6.194   7.866  0.7570  0.4077  0.5815
  163SAPE  H12R18321   3.927   6.177   7.920  0.0241  2.5284  0.0658
  163SAPE  C21318322   4.117   6.290   7.933  0.4897 -0.2541  0.2014
  163SAPE  H13R18323   4.174   6.351   7.860 -0.2175 -1.0617 -1.0788
  163SAPE  H13S18324   4.189   6.222   7.982  0.5270 -1.4526 -1.4521
  163SAPE  C21418325   4.055   6.384   8.038  0.6282 -0.2180  0.3969
  163SAPE  H14R18326   4.013   6.477   7.996 -0.2197 -0.8613 -0.1888
  163SAPE  C21518327   4.035   6.367   8.170  0.0023 -1.0334  0.0081
  163SAPE  H15R18328   3.990   6.452   8.224 -0.8992 -2.3882  1.4966
  163SAPE  C21618329   4.064   6.254   8.267 -0.0121  0.0692 -0.4076
  163SAPE  H16R18330   4.100   6.160   8.221 -0.5737  0.0862 -0.8933
  163SAPE  H16S18331   3.971   6.235   8.325  2.0994  0.3695  3.4133
  163SAPE  C21718332   4.179   6.286   8.360 -0.3199 -0.5304  0.2126
  163SAPE  H17R18333   4.211   6.194   8.414  0.1332 -0.9082 -0.6808
  163SAPE  H17S18334   4.140   6.359   8.434 -0.1147  1.1485 -1.2854
  163SAPE  C21818335   4.302   6.347   8.292 -0.3629  0.0508  0.7923
  163SAPE  H18R18336   4.280   6.448   8.249 -0.6600 -0.3082  0.0893
  163SAPE  H18S18337   4.349   6.283   8.214  1.5096  2.7362 -0.4667
  163SAPE  C21918338   4.408   6.374   8.394 -0.2231 -0.1155 -0.3155
  163SAPE  H19R18339   4.443   6.284   8.448 -0.1640  0.1478  0.0869
  163SAPE  H19S18340   4.373   6.441   8.475  1.4225  1.0548 -0.5218
  163SAPE  C22018341   4.528   6.447   8.328  0.3410  0.0036  0.0170
  163SAPE  H20R18342   4.600   6.475   8.407 -1.1489 -1.5133  2.0420
  163SAPE  H20S18343   4.491   6.536   8.273 -1.6430 -0.5604  0.3321
  163SAPE  H20T18344   4.580   6.378   8.258  0.9492  1.5912 -1.1506
  163SAPE   C3318345   4.874   6.370   7.200  0.2430  0.3965  0.6624
  163SAPE   H3X18346   4.807   6.435   7.139 -0.2766 -2.3085 -1.9051
  163SAPE   H3Y18347   4.980   6.402   7.205  0.3468  0.1019  0.3459
  163SAPE   C3418348   4.815   6.392   7.340 -0.4004  1.0072 -0.0351
  163SAPE   H4X18349   4.705   6.379   7.353 -0.1577  0.1817  1.5191
  163SAPE   H4Y18350   4.843   6.495   7.369 -0.3290  0.2189  3.0480
  163SAPE   C3518351   4.872   6.297   7.448  0.3059  0.0220 -1.1421
  163SAPE   H5X18352   4.983   6.301   7.457  0.1240  0.1403  1.8978
  163SAPE   H5Y18353   4.856   6.192   7.414  2.0360 -0.3181 -1.0200
  163SAPE   C3618354   4.810   6.310   7.589 -0.2452 -0.0376 -0.3907
  163SAPE   H6X18355   4.832   6.210   7.633  2.8297  0.3605 -0.8621
  163SAPE   H6Y18356   4.701   6.327   7.576 -0.7938 -1.4709  1.8061
  163SAPE   C3718357   4.865   6.418   7.680  0.2131 -0.3337  0.2127
  163SAPE   H7X18358   4.874   6.512   7.622 -1.7154  0.0643  0.4749
  163SAPE   H7Y18359   4.968   6.392   7.712  0.4036 -3.5178 -2.4783
  163SAPE   C3818360   4.777   6.459   7.798 -0.0985 -0.7087 -0.0061
  163SAPE   H8X18361   4.762   6.360   7.847  1.8934 -1.4958 -0.8606
  163SAPE   H8Y18362   4.675   6.497   7.778 -0.0549  1.3849  3.1345
  163SAPE   C3918363   4.843   6.545   7.910 -0.0925  0.0690 -0.1613
  163SAPE   H9X18364   4.804   6.649   7.906  0.3805  0.2404 -0.3920
  163SAPE   H9Y18365   4.954   6.542   7.903 -0.0612  1.9837 -1.3375
  163SAPE  C31018366   4.805   6.487   8.040  0.1521 -0.4951  0.2866
  163SAPE  H10X18367   4.708   6.432   8.043  1.4127 -2.7955  1.6188
  163SAPE  H10Y18368   4.784   6.572   8.110 -1.2352 -1.4439  1.0659
  163SAPE  C31118369   4.918   6.404   8.110 -0.0949  0.1502  0.1684
  163SAPE  H11X18370   5.010   6.466   8.103 -0.7371  1.0135 -0.8592
  163SAPE  H11Y18371   4.941   6.312   8.052  2.0608  0.6218  0.2014
  163SAPE  C31218372   4.883   6.369   8.257  0.0327 -0.1575  0.0847
  163SAPE  H12X18373   4.791   6.311   8.279  0.0387  0.5921  2.3630
  163SAPE  H12Y18374   4.879   6.465   8.313  0.6172 -0.8129  1.2730
  163SAPE  C31318375   5.004   6.290   8.320  0.1664 -0.0027  0.5968
  163SAPE  H13X18376   5.098   6.343   8.293  0.3886 -0.7613 -0.1421
  163SAPE  H13Y18377   5.018   6.193   8.269  2.7571 -0.2668  1.6469
  163SAPE  C31418378   4.977   6.266   8.470 -0.6109 -0.2181  0.4282
  163SAPE  H14X18379   4.875   6.223   8.466 -1.6247  2.0942 -0.8649
  163SAPE  H14Y18380   4.980   6.355   8.537  3.1553  0.8972 -0.9728
  163SAPE  C31518381   5.069   6.161   8.528 -0.0407  0.4055 -0.3280
  163SAPE  H15X18382   5.052   6.068   8.470  0.2557 -0.0073  0.2400
  163SAPE  H15Y18383   5.060   6.148   8.638  1.7816  0.6394 -0.1189
  163SAPE  C31618384   5.219   6.185   8.511  0.2529  0.5210 -0.3720
  163SAPE  H16X18385   5.246   6.265   8.584 -3.0317  0.0128  1.5941
  163SAPE  H16Y18386   5.237   6.232   8.412 -1.9467  2.1119 -0.0895
  163SAPE  C31718387   5.306   6.057   8.534  0.6558 -0.3477  0.6442
  163SAPE  H17X18388   5.299   6.000   8.438 -1.7697 -0.6115  0.9323
  163SAPE  H17Y18389   5.276   6.006   8.627 -1.7018 -0.4907 -0.1452
  163SAPE  C31818390   5.461   6.091   8.533 -0.1010 -0.3498 -0.0997
  163SAPE  H18X18391   5.483   6.136   8.632  0.9113 -0.5960 -0.1992
  163SAPE  H18Y18392   5.487   6.165   8.454  0.6365  0.4378  0.8541
  163SAPE  H18Z18393   5.507   5.991   8.519 -2.1346 -1.0696 -2.4858
  164SAPE     N18394   5.785   5.868   5.751  0.4505  0.1934 -0.1087
  164SAPE   HN118395   5.757   5.791   5.687  1.5818 -0.2633 -0.0795
  164SAPE   HN218396   5.781   5.958   5.700 -0.5587 -0.3663 -1.0582
  164SAPE   HN318397   5.882   5.843   5.781  1.2127  1.3478 -1.4751
  164SAPE   C1218398   5.699   5.867   5.872  0.7152  0.0151 -0.9727
  164SAPE  H12A18399   5.591   5.858   5.846  0.2953 -0.5360  0.7634
  164SAPE  H12B18400   5.716   5.951   5.943  0.4036 -0.6095 -0.1333
  164SAPE   C1118401   5.735   5.744   5.960 -0.5064  0.0998  0.0490
  164SAPE  H11A18402   5.683   5.750   6.058 -0.7381 -1.9343  0.0960
  164SAPE  H11B18403   5.844   5.751   5.980 -0.3795  2.8542 -1.1473
  164SAPE     P18404   5.751   5.494   5.967  0.0035 -0.6493 -0.0745
  164SAPE   O1318405   5.693   5.382   5.892  0.0857 -0.4295  0.0889
  164SAPE   O1418406   5.901   5.496   5.972 -0.1130 -0.3453 -0.4097
  164SAPE   O1218407   5.703   5.623   5.893  0.0372  0.9094  0.2851
  164SAPE   O1118408   5.688   5.513   6.107 -0.3580 -0.0269 -0.1012
  164SAPE    C118409   5.546   5.509   6.124 -0.1468 -0.2990 -0.4509
  164SAPE    HA18410   5.494   5.573   6.051 -0.2935  0.4265  0.2772
  164SAPE    HB18411   5.506   5.405   6.127 -2.2055  0.3922 -1.6676
  164SAPE    C218412   5.509   5.571   6.260 -0.7274 -0.1170 -0.0580
  164SAPE    HS18413   5.400   5.552   6.276 -0.6460  0.5780  1.4379
  164SAPE   O2118414   5.547   5.714   6.267 -0.3603  0.5286 -0.1122
  164SAPE   C2118415   5.452   5.794   6.257  0.5600 -0.3610 -0.4560
  164SAPE   O2218416   5.332   5.771   6.247  0.3303  0.4450 -0.3698
  164SAPE   C2218417   5.506   5.935   6.266  0.5395 -0.2947 -0.5414
  164SAPE   H2R18418   5.579   5.959   6.186 -0.7961  2.3775 -1.0532
  164SAPE   H2S18419   5.424   6.007   6.245 -0.8087 -1.6034 -0.0454
  164SAPE    C318420   5.579   5.487   6.366 -0.3190 -0.3387 -0.7628
  164SAPE    HX18421   5.688   5.501   6.348  0.2850  1.8019  3.3283
  164SAPE    HY18422   5.558   5.378   6.360  0.6857 -0.7351  1.6514
  164SAPE   O3118423   5.541   5.520   6.502  0.3970  0.2630  0.3146
  164SAPE   C3118424   5.626   5.590   6.582  0.3133  0.7576 -0.4532
  164SAPE   O3218425   5.741   5.623   6.558 -0.3526  0.5273  0.5857
  164SAPE   C3218426   5.559   5.591   6.727 -0.6206 -0.1032  0.3211
  164SAPE   H2X18427   5.553   5.487   6.763  0.3015 -0.6010 -0.8998
  164SAPE   H2Y18428   5.456   5.633   6.718 -1.0487 -0.6315  2.3998
  164SAPE   C2318429   5.579   5.956   6.399  0.0290 -0.5072  0.6408
  164SAPE   H3R18430   5.625   6.057   6.390 -0.6090 -0.2760 -0.0766
  164SAPE   H3S18431   5.663   5.888   6.428  0.7612  1.3851  3.4418
  164SAPE   C2418432   5.479   5.956   6.518 -0.2772  0.4519  0.2969
  164SAPE   H4R18433   5.532   5.980   6.613 -1.0343  2.1003  0.3308
  164SAPE   H4S18434   5.441   5.853   6.534 -3.1149  1.3035 -0.3624
  164SAPE   C2518435   5.362   6.047   6.499  0.0720 -0.0762 -0.1607
  164SAPE   H5R18436   5.346   6.092   6.401 -3.4408 -3.3095 -1.3192
  164SAPE   C2618437   5.286   6.091   6.601 -0.2222 -0.1744  0.1671
  164SAPE   H6R18438   5.205   6.158   6.568 -1.8102 -2.1906 -0.2742
  164SAPE   C2718439   5.281   6.053   6.751  0.1710 -0.0191  0.3443
  164SAPE   H7R18440   5.306   5.945   6.754  0.7328 -0.1275 -3.2430
  164SAPE   H7S18441   5.178   6.068   6.789 -0.4497  1.0730 -1.6385
  164SAPE   C2818442   5.363   6.145   6.833 -0.1678  0.0799 -0.2314
  164SAPE   H8R18443   5.440   6.208   6.786 -0.0093  0.1663  0.1355
  164SAPE   C2918444   5.347   6.175   6.962 -0.1639  0.0920 -0.9878
  164SAPE   H9R18445   5.411   6.255   7.004  1.5911 -2.4483  1.5469
  164SAPE  C21018446   5.247   6.132   7.061  0.1086 -0.9048  0.3855
  164SAPE  H10R18447   5.154   6.116   7.002  0.9997 -1.4957 -0.8965
  164SAPE  H10S18448   5.231   6.218   7.129 -0.4464 -3.1024  3.2575
  164SAPE  C21118449   5.299   6.017   7.139 -0.3305  0.1530  0.0430
  164SAPE  H11R18450   5.330   5.931   7.078  0.9618 -0.1618  1.1012
  164SAPE  C21218451   5.303   6.000   7.273  0.2218  0.1171 -0.5392
  164SAPE  H12R18452   5.344   5.910   7.320 -0.8064 -0.7574 -1.2653
  164SAPE  C21318453   5.243   6.094   7.378 -0.3390  0.1392  0.5639
  164SAPE  H13R18454   5.149   6.148   7.353 -0.4167  0.7543  2.0939
  164SAPE  H13S18455   5.320   6.170   7.404  1.1265 -0.6712 -1.2121
  164SAPE  C21418456   5.209   6.011   7.499 -0.0892 -0.8345  0.5866
  164SAPE  H14R18457   5.203   5.907   7.465 -1.7232 -0.7708  0.5936
  164SAPE  C21518458   5.175   6.048   7.631 -0.1669 -0.1821 -0.2495
  164SAPE  H15R18459   5.140   5.974   7.704  1.5180  0.0815  0.8801
  164SAPE  C21618460   5.167   6.192   7.688 -0.1530  0.0318 -0.0674
  164SAPE  H16R18461   5.071   6.198   7.744 -1.7438  2.3851 -2.7525
  164SAPE  H16S18462   5.167   6.267   7.606 -1.7571 -0.4368 -0.5469
  164SAPE  C21718463   5.279   6.212   7.793  0.2596  0.4072 -0.3244
  164SAPE  H17R18464   5.273   6.315   7.835  0.6267  1.1870 -2.1010
  164SAPE  H17S18465   5.375   6.201   7.738  0.1416 -3.3390 -0.0420
  164SAPE  C21818466   5.279   6.109   7.909  0.4592  0.6279 -0.4139
  164SAPE  H18R18467   5.275   6.006   7.869  1.0552 -0.3921  1.9886
  164SAPE  H18S18468   5.185   6.125   7.966  0.2837 -2.8965  0.5061
  164SAPE  C21918469   5.398   6.125   7.997 -0.3873 -0.2055 -0.1414
  164SAPE  H19R18470   5.472   6.160   7.922 -0.8402 -2.6441 -1.8859
  164SAPE  H19S18471   5.428   6.027   8.041 -0.2862  0.0266  0.3003
  164SAPE  C22018472   5.398   6.244   8.094 -0.1358 -0.2629 -0.4919
  164SAPE  H20R18473   5.491   6.241   8.155 -0.8893  2.1593  0.9085
  164SAPE  H20S18474   5.305   6.245   8.154 -1.0174  0.0555 -1.8107
  164SAPE  H20T18475   5.398   6.338   8.035  1.2500 -0.0071 -0.1292
  164SAPE   C3318476   5.633   5.678   6.826 -0.4925 -0.4078  0.6093
  164SAPE   H3X18477   5.648   5.780   6.784 -2.6479  0.0074  0.7243
  164SAPE   H3Y18478   5.722   5.624   6.862  1.1829  2.7976  1.6949
  164SAPE   C3418479   5.549   5.703   6.952  1.5279 -0.1247 -0.4906
  164SAPE   H4X18480   5.473   5.782   6.934 -0.9522 -2.6420 -1.6006
  164SAPE   H4Y18481   5.601   5.744   7.042 -1.3791  1.6236  0.5336
  164SAPE   C3518482   5.473   5.579   7.009  0.0848 -0.2555 -0.5698
  164SAPE   H5X18483   5.543   5.493   7.019 -0.6470 -0.7457  0.5592
  164SAPE   H5Y18484   5.395   5.547   6.937 -0.7590  1.4612 -0.4619
  164SAPE   C3618485   5.416   5.611   7.154 -0.3110 -0.2082 -0.0997
  164SAPE   H6X18486   5.325   5.551   7.174  1.0117 -2.0495  0.6398
  164SAPE   H6Y18487   5.383   5.716   7.138  0.4419 -0.2900 -2.6620
  164SAPE   C3718488   5.512   5.589   7.277  0.0829  0.7869 -1.0473
  164SAPE   H7X18489   5.611   5.641   7.270  0.4980  0.4446  1.3189
  164SAPE   H7Y18490   5.530   5.481   7.258 -1.7609  0.0392  1.0433
  164SAPE   C3818491   5.449   5.603   7.414  0.6368  0.5605 -1.2141
  164SAPE   H8X18492   5.438   5.712   7.434  0.4856  0.1453  1.2748
  164SAPE   H8Y18493   5.516   5.564   7.494  0.1058  0.0895 -0.9995
  164SAPE   C3918494   5.321   5.525   7.443  0.5853 -0.0548 -0.5737
  164SAPE   H9X18495   5.335   5.415   7.443 -0.7257 -0.2381 -0.4990
  164SAPE   H9Y18496   5.252   5.547   7.358  1.2358 -1.8324 -1.6186
  164SAPE  C31018497   5.266   5.580   7.575 -0.4304  0.0010  0.5203
  164SAPE  H10X18498   5.157   5.555   7.577 -0.3569 -0.8016 -2.0329
  164SAPE  H10Y18499   5.261   5.690   7.583 -1.2548  0.1065 -1.0125
  164SAPE  C31118500   5.338   5.521   7.696 -0.0629  0.9117  0.1510
  164SAPE  H11X18501   5.407   5.443   7.659 -0.3763  1.7545 -2.4303
  164SAPE  H11Y18502   5.265   5.472   7.764  0.7636 -0.5160  0.0444
  164SAPE  C31218503   5.421   5.617   7.787  0.6154 -0.1060 -0.2298
  164SAPE  H12X18504   5.508   5.655   7.730  0.9751 -0.6516 -0.0569
  164SAPE  H12Y18505   5.470   5.558   7.867  0.5269 -0.1210 -0.1866
  164SAPE  C31318506   5.340   5.726   7.853 -0.1176 -0.1160 -0.7667
  164SAPE  H13X18507   5.273   5.784   7.785 -0.7973  0.0246  0.0051
  164SAPE  H13Y18508   5.407   5.793   7.911 -1.8909 -0.0374  1.3613
  164SAPE  C31418509   5.243   5.671   7.964  0.3078 -0.4534 -0.1630
  164SAPE  H14X18510   5.294   5.588   8.017  0.8994 -1.2001 -1.8058
  164SAPE  H14Y18511   5.165   5.617   7.905 -0.5975 -0.3007  0.8724
  164SAPE  C31518512   5.174   5.785   8.049  0.1112  0.9182  0.1022
  164SAPE  H15X18513   5.137   5.870   7.988 -1.4502 -1.1916 -2.0718
  164SAPE  H15Y18514   5.251   5.823   8.119  1.1465  0.7100 -0.8868
  164SAPE  C31618515   5.052   5.720   8.123  0.3254 -0.4755 -0.5756
  164SAPE  H16X18516   5.091   5.629   8.174  2.1162 -0.0694 -1.1480
  164SAPE  H16Y18517   4.965   5.702   8.057 -0.1568  3.0815 -1.0718
  164SAPE  C31718518   4.989   5.801   8.240  0.7559  0.7400  0.1024
  164SAPE  H17X18519   5.054   5.847   8.317  0.5076  1.9436 -0.3877
  164SAPE  H17Y18520   4.925   5.728   8.294 -0.1433 -0.5390 -2.5063
  164SAPE  C31818521   4.909   5.918   8.182  0.7021 -0.3624 -0.8276
  164SAPE  H18X18522   4.981   5.991   8.140  2.1282 -1.2170  0.0678
  164SAPE  H18Y18523   4.843   5.969   8.255 -0.5400 -1.2373 -1.2996
  164SAPE  H18Z18524   4.836   5.885   8.104  0.2519 -1.0130 -0.1476
  165SAPE     N18525   5.727   0.756   6.424  0.1934 -0.1751  0.3141
  165SAPE   HN118526   5.768   0.687   6.490 -0.6928  0.5332  1.6481
  165SAPE   HN218527   5.754   0.853   6.452  1.3351 -0.2321 -0.4999
  165SAPE   HN318528   5.624   0.747   6.422  0.3145 -1.9204  0.4347
  165SAPE   C1218529   5.770   0.733   6.278  0.0805  0.4354  0.2719
  165SAPE  H12A18530   5.714   0.801   6.210  0.2602  0.3843  0.0720
  165SAPE  H12B18531   5.751   0.626   6.254  0.1196 -0.3667  3.3871
  165SAPE   C1118532   5.913   0.770   6.263 -0.1771 -0.2913  0.1039
  165SAPE  H11A18533   5.934   0.876   6.288  1.8682 -0.2013 -1.7246
  165SAPE  H11B18534   5.946   0.758   6.158  4.9300 -0.2123  1.4369
  165SAPE     P18535   6.143   0.648   6.345  0.1814 -0.5177 -0.0081
  165SAPE   O1318536   6.171   0.525   6.419  0.7311  0.1656 -0.4817
  165SAPE   O1418537   6.196   0.655   6.205 -0.2385  0.2549 -0.1169
  165SAPE   O1218538   5.990   0.678   6.342  0.1688 -0.1655 -0.6221
  165SAPE   O1118539   6.207   0.765   6.426  0.6309  0.0685 -0.5675
  165SAPE    C118540   6.136   0.843   6.521  0.7324  0.2897 -0.5864
  165SAPE    HA18541   6.189   0.941   6.528 -2.6003  2.2274 -0.0828
  165SAPE    HB18542   6.030   0.862   6.494 -0.0251 -0.5213  1.6378
  165SAPE    C218543   6.139   0.785   6.662 -0.6523  0.3161  0.4312
  165SAPE    HS18544   6.126   0.675   6.655 -4.0659  0.6315  0.1572
  165SAPE   O2118545   6.039   0.839   6.740  0.3139  0.3701  0.0826
  165SAPE   C2118546   5.915   0.775   6.723 -0.5452  0.3137 -0.9769
  165SAPE   O2218547   5.894   0.680   6.648  0.2056 -0.2186 -0.2854
  165SAPE   C2218548   5.816   0.816   6.833  0.5549  0.3869 -0.0676
  165SAPE   H2R18549   5.858   0.893   6.902  1.8262 -0.3217 -0.0386
  165SAPE   H2S18550   5.730   0.864   6.782 -1.4005  0.3068  2.8939
  165SAPE    C318551   6.283   0.807   6.726  0.4208  0.1649  0.2024
  165SAPE    HX18552   6.307   0.913   6.702  0.1168  0.0895 -0.4586
  165SAPE    HY18553   6.354   0.743   6.671 -0.9173 -0.5095 -0.8146
  165SAPE   O3118554   6.283   0.773   6.863 -0.4901  0.6650 -0.0615
  165SAPE   C3118555   6.361   0.856   6.932 -0.3794  0.2953 -0.0809
  165SAPE   O3218556   6.443   0.933   6.884 -0.0479 -0.6066 -0.0536
  165SAPE   C3218557   6.354   0.822   7.078  0.5025  0.1083 -0.0226
  165SAPE   H2X18558   6.422   0.740   7.109 -0.2153 -0.3285  0.4196
  165SAPE   H2Y18559   6.254   0.783   7.107  0.9554  0.7183  2.6003
  165SAPE   C2318560   5.765   0.692   6.910  0.0322 -0.1806  0.6106
  165SAPE   H3R18561   5.699   0.623   6.854  2.8236 -2.1819 -0.4428
  165SAPE   H3S18562   5.707   0.723   6.999  0.7096  2.4472  0.2268
  165SAPE   C2418563   5.881   0.603   6.961  0.1794 -0.6185  0.7576
  165SAPE   H4R18564   5.938   0.567   6.873 -0.6863 -2.1508  0.7879
  165SAPE   H4S18565   5.843   0.507   7.002  0.9140 -1.2079  0.0785
  165SAPE   C2518566   5.959   0.673   7.068  0.5089 -0.2142 -0.4056
  165SAPE   H5R18567   6.034   0.745   7.033 -0.0386 -0.2028 -1.6114
  165SAPE   C2618568   5.950   0.660   7.200 -0.3582  0.8184 -0.2504
  165SAPE   H6R18569   6.007   0.725   7.268 -1.1611  2.4272 -1.0660
  165SAPE   C2718570   5.856   0.570   7.281 -0.1543 -0.7255  0.5279
  165SAPE   H7R18571   5.911   0.489   7.333  1.1723 -0.1278  0.0915
  165SAPE   H7S18572   5.777   0.531   7.213 -0.9304  2.3240 -0.4919
  165SAPE   C2818573   5.781   0.653   7.390 -0.1050  0.1906  0.7422
  165SAPE   H8R18574   5.700   0.709   7.341  0.0576 -1.4451 -1.5544
  165SAPE   C2918575   5.793   0.639   7.527 -0.3642  0.2035  0.2797
  165SAPE   H9R18576   5.720   0.684   7.596  0.1032 -1.2470  1.8044
  165SAPE  C21018577   5.899   0.555   7.595  0.0997 -0.2322  0.1956
  165SAPE  H10R18578   6.002   0.590   7.573  1.8373 -2.9034  3.1282
  165SAPE  H10S18579   5.894   0.454   7.548  1.8643  0.0947 -0.7946
  165SAPE  C21118580   5.885   0.534   7.743  0.1253  0.1181  0.1616
  165SAPE  H11R18581   5.809   0.458   7.767 -1.6663  1.5592 -0.7190
  165SAPE  C21218582   5.952   0.598   7.843 -0.0894  0.3594 -0.0286
  165SAPE  H12R18583   5.935   0.570   7.947  0.5368  0.5796  0.1398
  165SAPE  C21318584   6.048   0.707   7.825  0.4580  0.3594 -0.1539
  165SAPE  H13R18585   6.088   0.706   7.721  2.5526  0.7131  0.6007
  165SAPE  H13S18586   6.143   0.682   7.877  0.9024  0.4336 -0.9121
  165SAPE  C21418587   5.990   0.841   7.859  0.0452 -0.8436 -0.5011
  165SAPE  H14R18588   5.913   0.881   7.791  0.3976  1.6067  0.4385
  165SAPE  C21518589   6.027   0.913   7.968 -0.6039 -0.6608 -0.3380
  165SAPE  H15R18590   5.989   1.016   7.981 -0.2841 -0.4289 -1.1651
  165SAPE  C21618591   6.125   0.874   8.076 -0.3612 -0.6672  0.4160
  165SAPE  H16R18592   6.188   0.787   8.047 -0.0521 -0.9303  1.8376
  165SAPE  H16S18593   6.071   0.843   8.168  2.6869 -0.6780  2.3270
  165SAPE  C21718594   6.228   0.983   8.113 -0.4513  0.3626  0.4934
  165SAPE  H17R18595   6.255   1.022   8.012 -0.5671 -2.1475 -0.5747
  165SAPE  H17S18596   6.321   0.936   8.150  0.4047  1.5367 -0.1096
  165SAPE  C21818597   6.177   1.083   8.219  0.1901  0.3777 -0.0310
  165SAPE  H18R18598   6.090   1.132   8.171  0.6210 -0.4159 -1.7255
  165SAPE  H18S18599   6.248   1.164   8.245 -0.9566  1.2156  0.5803
  165SAPE  C21918600   6.143   1.017   8.356  0.1424  0.0615 -0.1172
  165SAPE  H19R18601   6.238   0.968   8.388  0.4853  1.1527  0.5788
  165SAPE  H19S18602   6.062   0.941   8.346 -1.0192  1.0683  1.2894
  165SAPE  C22018603   6.104   1.109   8.472  0.2850  0.2932  0.1714
  165SAPE  H20R18604   6.176   1.194   8.473  0.2726  0.3144 -0.4832
  165SAPE  H20S18605   6.109   1.060   8.572 -1.3836 -1.1441 -0.4085
  165SAPE  H20T18606   6.000   1.145   8.463 -0.5576 -1.4250  2.2525
  165SAPE   C3318607   6.387   0.938   7.180  0.5463 -0.9152  0.2921
  165SAPE   H3X18608   6.306   1.014   7.172  0.5276 -1.0426 -0.9810
  165SAPE   H3Y18609   6.480   0.996   7.167  0.0167  0.1528  1.0874
  165SAPE   C3418610   6.393   0.879   7.325  0.4922  0.7699  0.2821
  165SAPE   H4X18611   6.441   0.952   7.394 -0.0490  1.5064 -0.1104
  165SAPE   H4Y18612   6.460   0.791   7.321 -1.3946 -0.6884 -1.6033
  165SAPE   C3518613   6.255   0.868   7.391  0.1232 -0.4115  0.2792
  165SAPE   H5X18614   6.267   0.814   7.488  0.4020  2.9967  2.3152
  165SAPE   H5Y18615   6.180   0.812   7.332 -0.3438 -0.5601  0.9929
  165SAPE   C3618616   6.187   1.006   7.424  0.2320 -0.8978 -0.2584
  165SAPE   H6X18617   6.205   1.076   7.340 -1.2831 -2.8047 -2.3041
  165SAPE   H6Y18618   6.238   1.041   7.515 -2.3132  2.7142  0.0058
  165SAPE   C3718619   6.032   0.999   7.445  0.1503 -0.1994  0.4530
  165SAPE   H7X18620   6.008   0.916   7.515 -2.7528 -0.5380 -0.8039
  165SAPE   H7Y18621   5.983   0.980   7.347  0.9085 -1.7417  0.3493
  165SAPE   C3818622   5.986   1.132   7.514  0.4000 -0.0709  0.0991
  165SAPE   H8X18623   5.876   1.128   7.524  0.2532 -1.4478 -1.6575
  165SAPE   H8Y18624   6.020   1.212   7.445  0.1841  0.5840  0.7298
  165SAPE   C3918625   6.041   1.169   7.657  0.2926 -0.6427  0.4551
  165SAPE   H9X18626   6.152   1.179   7.661  0.2665 -0.7445  2.9579
  165SAPE   H9Y18627   6.022   1.087   7.729 -1.0321  0.3793  1.3119
  165SAPE  C31018628   5.974   1.303   7.718  0.1715 -0.0626  0.5079
  165SAPE  H10X18629   5.984   1.285   7.828 -0.5049 -0.4811  0.5123
  165SAPE  H10Y18630   5.866   1.290   7.694 -0.5903  3.1847  1.6913
  165SAPE  C31118631   6.048   1.426   7.669 -0.6864  0.9052  0.0179
  165SAPE  H11X18632   6.009   1.458   7.571  0.2847 -0.2113 -0.7583
  165SAPE  H11Y18633   6.158   1.408   7.668 -0.6799  0.9261 -1.2842
  165SAPE  C31218634   6.028   1.547   7.756  0.2312  0.7718 -0.6954
  165SAPE  H12X18635   5.919   1.569   7.755  0.2629  1.0379  0.4120
  165SAPE  H12Y18636   6.075   1.635   7.707 -1.3830  1.5537 -0.9098
  165SAPE  C31318637   6.053   1.528   7.910 -0.4830  0.8895 -0.3587
  165SAPE  H13X18638   6.158   1.494   7.925 -0.6285  0.5319 -0.1361
  165SAPE  H13Y18639   5.983   1.450   7.946 -1.4993 -0.0219 -3.9213
  165SAPE  C31418640   6.053   1.658   7.983  0.1505 -0.5693 -0.0568
  165SAPE  H14X18641   5.956   1.705   8.012  0.6912 -0.2876  1.3353
  165SAPE  H14Y18642   6.112   1.737   7.931  0.6168 -0.3417  0.8107
  165SAPE  C31518643   6.119   1.655   8.116  0.2091  0.2441 -0.0419
  165SAPE  H15X18644   6.220   1.612   8.098 -0.1002  0.0994 -1.5860
  165SAPE  H15Y18645   6.072   1.587   8.190  0.1901 -2.1863 -2.1717
  165SAPE  C31618646   6.120   1.790   8.189 -0.2737 -0.8312  0.2302
  165SAPE  H16X18647   6.022   1.840   8.206  1.6955  2.7510  2.4073
  165SAPE  H16Y18648   6.186   1.866   8.142  1.3841 -1.5618  1.2872
  165SAPE  C31718649   6.178   1.764   8.335 -0.5860  0.3753  0.1277
  165SAPE  H17X18650   6.288   1.751   8.327 -0.3059  1.5414  1.5067
  165SAPE  H17Y18651   6.130   1.672   8.375 -1.2112  0.7851  0.3363
  165SAPE  C31818652   6.161   1.874   8.441  0.6760 -0.0238  0.4870
  165SAPE  H18X18653   6.055   1.906   8.432  0.2187 -1.9425 -4.0193
  165SAPE  H18Y18654   6.232   1.957   8.422  0.1198  0.1589 -0.9186
  165SAPE  H18Z18655   6.172   1.829   8.542  3.0203  0.3843  0.4772
  166SAPE     N18656   1.908   4.129   6.256  0.2618  0.3086  0.2886
  166SAPE   HN118657   1.967   4.120   6.341  1.7703  3.2042 -0.3011
  166SAPE   HN218658   1.849   4.215   6.259 -0.5071 -0.2291  0.9624
  166SAPE   HN318659   1.839   4.052   6.253 -1.6621  1.9471  0.0882
  166SAPE   C1218660   1.997   4.125   6.134 -0.3224 -0.5832 -0.9640
  166SAPE  H12A18661   2.070   4.209   6.137  2.2087 -2.6285 -0.9657
  166SAPE  H12B18662   1.938   4.135   6.041  2.2176 -0.0753 -2.6458
  166SAPE   C1118663   2.090   3.996   6.125  0.1445 -1.2013 -0.4110
  166SAPE  H11A18664   2.170   4.018   6.197  0.2135  2.9381 -1.5127
  166SAPE  H11B18665   2.131   4.002   6.022 -1.1611 -1.4021 -0.9768
  166SAPE     P18666   2.089   3.744   6.104  0.1724  0.2525  0.4661
  166SAPE   O1318667   2.082   3.720   5.959 -0.0893  0.3821 -0.5285
  166SAPE   O1418668   2.221   3.725   6.165  0.6896  0.4123 -0.0934
  166SAPE   O1218669   2.013   3.878   6.142  0.1369 -0.3445 -0.4881
  166SAPE   O1118670   1.995   3.634   6.177 -0.2327  0.0943  0.0394
  166SAPE    C118671   1.857   3.644   6.216  0.3652 -0.0164  0.6267
  166SAPE    HA18672   1.825   3.750   6.232 -2.0746 -0.3540 -1.4938
  166SAPE    HB18673   1.789   3.591   6.147  0.7775 -1.4862  1.3197
  166SAPE    C218674   1.827   3.601   6.361  0.4140 -0.5250 -0.4621
  166SAPE    HS18675   1.734   3.643   6.404  1.3570  0.0031  1.1661
  166SAPE   O2118676   1.934   3.642   6.446 -0.5134 -0.2301  0.1843
  166SAPE   C2118677   1.951   3.770   6.475  0.4598  0.4553  0.0754
  166SAPE   O2218678   1.875   3.859   6.455  0.1937 -0.1269  0.2611
  166SAPE   C2218679   2.088   3.800   6.535  0.9658 -0.1279 -0.3302
  166SAPE   H2R18680   2.145   3.708   6.560  1.1716 -0.1098 -0.7354
  166SAPE   H2S18681   2.139   3.866   6.463  1.0415  1.6358  1.2433
  166SAPE    C318682   1.802   3.442   6.367 -0.2518  0.1005  0.4896
  166SAPE    HX18683   1.888   3.380   6.335 -1.0368 -0.6763 -0.1803
  166SAPE    HY18684   1.716   3.424   6.299 -0.3479 -1.7347  1.0534
  166SAPE   O3118685   1.760   3.410   6.500 -0.0200 -0.2678  0.3186
  166SAPE   C3118686   1.851   3.353   6.578  1.1106  0.0523 -0.5303
  166SAPE   O3218687   1.967   3.347   6.560  0.4601  0.4949 -0.7517
  166SAPE   C3218688   1.781   3.307   6.712 -0.4356 -0.0229  0.1944
  166SAPE   H2X18689   1.744   3.203   6.704 -1.5452  0.4443 -1.0642
  166SAPE   H2Y18690   1.694   3.374   6.724 -1.5231 -1.6159  1.4947
  166SAPE   C2318691   2.074   3.887   6.672 -0.5027 -0.0927 -0.2885
  166SAPE   H3R18692   2.010   3.978   6.661 -1.7652 -0.5815  2.2999
  166SAPE   H3S18693   2.176   3.925   6.694 -0.8012  0.9305 -0.6064
  166SAPE   C2418694   2.031   3.810   6.791 -0.3385 -0.4307  0.4577
  166SAPE   H4R18695   2.099   3.726   6.816 -1.6287 -1.0127  2.1488
  166SAPE   H4S18696   1.936   3.763   6.757  0.0364 -0.4592 -0.6065
  166SAPE   C2518697   2.004   3.884   6.915  0.1183 -0.2477 -0.7837
  166SAPE   H5R18698   1.972   3.988   6.904  0.1565 -0.0225  0.8917
  166SAPE   C2618699   1.998   3.839   7.045  0.9049 -0.0920 -0.2555
  166SAPE   H6R18700   1.974   3.913   7.123  0.6365 -0.6103  0.1595
  166SAPE   C2718701   2.014   3.690   7.088 -0.4937 -0.1367 -0.2788
  166SAPE   H7R18702   2.117   3.670   7.125  0.1369  0.4729 -1.6596
  166SAPE   H7S18703   1.992   3.611   7.013  2.1899 -0.8192 -0.4520
  166SAPE   C2818704   1.917   3.674   7.199  0.3582 -0.0202 -0.4467
  166SAPE   H8R18705   1.812   3.658   7.170 -0.5490  2.5369  1.0120
  166SAPE   C2918706   1.940   3.705   7.333 -0.4431 -0.2047  0.3867
  166SAPE   H9R18707   1.861   3.687   7.407  1.2831 -0.9166  2.1558
  166SAPE  C21018708   2.077   3.738   7.391  0.5209 -0.3796  0.1434
  166SAPE  H10R18709   2.166   3.702   7.336  1.9372 -1.7584  3.0886
  166SAPE  H10S18710   2.091   3.674   7.481 -0.6065 -1.2290 -0.2586
  166SAPE  C21118711   2.086   3.886   7.427  0.1696 -0.4912  0.5644
  166SAPE  H11R18712   2.068   3.957   7.344 -0.7484 -0.9469  0.3575
  166SAPE  C21218713   2.108   3.933   7.547 -0.8262  0.0809  0.7009
  166SAPE  H12R18714   2.122   4.042   7.555 -0.1143 -0.0955  2.2926
  166SAPE  C21318715   2.115   3.862   7.677  0.3587 -0.5488  0.0734
  166SAPE  H13R18716   2.168   3.930   7.746 -0.8812 -0.2129  0.7210
  166SAPE  H13S18717   2.184   3.774   7.678 -0.3357 -1.1134  2.2138
  166SAPE  C21418718   1.980   3.823   7.731 -0.3436  0.1053  0.2763
  166SAPE  H14R18719   1.940   3.736   7.676 -0.4502 -0.3430  1.0523
  166SAPE  C21518720   1.903   3.873   7.826 -0.3558 -0.0566  0.0222
  166SAPE  H15R18721   1.805   3.827   7.846  0.7793 -2.6994  0.0359
  166SAPE  C21618722   1.941   3.989   7.918  0.2518 -0.5439 -1.1315
  166SAPE  H16R18723   1.884   4.079   7.886  0.7270  0.5810  0.9863
  166SAPE  H16S18724   2.050   4.008   7.917 -0.1350  2.0617 -0.7382
  166SAPE  C21718725   1.899   3.963   8.067  0.4127 -0.0086 -0.2418
  166SAPE  H17R18726   1.800   3.914   8.083  0.5608 -0.2147  0.0508
  166SAPE  H17S18727   1.902   4.066   8.108  2.1975 -0.3507  0.5813
  166SAPE  C21818728   2.002   3.888   8.152  0.3767 -0.1886  0.0860
  166SAPE  H18R18729   2.105   3.924   8.134  0.8747 -1.6615 -0.1113
  166SAPE  H18S18730   2.008   3.780   8.126  0.0288 -0.4976  1.2368
  166SAPE  C21918731   1.964   3.879   8.298 -0.1611 -0.9333 -0.2522
  166SAPE  H19R18732   1.881   3.806   8.305  0.9485 -2.0806  2.0941
  166SAPE  H19S18733   1.938   3.981   8.333 -1.1127 -0.9825 -0.7827
  166SAPE  C22018734   2.083   3.834   8.383  0.6557  0.4182 -0.6065
  166SAPE  H20R18735   2.160   3.915   8.381  1.0006  0.1527  0.7670
  166SAPE  H20S18736   2.130   3.742   8.344  3.2336  1.2291  0.3332
  166SAPE  H20T18737   2.055   3.817   8.489 -2.2655  0.3779 -1.2934
  166SAPE   C3318738   1.873   3.325   6.836  0.1296  0.4711  1.1531
  166SAPE   H3X18739   1.921   3.424   6.847  2.5069 -0.3403 -0.9910
  166SAPE   H3Y18740   1.957   3.252   6.830 -0.5010 -0.1559 -1.8447
  166SAPE   C3418741   1.786   3.295   6.958  0.5671 -0.2548 -0.7036
  166SAPE   H4X18742   1.729   3.205   6.929 -2.2245  0.9166  0.7133
  166SAPE   H4Y18743   1.715   3.378   6.978  1.0823 -0.3094  1.7091
  166SAPE   C3518744   1.874   3.290   7.084  0.4246 -0.8295  0.5002
  166SAPE   H5X18745   1.888   3.399   7.094 -0.8744 -0.5248 -0.7633
  166SAPE   H5Y18746   1.970   3.237   7.069  1.6204  1.7859 -1.8485
  166SAPE   C3618747   1.789   3.253   7.215 -0.8662  0.7890 -0.1489
  166SAPE   H6X18748   1.794   3.143   7.228 -1.3127  0.8303  0.4138
  166SAPE   H6Y18749   1.680   3.277   7.205 -0.8853  0.5846 -0.4611
  166SAPE   C3718750   1.855   3.307   7.341 -0.2259  0.0987  0.5851
  166SAPE   H7X18751   1.899   3.406   7.316  0.6688 -0.2802  0.6125
  166SAPE   H7Y18752   1.929   3.236   7.384  0.4624  1.5181  1.8465
  166SAPE   C3818753   1.751   3.328   7.445  1.3804 -0.2056 -0.4754
  166SAPE   H8X18754   1.709   3.229   7.475  0.4376 -0.1380 -1.4959
  166SAPE   H8Y18755   1.661   3.382   7.408  0.4063  0.3252  2.3929
  166SAPE   C3918756   1.798   3.411   7.565 -0.3145  0.2932 -0.2165
  166SAPE   H9X18757   1.826   3.514   7.535 -0.7538  0.4209 -0.1980
  166SAPE   H9Y18758   1.887   3.357   7.604  0.0275  1.6153  0.9341
  166SAPE  C31018759   1.700   3.411   7.682  0.3138 -0.0131 -0.5914
  166SAPE  H10X18760   1.655   3.314   7.713 -0.5567  1.1614  2.1070
  166SAPE  H10Y18761   1.613   3.470   7.644  0.8748  0.3862 -1.2792
  166SAPE  C31118762   1.764   3.471   7.808 -0.7871  0.1336 -0.0292
  166SAPE  H11X18763   1.836   3.550   7.779  0.5363 -1.3583 -0.9735
  166SAPE  H11Y18764   1.825   3.403   7.871 -0.4465  1.2056  0.8333
  166SAPE  C31218765   1.649   3.523   7.904  0.2712  0.4952 -0.2889
  166SAPE  H12X18766   1.564   3.452   7.906  0.6376  0.0590 -0.1366
  166SAPE  H12Y18767   1.608   3.611   7.849 -0.0226 -0.2307 -1.2584
  166SAPE  C31318768   1.688   3.563   8.045 -0.3982 -0.2603  0.0941
  166SAPE  H13X18769   1.605   3.631   8.075  0.4012  0.2472  1.2402
  166SAPE  H13Y18770   1.780   3.623   8.032 -0.5855  0.8428  3.1015
  166SAPE  C31418771   1.713   3.450   8.143 -0.2909 -0.2009 -0.0122
  166SAPE  H14X18772   1.775   3.377   8.085  0.6768  2.0380 -1.9753
  166SAPE  H14Y18773   1.618   3.403   8.177 -0.5381  0.1573 -0.2049
  166SAPE  C31518774   1.792   3.495   8.266  0.3385 -0.3817  0.2512
  166SAPE  H15X18775   1.884   3.551   8.237  0.7596 -2.1768 -2.2841
  166SAPE  H15Y18776   1.822   3.402   8.319 -1.6815 -0.5804  1.1233
  166SAPE  C31618777   1.709   3.573   8.368 -0.3448  0.0013  0.9066
  166SAPE  H16X18778   1.610   3.524   8.370 -0.6110  0.5087  0.4123
  166SAPE  H16Y18779   1.682   3.671   8.323 -1.2641 -0.3567  0.6597
  166SAPE  C31718780   1.769   3.613   8.502 -0.5624 -0.3618 -0.1547
  166SAPE  H17X18781   1.859   3.674   8.481 -1.1257  0.2829 -0.7267
  166SAPE  H17Y18782   1.815   3.522   8.546  1.0656  0.8019  0.6708
  166SAPE  C31818783   1.683   3.685   8.608 -0.2034  0.5685 -0.2125
  166SAPE  H18X18784   1.737   3.700   8.704  2.3053 -1.9404 -1.0829
  166SAPE  H18Y18785   1.590   3.626   8.620  0.5301 -0.6909 -0.5239
  166SAPE  H18Z18786   1.641   3.780   8.568 -0.7695  0.1513 -0.6209
  167SAPE     N18787   4.907   4.794   6.022 -0.2528  1.0115  0.5269
  167SAPE   HN118788   4.831   4.865   6.022  0.3965  1.7635 -1.2419
  167SAPE   HN218789   4.877   4.705   5.979  3.0146 -1.0732  2.1444
  167SAPE   HN318790   4.910   4.769   6.123  0.4910 -1.7856 -0.1144
  167SAPE   C1218791   5.039   4.841   5.961  0.6562 -0.3217  0.1668
  167SAPE  H12A18792   5.042   4.841   5.850  0.3753  0.0956  0.1543
  167SAPE  H12B18793   5.121   4.776   5.998  0.8451  0.1879  0.6600
  167SAPE   C1118794   5.049   4.990   5.997  0.2243  0.3742  0.6757
  167SAPE  H11A18795   5.152   5.024   5.973 -0.1192  2.4696  1.9066
  167SAPE  H11B18796   5.039   4.997   6.107  1.1481 -2.2105  0.9697
  167SAPE     P18797   4.951   5.213   5.951 -0.0161 -0.4599  0.2204
  167SAPE   O1318798   5.078   5.272   5.905 -0.0244  0.7619  0.6388
  167SAPE   O1418799   4.831   5.279   5.896  0.2914  0.1769  0.4230
  167SAPE   O1218800   4.952   5.058   5.920 -0.1976 -0.1412 -0.3738
  167SAPE   O1118801   4.940   5.225   6.112 -0.5373 -0.5179 -0.5529
  167SAPE    C118802   4.816   5.254   6.181  0.1698 -0.4799  0.0391
  167SAPE    HA18803   4.781   5.358   6.171 -0.3437 -0.6098  0.4767
  167SAPE    HB18804   4.731   5.203   6.130  0.0206 -0.0257 -0.1668
  167SAPE    C218805   4.815   5.224   6.336 -0.1006 -0.4048 -0.0612
  167SAPE    HS18806   4.789   5.315   6.393 -0.9023 -0.8466  0.3023
  167SAPE   O2118807   4.946   5.181   6.376 -0.2021  0.0423 -0.2771
  167SAPE   C2118808   5.044   5.265   6.380 -0.6070 -0.3109 -0.3372
  167SAPE   O2218809   5.027   5.388   6.367  0.6860 -0.0622  0.0787
  167SAPE   C2218810   5.180   5.193   6.398 -0.1585 -0.5619  0.0705
  167SAPE   H2R18811   5.162   5.085   6.414  0.9763 -0.8652 -0.6017
  167SAPE   H2S18812   5.234   5.203   6.302  0.5339 -1.8712  0.3031
  167SAPE    C318813   4.706   5.123   6.383 -0.5763 -0.5592 -0.1578
  167SAPE    HX18814   4.724   5.032   6.322  1.5269 -1.3448  1.5050
  167SAPE    HY18815   4.603   5.157   6.359 -1.3920 -2.2299  0.8609
  167SAPE   O3118816   4.723   5.086   6.515 -0.0794 -0.2826 -0.2126
  167SAPE   C3118817   4.652   5.157   6.598 -0.0302 -1.1695  0.1226
  167SAPE   O3218818   4.591   5.257   6.565  0.0171 -0.3111 -0.4758
  167SAPE   C3218819   4.652   5.097   6.736 -0.6563  0.5306 -0.0420
  167SAPE   H2X18820   4.757   5.064   6.752 -0.6269 -0.1598 -1.4801
  167SAPE   H2Y18821   4.589   5.005   6.738  2.2021 -1.5780  0.4597
  167SAPE   C2318822   5.263   5.267   6.507  0.1710  0.3319  0.5128
  167SAPE   H3R18823   5.200   5.263   6.598  0.0469 -1.1873  0.3804
  167SAPE   H3S18824   5.273   5.372   6.472 -1.9580 -0.0378 -1.4523
  167SAPE   C2418825   5.396   5.200   6.522 -0.1461  0.1880 -0.1856
  167SAPE   H4R18826   5.457   5.268   6.585  0.8616  0.4183 -1.3754
  167SAPE   H4S18827   5.448   5.193   6.424 -1.5406  1.5990 -1.0798
  167SAPE   C2518828   5.399   5.064   6.598 -0.2879  0.0867  0.2532
  167SAPE   H5R18829   5.306   5.011   6.575 -2.6899  4.3928 -1.2158
  167SAPE   C2618830   5.494   5.021   6.686 -0.3024  0.8441  0.1552
  167SAPE   H6R18831   5.489   4.916   6.719 -2.2766  1.3428  1.6788
  167SAPE   C2718832   5.620   5.096   6.729 -0.3758  0.6676  0.4010
  167SAPE   H7R18833   5.677   5.035   6.803  0.0215  1.7609  1.0289
  167SAPE   H7S18834   5.598   5.182   6.795  1.4179  0.7426  0.9686
  167SAPE   C2818835   5.714   5.136   6.621 -0.4666 -0.0158  0.1053
  167SAPE   H8R18836   5.665   5.187   6.537  1.5542  3.2341  0.7579
  167SAPE   C2918837   5.843   5.130   6.611 -0.3019 -0.7811 -0.8259
  167SAPE   H9R18838   5.893   5.153   6.516 -0.6723 -0.1391 -0.8738
  167SAPE  C21018839   5.941   5.083   6.713 -0.2336  0.3579 -0.0765
  167SAPE  H10R18840   5.896   5.020   6.793 -0.9515  3.2485  1.9664
  167SAPE  H10S18841   5.983   5.168   6.770  0.5972  0.9952 -1.6055
  167SAPE  C21118842   6.047   4.991   6.656 -0.0637 -0.7826  0.8325
  167SAPE  H11R18843   6.046   4.967   6.548 -0.5425 -1.1269  0.9108
  167SAPE  C21218844   6.155   4.943   6.719  0.0299 -0.2255 -0.0446
  167SAPE  H12R18845   6.218   4.869   6.667 -0.4260 -1.0007  0.4864
  167SAPE  C21318846   6.177   4.959   6.865 -0.8142 -0.9777 -0.3178
  167SAPE  H13R18847   6.195   4.864   6.920  0.6312 -0.0528  0.8980
  167SAPE  H13S18848   6.080   4.992   6.906 -0.6740  0.8503 -1.3642
  167SAPE  C21418849   6.301   5.047   6.886 -0.4825 -0.0363 -0.2912
  167SAPE  H14R18850   6.380   5.019   6.815 -0.4050  1.1367 -0.6732
  167SAPE  C21518851   6.326   5.141   6.977  0.3518  0.4033 -0.2727
  167SAPE  H15R18852   6.422   5.196   6.971  1.4958 -1.5652 -0.9990
  167SAPE  C21618853   6.228   5.190   7.084 -0.1311 -0.2736  0.2426
  167SAPE  H16R18854   6.125   5.150   7.066 -0.6570  1.4144 -0.7716
  167SAPE  H16S18855   6.213   5.300   7.080  0.1128 -0.2495 -0.0757
  167SAPE  C21718856   6.252   5.149   7.227 -0.0647 -0.0892  0.4564
  167SAPE  H17R18857   6.357   5.171   7.256  0.3955 -1.5659 -0.0236
  167SAPE  H17S18858   6.236   5.041   7.244 -1.4974 -0.1860 -1.1365
  167SAPE  C21818859   6.165   5.218   7.324  0.7049  0.1486  0.0816
  167SAPE  H18R18860   6.058   5.194   7.307  1.2014 -1.8764 -0.4071
  167SAPE  H18S18861   6.179   5.328   7.330  0.8335  0.0602  2.9146
  167SAPE  C21918862   6.202   5.172   7.464 -0.1583  1.1051 -0.8794
  167SAPE  H19R18863   6.306   5.208   7.483  0.8881 -1.5680 -1.0721
  167SAPE  H19S18864   6.194   5.063   7.482 -0.3276  1.4875  1.7542
  167SAPE  C22018865   6.114   5.222   7.565  1.0076 -0.8707  0.2628
  167SAPE  H20R18866   6.139   5.329   7.578  4.4509 -1.3728 -1.1256
  167SAPE  H20S18867   6.124   5.175   7.665  2.5225 -0.2327  0.4338
  167SAPE  H20T18868   6.007   5.206   7.539  1.6490 -0.8441 -2.7008
  167SAPE   C3318869   4.609   5.198   6.850 -0.0638 -0.3609 -0.4555
  167SAPE   H3X18870   4.505   5.234   6.837 -0.6789 -1.7319  0.4639
  167SAPE   H3Y18871   4.680   5.284   6.854 -1.2902  0.6443  0.3436
  167SAPE   C3418872   4.618   5.132   6.988 -0.5818  0.1679 -0.4121
  167SAPE   H4X18873   4.718   5.094   7.018 -0.8323 -1.5236 -1.5145
  167SAPE   H4Y18874   4.550   5.044   6.990  0.1892 -0.5534 -2.6704
  167SAPE   C3518875   4.576   5.239   7.089 -0.7697  1.0909 -0.1334
  167SAPE   H5X18876   4.491   5.299   7.052 -1.3420 -0.6405 -1.8142
  167SAPE   H5Y18877   4.661   5.308   7.105  0.7990 -1.1955  2.3084
  167SAPE   C3618878   4.548   5.193   7.229 -0.3602  0.1355  0.5550
  167SAPE   H6X18879   4.631   5.123   7.255  0.4045  1.1165  0.8170
  167SAPE   H6Y18880   4.455   5.132   7.223 -0.2216 -0.2051  1.6581
  167SAPE   C3718881   4.539   5.299   7.347  0.2968 -0.2730  0.9695
  167SAPE   H7X18882   4.491   5.396   7.321  0.2369 -0.8528 -1.3358
  167SAPE   H7Y18883   4.640   5.322   7.387 -0.5232 -0.5111  3.3443
  167SAPE   C3818884   4.478   5.241   7.469 -0.3961 -0.5117 -0.3503
  167SAPE   H8X18885   4.523   5.142   7.491  0.8805  0.2138  0.4994
  167SAPE   H8Y18886   4.369   5.234   7.451 -0.5441 -1.0253  0.6937
  167SAPE   C3918887   4.507   5.333   7.592  0.0412 -0.6850 -0.2865
  167SAPE   H9X18888   4.479   5.440   7.585 -0.4632 -0.7402  0.7937
  167SAPE   H9Y18889   4.614   5.326   7.621  0.1179  1.8990  0.2460
  167SAPE  C31018890   4.425   5.295   7.724 -0.0277  0.0025 -0.3135
  167SAPE  H10X18891   4.391   5.190   7.717 -1.6288  0.3355  1.4986
  167SAPE  H10Y18892   4.328   5.350   7.720 -0.1372 -0.2821 -2.3221
  167SAPE  C31118893   4.489   5.327   7.860 -0.2211 -0.7848  0.3141
  167SAPE  H11X18894   4.414   5.323   7.942 -0.4403  0.2987  0.1820
  167SAPE  H11Y18895   4.520   5.434   7.858 -2.3963 -0.1027 -2.4045
  167SAPE  C31218896   4.620   5.252   7.887 -0.1184  0.2433 -0.3967
  167SAPE  H12X18897   4.692   5.274   7.805 -1.1534  1.7821 -0.9374
  167SAPE  H12Y18898   4.602   5.143   7.881 -1.1893  0.2669  1.6400
  167SAPE  C31318899   4.692   5.285   8.022  0.0217 -0.2298  0.1329
  167SAPE  H13X18900   4.734   5.387   8.015 -2.3825  0.9219  1.0899
  167SAPE  H13Y18901   4.768   5.205   8.026 -0.8063 -1.0267  0.2689
  167SAPE  C31418902   4.604   5.285   8.149 -0.9494 -0.2790 -0.3186
  167SAPE  H14X18903   4.511   5.227   8.131  0.2491 -2.0501 -1.0779
  167SAPE  H14Y18904   4.575   5.390   8.175  0.1770  0.1380 -0.6931
  167SAPE  C31518905   4.676   5.217   8.262  0.2231  1.0156 -0.8288
  167SAPE  H15X18906   4.710   5.120   8.221 -3.1556  0.8250 -3.6599
  167SAPE  H15Y18907   4.613   5.214   8.353 -0.1221  3.4387 -0.9175
  167SAPE  C31618908   4.803   5.297   8.310  0.3607  0.4202 -0.3023
  167SAPE  H16X18909   4.875   5.313   8.227  0.5705  0.5012 -0.1063
  167SAPE  H16Y18910   4.850   5.228   8.383  0.4524  0.7750 -0.0275
  167SAPE  C31718911   4.779   5.434   8.368  0.2067  0.8091 -0.7843
  167SAPE  H17X18912   4.724   5.492   8.290 -0.7282  1.1764  0.1246
  167SAPE  H17Y18913   4.874   5.492   8.375  0.3589  0.6672 -1.5958
  167SAPE  C31818914   4.707   5.421   8.504  0.0242 -0.6956 -0.0097
  167SAPE  H18X18915   4.712   5.524   8.544 -0.9395  0.3144 -2.3497
  167SAPE  H18Y18916   4.761   5.354   8.574 -2.6753 -2.4131  0.5882
  167SAPE  H18Z18917   4.603   5.385   8.488 -1.0489  1.6229  1.3926
  168SAPE     N18918   0.841   0.528   5.935 -0.4768  0.0233 -0.0243
  168SAPE   HN118919   0.798   0.446   5.983 -0.9998  0.6958  0.6795
  168SAPE   HN218920   0.807   0.609   5.990 -2.5684 -1.8606  1.6180
  168SAPE   HN318921   0.795   0.533   5.842  0.6644 -1.7593 -0.7345
  168SAPE   C1218922   0.988   0.508   5.934 -0.7901 -0.4725  0.7300
  168SAPE  H12A18923   1.039   0.570   5.858  0.6718  0.9157  2.7424
  168SAPE  H12B18924   1.015   0.405   5.903 -0.4894 -0.2092  0.1022
  168SAPE   C1118925   1.046   0.543   6.074 -0.7230 -0.1666  0.9052
  168SAPE  H11A18926   1.150   0.504   6.081 -0.5715  0.1555  0.4914
  168SAPE  H11B18927   0.987   0.485   6.149 -2.0644  1.3654  1.0818
  168SAPE     P18928   1.146   0.786   6.071 -0.1375  0.0674  0.1189
  168SAPE   O1318929   1.264   0.721   6.008  0.2156 -0.2031 -0.1839
  168SAPE   O1418930   1.075   0.896   5.999 -0.0036 -0.3937  0.6121
  168SAPE   O1218931   1.039   0.678   6.111 -0.4870  0.0788  0.5885
  168SAPE   O1118932   1.188   0.841   6.217  0.2915 -0.3392  0.6288
  168SAPE    C118933   1.320   0.824   6.266 -0.9599  0.4720 -0.1816
  168SAPE    HA18934   1.407   0.829   6.198  1.8385  0.6512  3.1394
  168SAPE    HB18935   1.339   0.900   6.345 -0.1374  0.4657 -0.3696
  168SAPE    C218936   1.316   0.688   6.338 -0.1827  0.7182 -0.9924
  168SAPE    HS18937   1.283   0.616   6.261  1.4031  1.0106 -2.0031
  168SAPE   O2118938   1.228   0.705   6.457  0.2019  0.1531 -0.1660
  168SAPE   C2118939   1.149   0.602   6.487  0.5509 -0.9074  0.2183
  168SAPE   O2218940   1.146   0.504   6.415 -0.0003  0.4433  0.0325
  168SAPE   C2218941   1.061   0.639   6.609 -0.5951  0.7353  0.6008
  168SAPE   H2R18942   1.125   0.629   6.699  0.0581 -0.0632  0.0524
  168SAPE   H2S18943   1.014   0.739   6.597  1.2406  1.4705 -0.8741
  168SAPE    C318944   1.456   0.642   6.385  0.2044  0.5876  0.4254
  168SAPE    HX18945   1.521   0.631   6.295 -0.7015 -1.5108 -0.0361
  168SAPE    HY18946   1.446   0.541   6.431 -2.6387  0.1616 -0.8921
  168SAPE   O3118947   1.510   0.740   6.474  0.0306  0.6124  0.2636
  168SAPE   C3118948   1.595   0.697   6.560  0.0725 -0.1533 -0.5391
  168SAPE   O3218949   1.629   0.582   6.577 -0.0839 -0.0756 -0.3631
  168SAPE   C3218950   1.639   0.823   6.650 -0.3183 -0.6588 -0.1563
  168SAPE   H2X18951   1.574   0.910   6.633  0.9304  0.7573  1.8905
  168SAPE   H2Y18952   1.738   0.844   6.604  1.6054 -2.9596  2.5504
  168SAPE   C2318953   0.947   0.533   6.638  0.2502  0.0667  0.1483
  168SAPE   H3R18954   0.996   0.433   6.630  0.1794  0.0936 -0.6556
  168SAPE   H3S18955   0.873   0.541   6.555  1.7492  2.0709 -1.0763
  168SAPE   C2418956   0.890   0.556   6.782 -0.4844  0.0631  0.6199
  168SAPE   H4R18957   0.832   0.651   6.788 -0.4684  0.0163  1.5947
  168SAPE   H4S18958   0.981   0.566   6.845 -0.4660 -0.7500  0.7258
  168SAPE   C2518959   0.805   0.439   6.827 -0.3533 -0.5168  0.1466
  168SAPE   H5R18960   0.705   0.435   6.781 -0.2030  2.8292 -0.7611
  168SAPE   C2618961   0.837   0.345   6.907 -0.3566 -0.1978 -0.1783
  168SAPE   H6R18962   0.765   0.264   6.925 -0.8394  0.0734 -0.8585
  168SAPE   C2718963   0.961   0.330   6.984  0.1890 -0.1269 -0.2256
  168SAPE   H7R18964   0.955   0.321   7.094 -0.9411  0.1700 -0.2425
  168SAPE   H7S18965   1.027   0.418   6.971 -1.0835  0.8391 -0.4285
  168SAPE   C2818966   1.029   0.205   6.942  0.1706  0.4641  0.7003
  168SAPE   H8R18967   1.020   0.172   6.838 -0.7596 -2.6206  1.6559
  168SAPE   C2918968   1.096   0.127   7.025  0.3197  0.0939 -0.5283
  168SAPE   H9R18969   1.155   0.048   6.977 -0.1064  0.1177 -1.1037
  168SAPE  C21018970   1.125   0.161   7.167  0.0161 -0.7710 -0.0841
  168SAPE  H10R18971   1.032   0.188   7.222  0.7958  0.8713  0.4670
  168SAPE  H10S18972   1.191   0.250   7.158  0.1370 -1.0326 -2.5882
  168SAPE  C21118973   1.198   0.051   7.231  0.4174  0.3036  0.2634
  168SAPE  H11R18974   1.299   0.032   7.192 -1.0395 -0.0260 -3.8304
  168SAPE  C21218975   1.145  -0.036   7.321 -0.4479 -0.4430 -0.5140
  168SAPE  H12R18976   1.218  -0.114   7.348  1.0685  0.5340 -1.6544
  168SAPE  C21318977   1.005  -0.028   7.385 -0.2497 -0.1430 -0.4163
  168SAPE  H13R18978   0.925  -0.003   7.312 -1.3952 -1.7481  0.2154
  168SAPE  H13S18979   1.019   0.066   7.443 -1.9240  0.8941 -1.6218
  168SAPE  C21418980   0.971  -0.160   7.455 -0.3966 -0.2203 -0.4665
  168SAPE  H14R18981   0.920  -0.228   7.385 -2.1056 -0.8825  1.3257
  168SAPE  C21518982   0.980  -0.195   7.588  0.2809 -0.9555  0.0554
  168SAPE  H15R18983   0.972  -0.302   7.615  0.1919 -0.7703  0.7869
  168SAPE  C21618984   1.037  -0.101   7.699 -0.4219  0.1289  0.0783
  168SAPE  H16R18985   1.096  -0.011   7.669 -1.9031  0.9489 -0.4818
  168SAPE  H16S18986   1.117  -0.150   7.759  0.6469  1.0410 -0.5793
  168SAPE  C21718987   0.923  -0.051   7.786 -0.1106  1.4320 -0.9583
  168SAPE  H17R18988   0.849  -0.131   7.810 -0.0094  1.1117 -1.7128
  168SAPE  H17S18989   0.868   0.021   7.722  0.5440  1.1459 -1.8639
  168SAPE  C21818990   0.979   0.025   7.914  0.0996 -0.1146  0.1088
  168SAPE  H18R18991   1.050   0.102   7.877 -0.9352  0.9307  0.2162
  168SAPE  H18S18992   1.024  -0.050   7.982 -3.0623 -0.6723  1.8095
  168SAPE  C21918993   0.866   0.090   7.997  0.6997 -0.5977  0.1251
  168SAPE  H19R18994   0.766   0.043   7.990 -0.2544  1.3089  0.5171
  168SAPE  H19S18995   0.850   0.189   7.951  2.4018  0.6318  2.0009
  168SAPE  C22018996   0.905   0.088   8.147  0.7967  0.0793 -0.4741
  168SAPE  H20R18997   0.981   0.167   8.166 -0.3619  1.8709 -2.7422
  168SAPE  H20S18998   0.925  -0.009   8.195 -2.4266  0.2258  1.4431
  168SAPE  H20T18999   0.817   0.127   8.203  1.2064 -1.0189  0.9947
  168SAPE   C3319000   1.652   0.788   6.797  0.1754 -0.9266 -0.1297
  168SAPE   H3X19001   1.734   0.713   6.797  2.4522  1.4122 -0.9047
  168SAPE   H3Y19002   1.550   0.757   6.829 -0.2288  0.4543 -0.0126
  168SAPE   C3419003   1.698   0.889   6.906  0.0932  0.3974  0.1546
  168SAPE   H4X19004   1.627   0.974   6.910  1.0376  1.2071 -0.1541
  168SAPE   H4Y19005   1.804   0.913   6.883  0.4142 -0.4362  0.7012
  168SAPE   C3519006   1.708   0.831   7.053 -0.3764 -0.3007  1.0987
  168SAPE   H5X19007   1.746   0.728   7.042 -3.5076 -1.4439 -0.2048
  168SAPE   H5Y19008   1.606   0.818   7.093 -0.5149 -1.3087  0.4367
  168SAPE   C3619009   1.805   0.910   7.137  0.5308  0.1587  0.8566
  168SAPE   H6X19010   1.768   1.014   7.152  0.4801  0.9092 -3.2312
  168SAPE   H6Y19011   1.906   0.920   7.093  0.8728  1.0596  1.8122
  168SAPE   C3719012   1.820   0.840   7.279 -0.1755 -0.2207  0.4024
  168SAPE   H7X19013   1.873   0.742   7.273 -0.6480 -0.4818  0.5052
  168SAPE   H7Y19014   1.717   0.811   7.307 -0.8855  0.6275 -1.2219
  168SAPE   C3819015   1.877   0.937   7.373 -0.0839 -0.2949 -0.5347
  168SAPE   H8X19016   1.863   1.041   7.337  1.7620  1.2291  2.6817
  168SAPE   H8Y19017   1.987   0.924   7.382  0.0323  1.6818  1.9294
  168SAPE   C3919018   1.822   0.922   7.513 -0.6281 -0.3636  0.4168
  168SAPE   H9X19019   1.851   0.819   7.545  0.4712 -0.5608 -1.0895
  168SAPE   H9Y19020   1.711   0.916   7.515 -0.7359 -0.6560 -2.3822
  168SAPE  C31019021   1.864   1.024   7.614  0.1484  0.4331 -0.4406
  168SAPE  H10X19022   1.814   1.119   7.584 -0.3253  1.1412  2.3086
  168SAPE  H10Y19023   1.972   1.036   7.591  0.2619  2.4956  0.8674
  168SAPE  C31119024   1.829   0.983   7.761 -0.2876  0.2102 -0.3376
  168SAPE  H11X19025   1.741   0.920   7.786 -2.3140  1.5962 -3.2862
  168SAPE  H11Y19026   1.809   1.076   7.819  1.3833  1.8408 -2.1950
  168SAPE  C31219027   1.952   0.928   7.840 -0.0951 -1.1675 -0.2231
  168SAPE  H12X19028   2.038   0.918   7.770  1.3907 -1.7006  1.5789
  168SAPE  H12Y19029   1.930   0.827   7.881 -0.7235 -0.4351  1.3333
  168SAPE  C31319030   1.996   1.020   7.955  0.5708  0.0673  0.5539
  168SAPE  H13X19031   1.909   1.039   8.021 -1.3007  0.0789 -1.8013
  168SAPE  H13Y19032   2.024   1.117   7.908  1.0350 -0.5874 -0.5723
  168SAPE  C31419033   2.129   0.978   8.017 -0.0495 -0.8210  0.0443
  168SAPE  H14X19034   2.190   1.056   8.067 -0.2944 -1.9082  2.1493
  168SAPE  H14Y19035   2.191   0.928   7.939 -0.7574 -0.9249 -0.4553
  168SAPE  C31519036   2.108   0.867   8.114 -0.0939  0.6551 -0.2199
  168SAPE  H15X19037   2.065   0.773   8.073  1.2760 -0.0782 -0.0195
  168SAPE  H15Y19038   2.043   0.900   8.198 -2.1370  1.9245 -2.1635
  168SAPE  C31619039   2.238   0.810   8.185  0.1339 -0.2280 -0.2597
  168SAPE  H16X19040   2.289   0.884   8.251  0.4331 -0.1598 -0.5675
  168SAPE  H16Y19041   2.315   0.793   8.106  1.1074 -0.5653  0.7262
  168SAPE  C31719042   2.228   0.673   8.251 -0.1158 -0.5589 -0.2778
  168SAPE  H17X19043   2.210   0.598   8.170  2.7069 -0.2841 -1.3073
  168SAPE  H17Y19044   2.147   0.673   8.326 -2.2459  0.8390 -2.4567
  168SAPE  C31819045   2.360   0.625   8.325  0.2869 -0.0886  0.7185
  168SAPE  H18X19046   2.339   0.519   8.353 -2.4144  0.0638 -0.4125
  168SAPE  H18Y19047   2.374   0.681   8.419  1.3634  0.4033  0.2866
  168SAPE  H18Z19048   2.448   0.627   8.256  0.3015 -1.6062  0.6562
  169SAPE     N19049   6.241   6.258   6.549 -0.0798  0.0292  0.0950
  169SAPE   HN119050   6.215   6.358   6.555  1.2871  0.9136 -4.4564
  169SAPE   HN219051   6.247   6.217   6.644 -0.4760  1.1970  0.6338
  169SAPE   HN319052   6.337   6.261   6.509 -0.6061  1.7726 -1.1427
  169SAPE   C1219053   6.142   6.182   6.460  0.6350  0.1117 -0.5934
  169SAPE  H12A19054   6.051   6.173   6.523  0.3274 -1.6410 -1.2499
  169SAPE  H12B19055   6.187   6.083   6.438 -0.5003 -0.7242  0.7010
  169SAPE   C1119056   6.119   6.258   6.331  0.0074 -0.3903  0.3117
  169SAPE  H11A19057   6.041   6.212   6.267 -0.2459  0.9555 -0.3646
  169SAPE  H11B19058   6.206   6.238   6.265  1.2162  0.6209  1.5383
  169SAPE     P19059   5.961   6.468   6.323  0.2547 -0.4160  0.0725
  169SAPE   O1319060   5.965   6.611   6.358 -0.5311 -0.8282  0.2364
  169SAPE   O1419061   5.917   6.430   6.186 -0.2236  0.5062  0.4644
  169SAPE   O1219062   6.096   6.397   6.351  0.0801  0.0592 -0.2683
  169SAPE   O1119063   5.859   6.391   6.417 -0.2020 -0.1451 -0.0201
  169SAPE    C119064   5.739   6.454   6.452  0.4409  0.2773 -0.1166
  169SAPE    HA19065   5.769   6.549   6.500  1.9368  0.8500 -2.0639
  169SAPE    HB19066   5.679   6.488   6.365  0.4455 -1.2490 -0.7493
  169SAPE    C219067   5.660   6.369   6.555  0.4571  0.3207  0.3665
  169SAPE    HS19068   5.574   6.316   6.508  1.0500 -1.0123  0.7338
  169SAPE   O2119069   5.618   6.460   6.660  0.1477 -0.2807 -0.3770
  169SAPE   C2119070   5.510   6.532   6.630 -0.4152 -0.1972 -0.4855
  169SAPE   O2219071   5.449   6.526   6.522  0.2546 -0.0384 -0.0809
  169SAPE   C2219072   5.459   6.607   6.755  0.1176  0.3836  0.3184
  169SAPE   H2R19073   5.546   6.652   6.808  0.0019  1.6472 -0.5124
  169SAPE   H2S19074   5.388   6.687   6.726  1.8449  1.1099 -2.3234
  169SAPE    C319075   5.737   6.249   6.618  0.0542  0.1038 -0.2365
  169SAPE    HX19076   5.834   6.296   6.645  0.8597 -1.8773  0.5130
  169SAPE    HY19077   5.750   6.162   6.549 -3.2586 -0.7153  0.0227
  169SAPE   O3119078   5.679   6.202   6.738 -0.1292 -0.0730 -0.7382
  169SAPE   C3119079   5.766   6.116   6.804 -0.6718 -0.2838  0.4425
  169SAPE   O3219080   5.875   6.079   6.766 -0.7780 -0.3631 -0.2480
  169SAPE   C3219081   5.697   6.060   6.935 -0.2530  0.0976  0.2088
  169SAPE   H2X19082   5.658   5.961   6.903  1.1753 -0.8509  1.2946
  169SAPE   H2Y19083   5.616   6.136   6.945 -1.8550 -1.6666  1.3324
  169SAPE   C2319084   5.411   6.502   6.864 -0.1184  0.1954  0.1928
  169SAPE   H3R19085   5.493   6.429   6.877 -0.2941  0.1025  0.8377
  169SAPE   H3S19086   5.326   6.451   6.813  0.5033 -0.8643  0.1841
  169SAPE   C2419087   5.356   6.568   6.991  0.4865  0.4238 -0.1039
  169SAPE   H4R19088   5.314   6.485   7.052 -1.5709  2.4883  1.5313
  169SAPE   H4S19089   5.267   6.626   6.956  0.1406 -0.7317 -1.1831
  169SAPE   C2519090   5.452   6.649   7.082  0.3053 -0.4346  0.5482
  169SAPE   H5R19091   5.517   6.717   7.023 -0.8537 -1.4898 -2.0891
  169SAPE   C2619092   5.470   6.636   7.216 -0.1445 -0.0919 -0.8319
  169SAPE   H6R19093   5.557   6.683   7.264 -0.6408 -0.8808  0.9291
  169SAPE   C2719094   5.399   6.539   7.304  1.0026  0.3794 -0.1775
  169SAPE   H7R19095   5.447   6.530   7.403  0.1984 -1.1450  0.0988
  169SAPE   H7S19096   5.411   6.447   7.243  0.0061  0.6222 -0.7796
  169SAPE   C2819097   5.247   6.565   7.315 -0.6563 -0.2511  0.1659
  169SAPE   H8R19098   5.188   6.514   7.238 -0.0607 -0.6075 -0.0579
  169SAPE   C2919099   5.185   6.637   7.409 -0.1175 -0.2148  0.2272
  169SAPE   H9R19100   5.080   6.667   7.390 -0.2400 -0.2196  0.8802
  169SAPE  C21019101   5.251   6.694   7.531 -0.6121 -0.3433  0.0451
  169SAPE  H10R19102   5.237   6.804   7.532  4.0692  0.4870 -1.0375
  169SAPE  H10S19103   5.362   6.684   7.527 -0.6247 -0.0839 -1.3634
  169SAPE  C21119104   5.200   6.616   7.656 -0.4991 -0.2820 -0.1025
  169SAPE  H11R19105   5.117   6.545   7.644 -1.2230 -0.0413  2.7386
  169SAPE  C21219106   5.249   6.655   7.778 -0.0946  0.2971  1.0412
  169SAPE  H12R19107   5.227   6.587   7.861 -0.0879  0.0606  0.8525
  169SAPE  C21319108   5.348   6.758   7.809  0.0690  0.1428  0.1109
  169SAPE  H13R19109   5.301   6.821   7.888  0.4704  2.1482 -1.1751
  169SAPE  H13S19110   5.358   6.828   7.724 -0.9394 -0.8809 -0.8831
  169SAPE  C21419111   5.477   6.686   7.851  0.1031 -0.3056  0.4823
  169SAPE  H14R19112   5.511   6.614   7.775  0.5331  0.7327 -0.3414
  169SAPE  C21519113   5.551   6.688   7.964 -0.2400  0.1159  0.4191
  169SAPE  H15R19114   5.650   6.640   7.958  0.7005  2.0436 -4.1848
  169SAPE  C21619115   5.517   6.778   8.077  0.4894  0.4847 -0.3047
  169SAPE  H16R19116   5.454   6.862   8.040 -1.7550  0.0853  2.2732
  169SAPE  H16S19117   5.609   6.813   8.127 -0.3735 -0.6675  2.3016
  169SAPE  C21719118   5.426   6.705   8.180 -0.5587  0.1304 -0.2417
  169SAPE  H17R19119   5.347   6.647   8.128 -0.6706 -1.3924  1.5376
  169SAPE  H17S19120   5.380   6.781   8.247  1.5382  3.0425 -1.8652
  169SAPE  C21819121   5.514   6.597   8.259  0.2157  0.4024 -0.4640
  169SAPE  H18R19122   5.621   6.623   8.269  0.5562 -0.4663 -1.6071
  169SAPE  H18S19123   5.508   6.505   8.196 -1.0882 -1.1988  1.8688
  169SAPE  C21919124   5.447   6.557   8.392  0.3790 -0.2322 -0.2962
  169SAPE  H19R19125   5.461   6.639   8.466 -2.4959  2.6623 -2.6677
  169SAPE  H19S19126   5.494   6.467   8.437 -2.0043 -1.0951  0.6290
  169SAPE  C22019127   5.292   6.530   8.387 -0.2869  0.0804 -0.6365
  169SAPE  H20R19128   5.244   6.630   8.385  0.4301  0.4234 -1.6832
  169SAPE  H20S19129   5.269   6.470   8.478  0.2950 -2.2472 -1.9278
  169SAPE  H20T19130   5.264   6.471   8.297  1.3031 -0.3231 -0.9020
  169SAPE   C3319131   5.773   6.051   7.069  0.0375  0.2569  0.3758
  169SAPE   H3X19132   5.837   6.141   7.067 -0.8937  0.9606  1.2304
  169SAPE   H3Y19133   5.847   5.969   7.060 -1.0291 -0.7000  0.0407
  169SAPE   C3419134   5.698   6.044   7.209 -0.6133  0.3001  0.1139
  169SAPE   H4X19135   5.661   5.940   7.216  0.7456 -0.2770 -0.8206
  169SAPE   H4Y19136   5.619   6.122   7.217 -2.8380 -1.4452 -2.8307
  169SAPE   C3519137   5.794   6.069   7.327 -1.0003 -0.1077  0.5358
  169SAPE   H5X19138   5.837   6.168   7.301 -2.9645  0.8758  0.7989
  169SAPE   H5Y19139   5.870   5.988   7.326 -0.6529  0.2120 -0.4822
  169SAPE   C3619140   5.731   6.087   7.462  0.2062 -0.2466  0.4533
  169SAPE   H6X19141   5.652   6.163   7.441 -1.9075 -1.9610  1.8236
  169SAPE   H6Y19142   5.804   6.127   7.536  0.5556 -1.9941  1.0828
  169SAPE   C3719143   5.653   5.963   7.513  0.2210  0.1422  0.0982
  169SAPE   H7X19144   5.707   5.872   7.481 -3.2852 -1.7331 -1.0570
  169SAPE   H7Y19145   5.556   5.951   7.460  0.7588 -0.8258 -0.7068
  169SAPE   C3819146   5.612   5.969   7.658  0.5004  0.6841  0.0986
  169SAPE   H8X19147   5.527   5.900   7.679  1.0089 -0.3464 -1.1633
  169SAPE   H8Y19148   5.588   6.075   7.680 -1.1750  0.4224 -0.2673
  169SAPE   C3919149   5.735   5.929   7.746  0.0962 -0.3922 -0.1739
  169SAPE   H9X19150   5.814   6.006   7.733  0.7098 -1.0541 -0.5175
  169SAPE   H9Y19151   5.769   5.837   7.693 -1.6612  0.3106 -2.7000
  169SAPE  C31019152   5.701   5.909   7.894 -0.5861 -1.2108 -0.0803
  169SAPE  H10X19153   5.619   5.834   7.889 -2.6548  0.8977  0.1358
  169SAPE  H10Y19154   5.661   6.004   7.937 -0.2644 -0.7805 -0.7191
  169SAPE  C31119155   5.818   5.873   7.977 -0.0758  0.2893  0.2759
  169SAPE  H11X19156   5.887   5.959   7.989 -0.6333  1.1749 -2.2899
  169SAPE  H11Y19157   5.883   5.803   7.920 -0.2314  1.9556 -2.0752
  169SAPE  C31219158   5.772   5.831   8.117  0.3352  0.7001 -0.0825
  169SAPE  H12X19159   5.687   5.898   8.144  0.2850  0.7935 -0.4573
  169SAPE  H12Y19160   5.857   5.846   8.186  0.6825  1.1274 -0.5993
  169SAPE  C31319161   5.719   5.682   8.121 -0.3141  0.4239 -0.3936
  169SAPE  H13X19162   5.797   5.606   8.101  0.1323  0.2734  1.6740
  169SAPE  H13Y19163   5.650   5.675   8.034  0.3415  0.5654 -0.9340
  169SAPE  C31419164   5.645   5.642   8.253  0.2665  0.5990  0.1055
  169SAPE  H14X19165   5.730   5.626   8.323 -0.5095 -0.2961  0.8811
  169SAPE  H14Y19166   5.604   5.540   8.233 -0.7151  0.9771  0.1577
  169SAPE  C31519167   5.540   5.742   8.301 -0.0324 -0.0158 -0.4822
  169SAPE  H15X19168   5.488   5.793   8.217 -0.9930  2.1359  1.3086
  169SAPE  H15Y19169   5.589   5.820   8.362  2.0513 -1.8147  0.2733
  169SAPE  C31619170   5.438   5.677   8.399 -0.4564  0.4547 -0.5763
  169SAPE  H16X19171   5.361   5.753   8.424 -1.3045  0.1218 -2.0062
  169SAPE  H16Y19172   5.484   5.631   8.488  0.7076  0.0175 -1.3809
  169SAPE  C31719173   5.368   5.555   8.333  0.0444 -0.1174 -0.0847
  169SAPE  H17X19174   5.421   5.457   8.330  0.2843 -0.1765  2.8594
  169SAPE  H17Y19175   5.358   5.580   8.225 -2.0451 -2.2019 -0.4489
  169SAPE  C31819176   5.231   5.532   8.395 -0.0941 -0.3428  0.3068
  169SAPE  H18X19177   5.235   5.525   8.506  1.1774  1.0926  0.3925
  169SAPE  H18Y19178   5.165   5.456   8.348 -0.1248 -0.3915  0.4292
  169SAPE  H18Z19179   5.176   5.628   8.390 -0.0704 -0.3602 -0.3220
  170SAPE     N19180   6.212   3.443   5.821 -0.3697  0.8596 -0.0409
  170SAPE   HN119181   6.233   3.492   5.911 -0.9446  0.2538  0.4309
  170SAPE   HN219182   6.190   3.521   5.756 -0.7304  0.5668 -0.2646
  170SAPE   HN319183   6.123   3.396   5.847  0.5661 -1.2910 -0.5124
  170SAPE   C1219184   6.326   3.346   5.806 -0.1083 -0.6965  0.3965
  170SAPE  H12A19185   6.401   3.391   5.737  1.4522 -1.4756  1.5280
  170SAPE  H12B19186   6.281   3.255   5.761 -0.5796 -0.8887  1.2359
  170SAPE   C1119187   6.394   3.320   5.944 -0.6967  0.4842  0.9369
  170SAPE  H11A19188   6.420   3.420   5.984 -1.2822  1.1410 -0.2724
  170SAPE  H11B19189   6.491   3.271   5.923 -0.2712  2.1333 -1.2953
  170SAPE     P19190   6.332   3.096   6.068 -0.4794  0.0543 -0.2357
  170SAPE   O1319191   6.225   3.050   6.157 -0.6657  0.4211  0.0915
  170SAPE   O1419192   6.359   3.024   5.945  0.6008  0.6336  0.4186
  170SAPE   O1219193   6.314   3.248   6.034 -0.4829  0.2857 -0.0537
  170SAPE   O1119194   6.462   3.097   6.154  0.3760  0.0106 -0.3928
  170SAPE    C119195   6.513   3.196   6.237 -0.0288 -0.4474 -0.0312
  170SAPE    HA19196   6.612   3.227   6.196  0.6375 -0.3769  1.5723
  170SAPE    HB19197   6.447   3.284   6.250 -1.1658 -1.4620  1.3708
  170SAPE    C219198   6.538   3.136   6.380 -0.4921 -0.2005  0.2805
  170SAPE    HS19199   6.585   3.216   6.442 -0.8518  0.6084 -0.4718
  170SAPE   O2119200   6.608   3.012   6.381 -0.0202 -0.7030  0.3069
  170SAPE   C2119201   6.730   3.025   6.354 -0.4317  0.4971  0.3152
  170SAPE   O2219202   6.786   3.128   6.319 -0.3679 -0.0321 -0.6293
  170SAPE   C2219203   6.802   2.884   6.379  0.1619  0.5173  0.1922
  170SAPE   H2R19204   6.763   2.838   6.472 -1.8369  0.9697 -0.3748
  170SAPE   H2S19205   6.766   2.827   6.291  1.1760 -0.7995  0.6124
  170SAPE    C319206   6.401   3.125   6.453  0.2913 -0.2577  0.5589
  170SAPE    HX19207   6.332   3.068   6.387 -0.5184  1.6435 -0.3362
  170SAPE    HY19208   6.350   3.224   6.464 -3.0725 -1.6081 -1.2281
  170SAPE   O3119209   6.417   3.057   6.576  0.4721  0.3668 -0.0979
  170SAPE   C3119210   6.455   3.121   6.679  0.0114  0.0281 -0.0203
  170SAPE   O3219211   6.495   3.240   6.680  0.4417  0.7564  0.1786
  170SAPE   C3219212   6.436   3.040   6.804  0.4080  0.3184  0.2276
  170SAPE   H2X19213   6.495   2.947   6.787  0.9806  0.7761 -0.3120
  170SAPE   H2Y19214   6.329   3.015   6.817 -0.6302  3.0184 -2.1949
  170SAPE   C2319215   6.957   2.895   6.365  0.2158  0.3934  0.7650
  170SAPE   H3R19216   6.979   2.950   6.271  2.2092 -1.1434  0.2654
  170SAPE   H3S19217   7.011   2.798   6.358  0.8624  0.8618 -1.2775
  170SAPE   C2419218   7.019   2.979   6.484  0.2130 -0.3847  0.2806
  170SAPE   H4R19219   6.949   3.059   6.517  1.8736  0.9447  0.7548
  170SAPE   H4S19220   7.111   3.028   6.446  0.8958 -0.8212  1.3386
  170SAPE   C2519221   7.042   2.886   6.599  0.0672  0.0350  0.3290
  170SAPE   H5R19222   7.125   2.816   6.579  1.7955  1.8985  0.6936
  170SAPE   C2619223   6.964   2.872   6.711  0.5815  0.0581 -0.2415
  170SAPE   H6R19224   6.995   2.794   6.783 -2.3695  0.4175  1.6009
  170SAPE   C2719225   6.833   2.939   6.747  0.2717 -0.5816  0.2114
  170SAPE   H7R19226   6.778   2.967   6.655 -0.1483 -0.6927  0.4230
  170SAPE   H7S19227   6.863   3.032   6.801  2.1482 -1.9845  1.7429
  170SAPE   C2819228   6.754   2.848   6.841  0.2408  0.1538 -0.4892
  170SAPE   H8R19229   6.708   2.763   6.787 -0.8480  1.0701 -1.0527
  170SAPE   C2919230   6.757   2.837   6.973 -0.2474  0.1380  0.2878
  170SAPE   H9R19231   6.683   2.776   7.025  0.3172 -0.2947  0.5947
  170SAPE  C21019232   6.841   2.923   7.062 -0.3049 -0.7081 -0.5052
  170SAPE  H10R19233   6.775   3.005   7.098  0.3911 -1.2625  2.2883
  170SAPE  H10S19234   6.939   2.961   7.025 -0.7321 -0.2217 -1.1533
  170SAPE  C21119235   6.898   2.847   7.180  0.1230 -0.0966  0.2147
  170SAPE  H11R19236   6.979   2.778   7.151 -0.3295 -0.1869 -0.8631
  170SAPE  C21219237   6.867   2.850   7.308 -0.1643  0.0191 -0.0032
  170SAPE  H12R19238   6.933   2.788   7.371 -0.1502  1.3977  1.3806
  170SAPE  C21319239   6.769   2.935   7.373 -0.3742 -1.1000  0.1149
  170SAPE  H13R19240   6.689   2.879   7.427 -0.7260  0.1749  0.9605
  170SAPE  H13S19241   6.709   2.999   7.305  1.0451 -1.0415 -1.1319
  170SAPE  C21419242   6.843   3.021   7.469 -0.0830  0.3680 -0.2737
  170SAPE  H14R19243   6.908   3.102   7.434 -1.7801  1.7286 -0.3958
  170SAPE  C21519244   6.846   3.001   7.604 -0.5111  0.8495  0.2077
  170SAPE  H15R19245   6.898   3.077   7.663  2.2133  0.0604 -0.9813
  170SAPE  C21619246   6.777   2.891   7.688  0.4367 -1.0286  0.0969
  170SAPE  H16R19247   6.850   2.861   7.766  3.1980  1.1446 -1.4533
  170SAPE  H16S19248   6.744   2.806   7.625 -2.0921  0.7885 -1.2096
  170SAPE  C21719249   6.649   2.945   7.745 -0.5642 -0.2224  0.0196
  170SAPE  H17R19250   6.599   2.865   7.804 -0.0937 -1.1191 -0.7576
  170SAPE  H17S19251   6.579   2.985   7.669 -0.0410  0.4596 -0.1084
  170SAPE  C21819252   6.665   3.047   7.856  0.2693 -0.7080  0.5561
  170SAPE  H18R19253   6.688   3.145   7.810 -2.0984  0.7053  2.1604
  170SAPE  H18S19254   6.747   3.012   7.922  0.5653  0.7232  0.9771
  170SAPE  C21919255   6.533   3.058   7.927 -0.3582 -0.2258 -0.2052
  170SAPE  H19R19256   6.500   2.983   8.003 -0.0311 -0.6050 -0.4340
  170SAPE  H19S19257   6.456   3.047   7.849 -1.1663  0.8055  0.4136
  170SAPE  C22019258   6.503   3.203   7.975  0.1985 -0.5060 -0.1643
  170SAPE  H20R19259   6.503   3.275   7.890 -0.0345 -0.7965 -0.4117
  170SAPE  H20S19260   6.571   3.233   8.057 -1.2206  0.2318  0.7880
  170SAPE  H20T19261   6.398   3.216   8.010  0.7156  0.2660  1.1399
  170SAPE   C3319262   6.475   3.119   6.933  0.8362  0.0582  0.6898
  170SAPE   H3X19263   6.432   3.219   6.913 -0.0265 -0.2053  1.1713
  170SAPE   H3Y19264   6.586   3.121   6.935  0.9477 -0.5832 -1.9203
  170SAPE   C3419265   6.419   3.064   7.061 -0.2934 -0.2020 -1.5583
  170SAPE   H4X19266   6.466   2.966   7.085  0.4353  0.5259  0.1806
  170SAPE   H4Y19267   6.310   3.045   7.068 -0.4378  1.0414  0.7145
  170SAPE   C3519268   6.449   3.169   7.166 -0.0249  0.6557  0.0800
  170SAPE   H5X19269   6.436   3.275   7.135 -2.5628  1.0237  2.0726
  170SAPE   H5Y19270   6.556   3.144   7.182 -0.1302 -0.3595 -0.7231
  170SAPE   C3619271   6.382   3.154   7.297  0.0456 -0.3628 -0.3372
  170SAPE   H6X19272   6.386   3.051   7.337 -1.0340 -0.3520 -0.1611
  170SAPE   H6Y19273   6.273   3.177   7.292 -0.3931 -2.0012  0.9165
  170SAPE   C3719274   6.457   3.239   7.407  0.4145  0.4105  0.3783
  170SAPE   H7X19275   6.487   3.340   7.372 -1.2259  0.9047  0.2892
  170SAPE   H7Y19276   6.553   3.187   7.426 -0.4933 -0.9269  1.4985
  170SAPE   C3819277   6.385   3.244   7.544 -0.1348 -0.5236  0.4673
  170SAPE   H8X19278   6.461   3.279   7.617  0.3873  2.9592 -1.5182
  170SAPE   H8Y19279   6.336   3.148   7.572 -4.2972  0.7873 -1.5548
  170SAPE   C3919280   6.271   3.349   7.541 -0.2269 -0.8726 -0.4728
  170SAPE   H9X19281   6.185   3.321   7.477 -1.0874  1.2290 -0.2904
  170SAPE   H9Y19282   6.303   3.452   7.515  2.1915 -1.5563 -0.4923
  170SAPE  C31019283   6.211   3.374   7.686  0.1129 -0.5632 -0.1536
  170SAPE  H10X19284   6.290   3.412   7.754 -0.1236 -0.6674  0.1807
  170SAPE  H10Y19285   6.177   3.273   7.717 -0.1779 -0.5465 -0.4127
  170SAPE  C31119286   6.093   3.465   7.693  0.3128  0.0560  0.0784
  170SAPE  H11X19287   6.007   3.417   7.640  0.7898  0.2648 -0.8986
  170SAPE  H11Y19288   6.112   3.557   7.633 -0.5196 -0.6692 -1.3627
  170SAPE  C31219289   6.049   3.507   7.831  0.0274 -0.3747  0.1776
  170SAPE  H12X19290   5.942   3.534   7.820 -0.3407 -1.5757  0.5738
  170SAPE  H12Y19291   6.105   3.592   7.874  0.2481 -0.6800  0.5055
  170SAPE  C31319292   6.049   3.381   7.928 -1.1755  0.7176 -0.6391
  170SAPE  H13X19293   6.154   3.349   7.943 -1.4836  0.2591  0.6317
  170SAPE  H13Y19294   5.992   3.297   7.882  1.0047 -0.6061 -1.0314
  170SAPE  C31419295   5.996   3.417   8.068 -0.6486 -0.0314  0.6606
  170SAPE  H14X19296   5.983   3.321   8.123 -0.6011 -0.5767 -0.2494
  170SAPE  H14Y19297   5.898   3.465   8.050 -1.6154 -1.9902  0.4192
  170SAPE  C31519298   6.086   3.498   8.158  0.1740  0.2502  0.3717
  170SAPE  H15X19299   6.135   3.583   8.106 -2.1283  2.0559  0.9800
  170SAPE  H15Y19300   6.165   3.427   8.191  2.1420  1.0719 -2.1882
  170SAPE  C31619301   6.007   3.563   8.274  0.3170  0.0482 -0.1927
  170SAPE  H16X19302   5.928   3.637   8.246  0.0619  0.3146  1.1136
  170SAPE  H16Y19303   6.089   3.626   8.316  0.8441  0.1927 -1.4173
  170SAPE  C31719304   5.955   3.470   8.383 -0.1678  0.5087 -0.6576
  170SAPE  H17X19305   6.034   3.400   8.420 -0.2948 -0.0368 -1.3856
  170SAPE  H17Y19306   5.879   3.407   8.332 -1.1468  0.8524  0.3423
  170SAPE  C31819307   5.892   3.539   8.507 -0.6544  0.4557 -0.3210
  170SAPE  H18X19308   5.960   3.621   8.537 -0.1627  0.1449 -0.5736
  170SAPE  H18Y19309   5.849   3.484   8.593  0.6542  0.0907  0.1198
  170SAPE  H18Z19310   5.803   3.586   8.459 -1.3438  0.5823  1.0514
  171SAPE     N19311   2.704   4.031   5.972  0.0643  0.3588  0.6513
  171SAPE   HN119312   2.703   3.981   5.881 -0.3951  1.5617 -0.0314
  171SAPE   HN219313   2.780   3.991   6.031 -1.4202 -2.2697  0.9072
  171SAPE   HN319314   2.615   4.005   6.019  0.1722 -3.5087 -0.9269
  171SAPE   C1219315   2.718   4.183   5.942  0.4222 -0.1284 -1.0239
  171SAPE  H12A19316   2.662   4.212   5.850 -1.9086 -0.2476  0.2623
  171SAPE  H12B19317   2.824   4.203   5.918  0.3879  1.7897  0.1960
  171SAPE   C1119318   2.666   4.272   6.061  0.8644  0.4378  0.1238
  171SAPE  H11A19319   2.695   4.379   6.051  1.8813  0.1407 -0.2391
  171SAPE  H11B19320   2.720   4.239   6.152 -1.6778 -0.1827  1.5170
  171SAPE     P19321   2.417   4.360   6.124  0.3765  0.0279 -0.3188
  171SAPE   O1319322   2.447   4.481   6.049 -0.1063 -0.1803  0.7708
  171SAPE   O1419323   2.283   4.295   6.111  0.8889 -0.2080 -0.2409
  171SAPE   O1219324   2.523   4.253   6.076  0.5002  0.6598  0.1867
  171SAPE   O1119325   2.436   4.381   6.275 -0.1851  0.3190 -0.5270
  171SAPE    C119326   2.465   4.284   6.372 -0.2908 -0.2346 -0.1536
  171SAPE    HA19327   2.530   4.201   6.335 -0.0757 -0.1484  0.0286
  171SAPE    HB19328   2.514   4.329   6.461  0.9546 -0.5849 -0.6388
  171SAPE    C219329   2.334   4.220   6.425 -0.1818  0.9572  0.3960
  171SAPE    HS19330   2.288   4.166   6.339 -2.5947  2.1508  0.8589
  171SAPE   O2119331   2.246   4.325   6.467 -0.3521 -0.1245 -0.1289
  171SAPE   C2119332   2.123   4.294   6.479  0.0298 -0.5932 -0.4771
  171SAPE   O2219333   2.071   4.189   6.444  0.2019 -0.3616  0.0211
  171SAPE   C2219334   2.046   4.405   6.554 -0.2159  0.2921  0.1575
  171SAPE   H2R19335   2.110   4.494   6.571 -0.5703  0.7334 -0.7186
  171SAPE   H2S19336   1.975   4.435   6.473  0.2758  1.5672  0.1682
  171SAPE    C319337   2.364   4.117   6.542  0.7612  0.1111  0.0712
  171SAPE    HX19338   2.450   4.057   6.503  1.5529  0.9372  0.5179
  171SAPE    HY19339   2.280   4.044   6.549  2.5417 -1.9145  2.7235
  171SAPE   O3119340   2.383   4.181   6.674 -0.1398  0.9919 -0.1111
  171SAPE   C3119341   2.504   4.195   6.709 -0.4867  0.1079  0.1494
  171SAPE   O3219342   2.601   4.145   6.653  0.3872  0.1470 -0.3872
  171SAPE   C3219343   2.506   4.272   6.838 -0.3144 -0.2181 -0.6129
  171SAPE   H2X19344   2.408   4.249   6.885  0.9169 -0.3170  2.1429
  171SAPE   H2Y19345   2.515   4.381   6.817 -3.8476  0.0905 -0.9913
  171SAPE   C2319346   1.988   4.362   6.687  0.0534  0.1686  0.2029
  171SAPE   H3R19347   1.914   4.279   6.684 -0.9670  0.8789  2.6553
  171SAPE   H3S19348   1.928   4.447   6.728  1.0019  1.1343 -0.3394
  171SAPE   C2419349   2.087   4.320   6.799 -0.1290  0.2621  0.1317
  171SAPE   H4R19350   2.149   4.234   6.765 -0.5068 -0.1906  0.5810
  171SAPE   H4S19351   2.030   4.283   6.887  2.3975 -2.7524  0.6645
  171SAPE   C2519352   2.185   4.430   6.837  0.3771 -0.2872  0.2536
  171SAPE   H5R19353   2.268   4.460   6.771 -0.4547 -2.6060 -2.0019
  171SAPE   C2619354   2.204   4.457   6.975 -0.0032  0.7053  0.1012
  171SAPE   H6R19355   2.286   4.519   7.015 -1.2381  1.3113  1.8147
  171SAPE   C2719356   2.137   4.387   7.088  0.2923  0.5595 -0.2536
  171SAPE   H7R19357   2.029   4.377   7.063  0.9270 -2.5763 -2.2898
  171SAPE   H7S19358   2.138   4.448   7.181 -1.8884  0.2595  0.0193
  171SAPE   C2819359   2.205   4.252   7.112 -0.1472  0.8753 -0.0940
  171SAPE   H8R19360   2.254   4.192   7.034  1.6427  1.4810  0.4953
  171SAPE   C2919361   2.220   4.203   7.241  0.0106 -0.0789  0.2936
  171SAPE   H9R19362   2.282   4.112   7.248  0.3221  0.2230  1.7504
  171SAPE  C21019363   2.188   4.256   7.373 -0.1382 -0.4597  0.4223
  171SAPE  H10R19364   2.105   4.192   7.409 -0.8780  0.0462 -0.3626
  171SAPE  H10S19365   2.147   4.359   7.378 -0.7095 -0.6095 -0.9661
  171SAPE  C21119366   2.319   4.246   7.456  0.6015  0.0879  0.0779
  171SAPE  H11R19367   2.414   4.246   7.400 -0.5778  0.9346 -2.0711
  171SAPE  C21219368   2.312   4.259   7.592 -0.6857 -0.2463 -0.3967
  171SAPE  H12R19369   2.402   4.264   7.655 -0.9045 -0.9320 -0.0161
  171SAPE  C21319370   2.178   4.273   7.673 -0.8575  0.2443  0.5015
  171SAPE  H13R19371   2.164   4.184   7.738  2.0734 -1.8312 -1.4255
  171SAPE  H13S19372   2.087   4.266   7.611 -1.5380  0.8425  1.4000
  171SAPE  C21419373   2.191   4.403   7.754 -0.1547  0.1647 -0.1352
  171SAPE  H14R19374   2.167   4.496   7.700 -0.9286 -0.4189 -0.8265
  171SAPE  C21519375   2.217   4.410   7.884  0.5786  0.0158  0.5566
  171SAPE  H15R19376   2.230   4.511   7.925  0.8105 -0.2009  1.0301
  171SAPE  C21619377   2.246   4.294   7.976 -1.0716  0.5876  0.1339
  171SAPE  H16R19378   2.352   4.291   8.010 -1.0095 -0.8790 -0.1264
  171SAPE  H16S19379   2.233   4.195   7.928 -1.5980  1.4949 -1.7069
  171SAPE  C21719380   2.162   4.295   8.105  0.2171  0.1353  0.2937
  171SAPE  H17R19381   2.057   4.273   8.077 -0.0931 -0.6327  1.9021
  171SAPE  H17S19382   2.167   4.395   8.152 -0.8880 -0.3670  1.5529
  171SAPE  C21819383   2.211   4.194   8.206 -0.8775  0.2492 -0.0883
  171SAPE  H18R19384   2.266   4.115   8.150 -0.6974  0.7796 -0.6615
  171SAPE  H18S19385   2.130   4.148   8.268 -1.6005 -1.2976 -2.0614
  171SAPE  C21919386   2.319   4.257   8.296 -0.5232 -0.7232  0.4163
  171SAPE  H19R19387   2.262   4.323   8.364  1.0023 -0.5475  1.5939
  171SAPE  H19S19388   2.391   4.301   8.224 -0.9782 -0.7748 -0.0699
  171SAPE  C22019389   2.368   4.150   8.386 -0.3442 -1.1946  0.4244
  171SAPE  H20R19390   2.428   4.074   8.332  0.4647 -0.5784  0.4395
  171SAPE  H20S19391   2.295   4.082   8.436  1.3409 -3.1367  0.3673
  171SAPE  H20T19392   2.434   4.185   8.469 -1.6475 -3.2622  2.4728
  171SAPE   C3319393   2.624   4.227   6.939  0.5033 -0.0085  0.6684
  171SAPE   H3X19394   2.723   4.245   6.892 -0.2259  1.7074 -0.2740
  171SAPE   H3Y19395   2.620   4.120   6.969  0.7474 -0.5433 -1.0923
  171SAPE   C3419396   2.620   4.309   7.065  0.0486  0.8141  0.1499
  171SAPE   H4X19397   2.517   4.307   7.106 -0.1665  0.4784 -0.3894
  171SAPE   H4Y19398   2.644   4.414   7.041  2.1231  0.4028  0.2425
  171SAPE   C3519399   2.717   4.273   7.176 -0.1993  1.5686 -0.2914
  171SAPE   H5X19400   2.821   4.269   7.136 -0.4429 -3.2664 -1.0761
  171SAPE   H5Y19401   2.683   4.169   7.196 -2.3668  2.2299 -0.2519
  171SAPE   C3619402   2.698   4.359   7.298  0.2156 -0.3013 -0.0990
  171SAPE   H6X19403   2.588   4.369   7.312  0.2734  0.4050 -0.1124
  171SAPE   H6Y19404   2.721   4.467   7.279  0.2205 -0.3616 -0.4484
  171SAPE   C3719405   2.772   4.314   7.428 -0.4193 -1.0094 -0.0321
  171SAPE   H7X19406   2.879   4.326   7.401 -1.0168  0.4652 -1.9889
  171SAPE   H7Y19407   2.743   4.210   7.452 -1.1425 -1.1111 -1.2696
  171SAPE   C3819408   2.750   4.422   7.532  0.1616  0.1205  0.0063
  171SAPE   H8X19409   2.640   4.420   7.548 -0.0354 -0.9655 -1.2961
  171SAPE   H8Y19410   2.778   4.523   7.495  2.0617 -0.2990  0.1715
  171SAPE   C3919411   2.842   4.392   7.657 -0.1600  0.1003 -0.7982
  171SAPE   H9X19412   2.943   4.429   7.630  0.4064 -0.6629  0.1853
  171SAPE   H9Y19413   2.850   4.285   7.686  0.6758  0.5233  0.6206
  171SAPE  C31019414   2.794   4.466   7.784 -1.0086  0.0115 -0.7434
  171SAPE  H10X19415   2.692   4.441   7.820 -1.2812  0.9238 -0.8589
  171SAPE  H10Y19416   2.800   4.575   7.759 -1.9273  0.0882 -0.6556
  171SAPE  C31119417   2.884   4.434   7.904 -0.4287 -0.1000  0.5430
  171SAPE  H11X19418   2.867   4.516   7.977 -1.7014 -0.2290  0.4209
  171SAPE  H11Y19419   2.988   4.421   7.868 -0.6281 -0.1692 -0.0111
  171SAPE  C31219420   2.846   4.298   7.964  0.1951 -0.3780  0.5267
  171SAPE  H12X19421   2.817   4.234   7.878 -0.4488  0.9060 -0.2332
  171SAPE  H12Y19422   2.750   4.312   8.017  0.7563 -2.5710  2.2691
  171SAPE  C31319423   2.948   4.236   8.066  0.7261  0.1445  0.6965
  171SAPE  H13X19424   2.981   4.302   8.149  0.1202  1.2052  0.1200
  171SAPE  H13Y19425   3.027   4.219   7.990 -1.3610  0.4221 -1.6696
  171SAPE  C31419426   2.902   4.096   8.122  0.0568  0.6684  0.5092
  171SAPE  H14X19427   2.897   4.027   8.035 -0.3128 -0.7219  1.5902
  171SAPE  H14Y19428   2.811   4.098   8.186  0.3050 -0.4583  0.9128
  171SAPE  C31519429   3.009   4.031   8.209  0.3231 -0.1389 -0.4619
  171SAPE  H15X19430   3.030   4.101   8.293  0.6696 -1.7188  0.8029
  171SAPE  H15Y19431   3.105   4.020   8.153  0.6941 -0.3682  0.2097
  171SAPE  C31619432   2.962   3.887   8.257 -0.6073  0.1038  0.3916
  171SAPE  H16X19433   2.952   3.820   8.169 -0.9110  0.4081  0.1921
  171SAPE  H16Y19434   2.867   3.892   8.315 -0.7614 -1.6046  0.3211
  171SAPE  C31719435   3.059   3.836   8.371 -0.1502  0.1252 -0.2613
  171SAPE  H17X19436   3.007   3.754   8.425 -0.3980  1.3927  1.5202
  171SAPE  H17Y19437   3.060   3.920   8.444  1.7244  0.9283 -1.1532
  171SAPE  C31819438   3.197   3.794   8.333  0.6052  0.4387 -0.9854
  171SAPE  H18X19439   3.243   3.739   8.418  3.5435 -0.6286 -3.0659
  171SAPE  H18Y19440   3.254   3.888   8.314 -0.2623  1.1151 -0.3103
  171SAPE  H18Z19441   3.194   3.744   8.234 -1.2655  1.8234 -1.6991
  172SAPE     N19442   3.072   3.359   6.110  0.0014 -0.4005 -0.3563
  172SAPE   HN119443   3.022   3.416   6.181 -0.4719 -3.1741  1.7298
  172SAPE   HN219444   3.166   3.402   6.104  1.1470 -2.5210  1.2018
  172SAPE   HN319445   3.034   3.375   6.014 -0.2857  1.3959  0.0201
  172SAPE   C1219446   3.090   3.213   6.152 -0.7561  0.9020 -0.1414
  172SAPE  H12A19447   3.139   3.210   6.252  1.1665 -0.8001 -1.0654
  172SAPE  H12B19448   3.154   3.170   6.072  1.7321  2.6889  0.7714
  172SAPE   C1119449   2.960   3.129   6.148  0.0094 -0.4645  0.0241
  172SAPE  H11A19450   2.989   3.033   6.194 -0.6413 -1.6323 -1.8598
  172SAPE  H11B19451   2.934   3.106   6.042 -2.2613  0.3748  0.3374
  172SAPE     P19452   2.709   3.124   6.219  0.2658  0.6150  0.0441
  172SAPE   O1319453   2.596   3.218   6.194 -0.6145  0.0080 -0.3387
  172SAPE   O1419454   2.705   3.001   6.137 -0.1348  0.0129  0.3402
  172SAPE   O1219455   2.846   3.199   6.210  0.1529  0.0374 -0.1561
  172SAPE   O1119456   2.710   3.078   6.374 -0.1992 -0.5338  0.2211
  172SAPE    C119457   2.768   3.166   6.469  0.4911  0.9362  0.0247
  172SAPE    HA19458   2.876   3.143   6.478  0.5094  0.3429 -1.4752
  172SAPE    HB19459   2.737   3.270   6.447 -1.3516  0.3845 -0.1811
  172SAPE    C219460   2.700   3.151   6.612  0.0452 -0.1805 -0.1234
  172SAPE    HS19461   2.765   3.203   6.686  0.3095 -3.0239  1.7985
  172SAPE   O2119462   2.670   3.006   6.656  0.0647 -0.1715 -0.4792
  172SAPE   C2119463   2.774   2.951   6.708  0.8805 -0.2430  0.3893
  172SAPE   O2219464   2.879   3.009   6.721 -0.1108  0.2079  0.0156
  172SAPE   C2219465   2.743   2.809   6.747 -0.5998 -0.4884 -0.1010
  172SAPE   H2R19466   2.642   2.786   6.705  0.3136 -0.8505 -2.2144
  172SAPE   H2S19467   2.814   2.742   6.693  0.5439 -1.1383  2.0967
  172SAPE    C319468   2.556   3.228   6.611 -0.3515 -0.2939  0.3554
  172SAPE    HX19469   2.502   3.199   6.704  1.0804 -2.2178  0.6583
  172SAPE    HY19470   2.511   3.182   6.521  0.7669  0.6698 -0.7455
  172SAPE   O3119471   2.569   3.369   6.583 -0.3160 -0.0167  0.2693
  172SAPE   C3119472   2.458   3.441   6.606  0.1201 -0.0655 -0.0498
  172SAPE   O3219473   2.343   3.399   6.625 -0.0771 -0.2834  0.4458
  172SAPE   C3219474   2.501   3.591   6.617 -0.0704  0.1902  0.0108
  172SAPE   H2X19475   2.464   3.625   6.517 -0.4626  0.3997  0.2247
  172SAPE   H2Y19476   2.612   3.595   6.614 -0.1055  1.7519 -1.7991
  172SAPE   C2319477   2.759   2.786   6.900 -0.2701 -0.1174  0.1025
  172SAPE   H3R19478   2.846   2.841   6.943  3.1450 -3.9055 -1.2692
  172SAPE   H3S19479   2.780   2.680   6.924  1.5331 -0.4080 -2.3598
  172SAPE   C2419480   2.638   2.832   6.981 -1.1441 -0.6095 -0.3323
  172SAPE   H4R19481   2.552   2.784   6.929 -1.0723  2.2509 -3.3416
  172SAPE   H4S19482   2.622   2.941   6.968  2.4082  0.2727  1.4015
  172SAPE   C2519483   2.649   2.796   7.130 -0.4698  0.1300 -0.4482
  172SAPE   H5R19484   2.633   2.690   7.153  1.8497  0.1789  1.7257
  172SAPE   C2619485   2.691   2.873   7.231  0.7029  0.3044 -0.1684
  172SAPE   H6R19486   2.660   2.834   7.329 -2.1084 -1.8714 -1.7367
  172SAPE   C2719487   2.725   3.015   7.224 -0.3531  0.6761 -0.4144
  172SAPE   H7R19488   2.631   3.073   7.236 -0.7736  0.0948 -0.8125
  172SAPE   H7S19489   2.764   3.040   7.123 -0.7462 -1.9914 -1.3050
  172SAPE   C2819490   2.837   3.052   7.324  0.7447 -0.3889  0.7210
  172SAPE   H8R19491   2.914   2.974   7.335  2.3378  0.7732 -1.3565
  172SAPE   C2919492   2.841   3.173   7.392 -0.0171 -0.0444 -0.1481
  172SAPE   H9R19493   2.929   3.200   7.452 -0.6058  1.8802 -0.0574
  172SAPE  C21019494   2.735   3.286   7.366 -0.1788 -0.1425 -0.0882
  172SAPE  H10R19495   2.632   3.245   7.370 -1.3850  2.7458  0.7709
  172SAPE  H10S19496   2.745   3.309   7.258  0.9684 -1.9187 -0.4092
  172SAPE  C21119497   2.729   3.402   7.457  0.7873  0.5423 -0.3839
  172SAPE  H11R19498   2.644   3.390   7.526  0.6013 -1.9791 -0.9721
  172SAPE  C21219499   2.801   3.515   7.458  0.8753 -0.4182  0.8215
  172SAPE  H12R19500   2.782   3.601   7.524  0.7443  0.6217 -0.5356
  172SAPE  C21319501   2.912   3.548   7.366 -0.4052  0.3553  0.7289
  172SAPE  H13R19502   2.899   3.650   7.326  2.4732  0.1471 -1.0500
  172SAPE  H13S19503   2.908   3.480   7.278 -0.0306 -0.2461  1.1647
  172SAPE  C21419504   3.044   3.544   7.433  0.7676  0.9988 -0.5059
  172SAPE  H14R19505   3.046   3.581   7.536 -0.8383 -1.6540  0.5826
  172SAPE  C21519506   3.155   3.481   7.391 -0.4823 -0.1606 -0.6360
  172SAPE  H15R19507   3.244   3.474   7.455 -1.0448 -2.0081 -0.0129
  172SAPE  C21619508   3.177   3.413   7.262  0.2658  0.1154  0.0803
  172SAPE  H16R19509   3.273   3.452   7.223  1.1112 -2.2227 -0.2761
  172SAPE  H16S19510   3.097   3.429   7.185 -0.4002  0.9166  0.9143
  172SAPE  C21719511   3.185   3.258   7.269  0.7162  0.1413  0.9993
  172SAPE  H17R19512   3.103   3.222   7.335 -0.1015  0.0101 -0.0620
  172SAPE  H17S19513   3.275   3.235   7.329  2.5347 -0.7378 -1.8753
  172SAPE  C21819514   3.189   3.199   7.132  0.7798  0.5090 -0.2038
  172SAPE  H18R19515   3.249   3.267   7.068 -0.2211  1.1503 -0.4894
  172SAPE  H18S19516   3.088   3.194   7.086  1.7396 -1.6279 -2.3547
  172SAPE  C21919517   3.263   3.064   7.123 -0.3951  0.1134  0.2897
  172SAPE  H19R19518   3.372   3.081   7.110 -0.2980 -0.6590  0.0640
  172SAPE  H19S19519   3.225   3.010   7.034  1.7043 -0.7706 -0.1219
  172SAPE  C22019520   3.252   2.973   7.241 -0.5900 -0.1689 -0.4666
  172SAPE  H20R19521   3.299   2.874   7.225  0.0224  0.2711 -1.4654
  172SAPE  H20S19522   3.147   2.947   7.266 -0.6019  1.0079  0.8063
  172SAPE  H20T19523   3.284   3.022   7.335  1.5220  0.2137 -1.3252
  172SAPE   C3319524   2.450   3.666   6.737 -0.0743 -0.0204  0.7979
  172SAPE   H3X19525   2.476   3.614   6.832  1.8980  0.4059  0.5406
  172SAPE   H3Y19526   2.339   3.664   6.735 -0.1407  2.0312 -0.8711
  172SAPE   C3419527   2.483   3.816   6.744  0.2946  0.2596  0.7345
  172SAPE   H4X19528   2.445   3.877   6.659  2.3184 -1.9664 -1.9894
  172SAPE   H4Y19529   2.592   3.820   6.724  0.2012 -2.4497 -0.7731
  172SAPE   C3519530   2.438   3.883   6.874 -0.4850  0.5755  0.0597
  172SAPE   H5X19531   2.328   3.871   6.885 -0.5168  0.4048 -0.4245
  172SAPE   H5Y19532   2.458   3.992   6.870 -2.8313  1.0165 -1.5985
  172SAPE   C3619533   2.488   3.804   7.007 -0.3995  0.0546  0.4405
  172SAPE   H6X19534   2.599   3.796   7.000 -0.2378  2.3869 -0.6043
  172SAPE   H6Y19535   2.454   3.698   6.999  1.1907 -0.4040 -0.7385
  172SAPE   C3719536   2.445   3.872   7.132 -0.0813 -0.7750 -0.1846
  172SAPE   H7X19537   2.335   3.880   7.146  0.0723 -0.2134  0.7932
  172SAPE   H7Y19538   2.483   3.975   7.119  3.2075 -1.7451  0.8497
  172SAPE   C3819539   2.500   3.805   7.256  0.5173 -0.0687 -0.0503
  172SAPE   H8X19540   2.608   3.782   7.249  0.4295 -1.1078  1.4511
  172SAPE   H8Y19541   2.453   3.705   7.259 -0.0826  0.1971 -0.4004
  172SAPE   C3919542   2.462   3.879   7.386 -0.7346 -0.2368 -0.2705
  172SAPE   H9X19543   2.356   3.913   7.376 -0.2140  1.2559 -0.9371
  172SAPE   H9Y19544   2.528   3.966   7.366 -1.2928  0.3224  0.2700
  172SAPE  C31019545   2.487   3.798   7.522  0.1341 -0.8134  0.5168
  172SAPE  H10X19546   2.485   3.690   7.494 -1.5323 -0.4963 -0.7408
  172SAPE  H10Y19547   2.409   3.840   7.588 -0.6570 -0.5873 -0.5316
  172SAPE  C31119548   2.617   3.838   7.598 -0.6525  0.1218 -0.6625
  172SAPE  H11X19549   2.692   3.845   7.516 -0.2473  0.1406 -0.2974
  172SAPE  H11Y19550   2.649   3.755   7.665  1.0958  0.8377 -0.5404
  172SAPE  C31219551   2.595   3.972   7.670  0.9517 -0.0873 -0.2875
  172SAPE  H12X19552   2.531   4.030   7.600  0.5715 -0.6437 -0.3977
  172SAPE  H12Y19553   2.696   4.019   7.681  1.1875 -0.3880 -1.1433
  172SAPE  C31319554   2.519   3.976   7.804 -0.7533  0.2237  0.2417
  172SAPE  H13X19555   2.428   3.913   7.803 -0.4658 -0.1968  0.2474
  172SAPE  H13Y19556   2.479   4.076   7.830  1.0113  0.3319  2.9209
  172SAPE  C31419557   2.620   3.931   7.912  0.4261 -0.7827  0.2884
  172SAPE  H14X19558   2.716   3.984   7.899 -0.0736  0.3629  1.0662
  172SAPE  H14Y19559   2.641   3.822   7.904  2.4591 -0.3413 -0.8329
  172SAPE  C31519560   2.572   3.950   8.057 -0.1472  0.6248  0.3214
  172SAPE  H15X19561   2.463   3.958   8.043 -0.4423 -0.0335  2.0703
  172SAPE  H15Y19562   2.605   4.046   8.101 -0.4195 -0.2299  2.4755
  172SAPE  C31619563   2.617   3.837   8.151  0.3313 -0.5689 -0.1961
  172SAPE  H16X19564   2.636   3.872   8.255 -0.0623 -0.2141 -0.2411
  172SAPE  H16Y19565   2.718   3.804   8.116  1.4133  1.9661  0.3245
  172SAPE  C31719566   2.522   3.708   8.144  0.1017 -0.3007 -0.0059
  172SAPE  H17X19567   2.573   3.614   8.173 -0.5044 -0.4321  0.6438
  172SAPE  H17Y19568   2.520   3.701   8.033 -1.0863  0.4603 -0.0512
  172SAPE  C31819569   2.383   3.710   8.201  0.5601  0.3479  0.1246
  172SAPE  H18X19570   2.343   3.814   8.189 -0.1592  0.2403  1.3624
  172SAPE  H18Y19571   2.382   3.677   8.307  1.3661  0.5422  0.1933
  172SAPE  H18Z19572   2.318   3.638   8.147 -0.2316  0.3805  1.0098
  173SOPE     N19573   3.896   1.611  10.827  0.7910 -0.4536  0.1207
  173SOPE   HN119574   3.863   1.705  10.857 -2.1356 -1.6787  1.1276
  173SOPE   HN219575   3.807   1.562  10.801  0.7549 -1.1637  1.4972
  173SOPE   HN319576   3.938   1.572  10.913 -2.5148  0.4449  2.3593
  173SOPE   C1219577   4.001   1.617  10.717  0.3529 -0.7604 -0.3650
  173SOPE  H12A19578   4.096   1.653  10.762  1.6880 -2.2159 -1.8810
  173SOPE  H12B19579   3.980   1.691  10.637  0.8458 -0.7623 -0.5029
  173SOPE   C1119580   4.047   1.482  10.671 -0.6502  0.3581 -0.1143
  173SOPE  H11A19581   4.136   1.503  10.609 -0.3229  2.2203  0.9095
  173SOPE  H11B19582   3.971   1.438  10.604 -0.3529  0.7896 -0.7470
  173SOPE     P19583   4.162   1.266  10.767  1.3765 -0.1149 -0.3261
  173SOPE   O1319584   4.088   1.168  10.682  0.1888  0.6522 -0.6324
  173SOPE   O1419585   4.202   1.225  10.899 -0.3739  0.4279 -0.2496
  173SOPE   O1219586   4.066   1.393  10.786  0.0744  0.5876  0.5695
  173SOPE   O1119587   4.287   1.318  10.691  0.5994  0.4075  0.3884
  173SOPE    C119588   4.383   1.220  10.652  0.5272  0.4290 -0.9338
  173SOPE    HA19589   4.353   1.116  10.676  0.7610  0.3463 -0.9893
  173SOPE    HB19590   4.480   1.247  10.699  1.0775 -1.1434 -1.0999
  173SOPE    C219591   4.407   1.217  10.494 -0.5228 -0.0710  0.0086
  173SOPE    HS19592   4.418   1.324  10.468  3.1172 -0.3851 -0.2594
  173SOPE   O2119593   4.295   1.146  10.430 -0.3976 -0.4658 -0.1892
  173SOPE   C2119594   4.199   1.230  10.387 -0.1953 -0.4077 -0.4624
  173SOPE   O2219595   4.208   1.355  10.383 -0.5250  0.0475  0.1063
  173SOPE   C2219596   4.065   1.163  10.376  0.4549 -0.3951  0.4886
  173SOPE   H2R19597   3.997   1.185  10.461 -2.4015 -2.2427 -1.1256
  173SOPE   H2S19598   4.077   1.053  10.371  0.1774 -0.4739  1.4037
  173SOPE    C319599   4.539   1.140  10.450  0.3594 -0.0958 -0.8689
  173SOPE    HX19600   4.536   1.042  10.502 -1.0067  0.3537 -0.0526
  173SOPE    HY19601   4.617   1.204  10.497 -0.3138  0.1552 -0.0612
  173SOPE   O3119602   4.547   1.144  10.313  0.3135  0.2488 -0.0694
  173SOPE   C3119603   4.494   1.043  10.250 -0.5824  0.6903  0.1078
  173SOPE   O3219604   4.490   0.926  10.294  0.2661  0.1546  0.5783
  173SOPE   C3219605   4.449   1.077  10.112 -0.1124 -0.4087  0.0193
  173SOPE   H2X19606   4.542   1.091  10.052  0.3415 -1.0427  0.5643
  173SOPE   H2Y19607   4.412   1.182  10.117  1.5710  0.1611  3.7746
  173SOPE   C2319608   3.968   1.218  10.258  0.0393 -0.2366  0.3062
  173SOPE   H3R19609   3.923   1.312  10.295 -1.1017 -0.8643  0.5786
  173SOPE   H3S19610   3.890   1.139  10.257 -0.2879  0.0391 -2.0694
  173SOPE   C2419611   4.029   1.215  10.122 -0.3620  0.4923  0.0852
  173SOPE   H4R19612   4.101   1.300  10.124  2.0550 -1.4637  0.7039
  173SOPE   H4S19613   4.084   1.122  10.097 -0.6825  0.3851 -0.2246
  173SOPE   C2519614   3.919   1.219  10.019 -0.5451 -0.4401 -0.0178
  173SOPE   H5R19615   3.868   1.121  10.031  1.4405 -1.4564  0.5639
  173SOPE   H5S19616   3.847   1.302  10.030  1.0812  1.2324 -1.2967
  173SOPE   C2619617   3.969   1.237   9.872 -0.5467 -0.0942  0.1506
  173SOPE   H6R19618   4.028   1.329   9.854 -0.4965 -0.3705 -1.2472
  173SOPE   H6S19619   4.029   1.148   9.842  0.5788  0.4442  0.7592
  173SOPE   C2719620   3.845   1.250   9.776 -0.7017 -0.0075 -0.0005
  173SOPE   H7R19621   3.796   1.150   9.777 -1.0469  0.1540  1.7721
  173SOPE   H7S19622   3.775   1.327   9.813 -0.2832  0.0255  0.7441
  173SOPE   C2819623   3.880   1.304   9.639  0.0627  0.3268  0.3521
  173SOPE   H8R19624   3.782   1.302   9.585 -0.1919 -2.6922  0.7610
  173SOPE   H8S19625   3.922   1.406   9.644  1.1791 -0.1761  1.8659
  173SOPE   C2919626   3.982   1.219   9.572  0.2596 -0.2055 -0.1891
  173SOPE   H9119627   4.061   1.180   9.638  1.0885 -0.3613 -1.2661
  173SOPE  C21019628   3.977   1.169   9.450 -0.8781 -0.6148 -0.3809
  173SOPE  H10119629   4.060   1.107   9.417  0.3553  0.5938  0.3328
  173SOPE  C21119630   3.870   1.198   9.346  0.0983 -0.1059 -0.3658
  173SOPE  H11R19631   3.809   1.290   9.360 -1.4090 -1.2372  0.8183
  173SOPE  H11S19632   3.793   1.118   9.351  0.6578 -0.5402  2.4026
  173SOPE  C21219633   3.943   1.199   9.207  0.7636  0.0333  0.0651
  173SOPE  H12R19634   4.046   1.242   9.209  0.6912  0.2720 -0.7911
  173SOPE  H12S19635   3.878   1.268   9.148  0.2149  0.2144  0.8671
  173SOPE  C21319636   3.967   1.064   9.140  0.0494  0.0631 -0.3329
  173SOPE  H13R19637   3.864   1.025   9.120 -0.2949  0.9780 -0.3985
  173SOPE  H13S19638   4.022   0.988   9.200  1.1393 -0.1037 -1.4914
  173SOPE  C21419639   4.051   1.079   9.014 -0.5465 -0.1820 -0.3511
  173SOPE  H14R19640   4.149   1.128   9.032  0.7680 -1.8186 -2.5277
  173SOPE  H14S19641   3.995   1.141   8.940  2.3609  0.0807 -2.5255
  173SOPE  C21519642   4.091   0.949   8.936 -1.0625  0.0137  0.0674
  173SOPE  H15R19643   4.164   0.881   8.984 -0.9642 -0.1180 -0.2642
  173SOPE  H15S19644   4.129   0.987   8.839  1.4528  0.6255  1.2201
  173SOPE  C21619645   3.962   0.879   8.903  0.2235  0.3190 -0.7288
  173SOPE  H16R19646   3.894   0.955   8.859 -1.5042 -0.0079  1.2245
  173SOPE  H16S19647   3.901   0.833   8.984 -0.8402 -0.0279 -1.6929
  173SOPE  C21719648   3.974   0.766   8.798 -0.9494 -0.0491 -0.3243
  173SOPE  H17R19649   4.044   0.695   8.848 -1.4308 -1.6504 -1.8231
  173SOPE  H17S19650   4.029   0.809   8.711  0.9518  0.5100  1.0732
  173SOPE  C21819651   3.839   0.702   8.760  0.2251  0.4533  0.2849
  173SOPE  H18R19652   3.782   0.769   8.693 -0.6550 -0.7897 -0.2573
  173SOPE  H18S19653   3.780   0.676   8.850  1.6359  0.4281  1.2370
  173SOPE  H18T19654   3.865   0.605   8.712 -1.3686  0.4794 -0.6929
  173SOPE   C3319655   4.362   0.979  10.034 -0.4659  0.6570  0.2758
  173SOPE   H3X19656   4.266   0.966  10.090 -2.2438  0.5881 -2.5801
  173SOPE   H3Y19657   4.405   0.877  10.021  0.2209  0.8146  1.2412
  173SOPE   C3419658   4.333   1.044   9.898 -0.1059  0.6318  0.1666
  173SOPE   H4X19659   4.427   1.076   9.847 -0.0262  0.4751  0.2150
  173SOPE   H4Y19660   4.268   1.134   9.900 -1.5590 -0.3162 -1.7991
  173SOPE   C3519661   4.264   0.954   9.800  0.5046  0.7254  0.6323
  173SOPE   H5X19662   4.155   0.971   9.805  0.0259 -1.1463 -1.6232
  173SOPE   H5Y19663   4.266   0.851   9.841 -0.6513  0.6813  0.6106
  173SOPE   C3619664   4.325   0.947   9.658 -0.0748  0.0268 -0.6637
  173SOPE   H6X19665   4.432   0.919   9.661 -0.4464 -1.3807  1.0119
  173SOPE   H6Y19666   4.299   1.042   9.607  1.6505  0.1257 -1.4312
  173SOPE   C3719667   4.283   0.829   9.566  0.3036 -0.3281 -0.0036
  173SOPE   H7X19668   4.173   0.812   9.555  0.5812 -1.5336 -1.0147
  173SOPE   H7Y19669   4.325   0.736   9.610  1.2628 -2.0131 -4.0080
  173SOPE   C3819670   4.333   0.850   9.422 -0.5511  0.3576 -0.5861
  173SOPE   H8X19671   4.443   0.864   9.428 -0.5779  0.2243  0.3456
  173SOPE   H8Y19672   4.279   0.932   9.371  0.5649  0.0004 -2.4527
  173SOPE   C3919673   4.314   0.725   9.337 -1.1569  0.1681  0.1005
  173SOPE   H9X19674   4.206   0.705   9.317 -1.4169  1.0946  0.5480
  173SOPE   H9Y19675   4.350   0.631   9.385 -0.0258 -0.0205 -1.0653
  173SOPE  C31019676   4.383   0.731   9.201 -0.1549 -0.6457  0.1087
  173SOPE  H10X19677   4.492   0.729   9.222 -0.6396  0.1519  3.1020
  173SOPE  H10Y19678   4.353   0.829   9.156 -0.4116 -0.5660  0.4508
  173SOPE  C31119679   4.350   0.627   9.093 -0.2633  0.3263 -0.2245
  173SOPE  H11X19680   4.245   0.639   9.061  0.0832 -0.4746 -1.7329
  173SOPE  H11Y19681   4.368   0.533   9.149  0.5459  0.3844 -0.3738
  173SOPE  C31219682   4.438   0.649   8.965 -0.0738 -0.0983 -0.2422
  173SOPE  H12X19683   4.546   0.664   8.986 -0.0463  1.8181 -1.5085
  173SOPE  H12Y19684   4.400   0.738   8.910 -0.1274 -0.2987 -0.5303
  173SOPE  C31319685   4.437   0.525   8.864 -0.0975  0.2425 -0.7815
  173SOPE  H13X19686   4.502   0.545   8.776 -0.9275  0.1543 -1.4248
  173SOPE  H13Y19687   4.331   0.519   8.832 -0.4366  1.5686  0.0152
  173SOPE  C31419688   4.487   0.394   8.923  0.3195 -0.2097  0.5726
  173SOPE  H14X19689   4.459   0.306   8.861 -1.1883  1.8663 -1.8636
  173SOPE  H14Y19690   4.440   0.370   9.021  0.5190  1.2783  1.0518
  173SOPE  C31519691   4.635   0.390   8.930 -0.0026  0.5070 -0.4958
  173SOPE  H15X19692   4.678   0.443   9.017  2.1575 -1.9395  0.0445
  173SOPE  H15Y19693   4.674   0.453   8.847 -0.4801 -0.0720 -1.1789
  173SOPE  C31619694   4.706   0.255   8.906  0.1431 -0.3988 -0.1411
  173SOPE  H16X19695   4.692   0.232   8.798 -0.0102  0.7895 -0.3834
  173SOPE  H16Y19696   4.656   0.193   8.982 -2.9283  1.2327 -0.6801
  173SOPE  C31719697   4.860   0.270   8.909  0.4652 -0.0275  0.1617
  173SOPE  H17X19698   4.907   0.170   8.906  1.0587  0.2511 -0.0839
  173SOPE  H17Y19699   4.889   0.318   9.005 -0.6819 -0.5960  0.8134
  173SOPE  C31819700   4.914   0.358   8.797 -0.0493  0.1742  0.5004
  173SOPE  H18X19701   4.871   0.461   8.803  2.3038  1.1252  2.9559
  173SOPE  H18Y19702   4.892   0.308   8.701  3.3534  1.5291 -1.1299
  173SOPE  H18Z19703   5.025   0.356   8.800 -0.0021 -3.3852  3.9462
  174SOPE     N19704   3.836   6.729  10.813  0.0598  0.4507 -0.1067
  174SOPE   HN119705   3.766   6.732  10.889 -1.5844  2.1012 -1.5969
  174SOPE   HN219706   3.823   6.818  10.761  1.8677  0.5695 -0.4345
  174SOPE   HN319707   3.823   6.646  10.751 -1.0318  0.7443 -0.2841
  174SOPE   C1219708   3.973   6.726  10.867  0.2168 -0.2676 -0.8147
  174SOPE  H12A19709   4.041   6.705  10.781 -0.1949 -0.8298 -1.0134
  174SOPE  H12B19710   3.977   6.648  10.947 -1.3973 -0.7451 -1.1455
  174SOPE   C1119711   4.015   6.857  10.932 -0.6944  1.2617 -0.4077
  174SOPE  H11A19712   4.120   6.856  10.968 -0.8795  0.0716  0.1603
  174SOPE  H11B19713   3.955   6.871  11.025 -1.7838 -0.0706 -0.8830
  174SOPE     P19714   4.085   7.024  10.736 -0.2954  0.0638 -0.0026
  174SOPE   O1319715   4.222   7.019  10.795 -0.1613 -0.1546  0.5970
  174SOPE   O1419716   4.033   7.159  10.677 -0.1268  0.1984 -0.6121
  174SOPE   O1219717   3.988   6.971  10.851 -0.1419 -0.2644 -0.2552
  174SOPE   O1119718   4.070   6.903  10.643  0.2918  0.7124  0.6125
  174SOPE    C119719   4.174   6.847  10.558 -0.3693  0.0563 -1.1995
  174SOPE    HA19720   4.153   6.738  10.551  0.9638 -0.5598  2.2684
  174SOPE    HB19721   4.280   6.868  10.583 -0.7024  0.3794 -0.0252
  174SOPE    C219722   4.160   6.895  10.414 -0.3718 -0.1223  0.2852
  174SOPE    HS19723   4.247   6.858  10.355 -2.0919 -3.1386 -0.5528
  174SOPE   O2119724   4.150   7.038  10.400  0.1724 -0.0671  0.4687
  174SOPE   C2119725   4.258   7.105  10.430  0.3373 -0.8459 -0.4610
  174SOPE   O2219726   4.369   7.051  10.448 -0.0908 -0.5277 -0.1463
  174SOPE   C2219727   4.245   7.254  10.417 -0.1263 -0.5281  0.6007
  174SOPE   H2R19728   4.334   7.311  10.452  1.8540  0.1029 -4.5374
  174SOPE   H2S19729   4.159   7.294  10.474 -2.6604 -2.1317 -1.8285
  174SOPE    C319730   4.033   6.827  10.357  0.4339  0.2929 -0.1486
  174SOPE    HX19731   3.935   6.859  10.398 -2.1559 -3.1358 -3.0378
  174SOPE    HY19732   4.034   6.719  10.382  2.6770  0.5148  0.9956
  174SOPE   O3119733   4.013   6.841  10.213  0.2908  0.0407 -0.1158
  174SOPE   C3119734   4.103   6.776  10.145  0.3495  0.4695  0.2971
  174SOPE   O3219735   4.178   6.684  10.174  0.2922 -0.3319 -0.1640
  174SOPE   C3219736   4.085   6.819  10.002 -0.1689  0.0986 -0.4323
  174SOPE   H2X19737   4.101   6.929   9.996  3.0709 -0.2790 -0.7267
  174SOPE   H2Y19738   3.980   6.798   9.972 -0.9785  2.9040  0.2000
  174SOPE   C2319739   4.230   7.293  10.270  0.2167  0.0630  0.3272
  174SOPE   H3R19740   4.195   7.399  10.270  4.1197  1.5616 -1.9909
  174SOPE   H3S19741   4.144   7.237  10.227 -0.0676 -0.4655  1.5323
  174SOPE   C2419742   4.363   7.276  10.196  0.4112 -0.4355 -0.4163
  174SOPE   H4R19743   4.437   7.331  10.257 -1.1052 -0.4384  1.5251
  174SOPE   H4S19744   4.395   7.169  10.195  1.5913 -0.1963 -3.9508
  174SOPE   C2519745   4.354   7.313  10.046  0.2510 -0.2413  0.3589
  174SOPE   H5R19746   4.318   7.417  10.026 -0.0812 -0.2533  0.8800
  174SOPE   H5S19747   4.459   7.311  10.011 -0.0662 -0.1711 -0.6513
  174SOPE   C2619748   4.271   7.214   9.954 -0.1733 -0.2545 -0.6308
  174SOPE   H6R19749   4.312   7.112   9.968 -2.3080 -1.1127 -0.2747
  174SOPE   H6S19750   4.162   7.208   9.972 -0.1881 -1.3148 -1.0301
  174SOPE   C2719751   4.277   7.254   9.810 -0.1207  0.5350  0.6377
  174SOPE   H7R19752   4.240   7.359   9.802 -0.2769  0.7575  3.3285
  174SOPE   H7S19753   4.383   7.251   9.780 -0.2664  0.5126  0.1104
  174SOPE   C2819754   4.195   7.170   9.707  0.1527  0.1119 -0.3720
  174SOPE   H8R19755   4.244   7.071   9.703  3.6211  1.6919 -0.1963
  174SOPE   H8S19756   4.094   7.163   9.754  1.1881 -0.8746  1.7968
  174SOPE   C2919757   4.173   7.219   9.570  0.5227  0.5423 -0.1897
  174SOPE   H9119758   4.105   7.304   9.555  0.5184  0.5445 -0.1570
  174SOPE  C21019759   4.248   7.177   9.461  0.0278  0.9978  0.3230
  174SOPE  H10119760   4.198   7.213   9.369 -0.1058  0.6557  0.2596
  174SOPE  C21119761   4.374   7.086   9.451  0.1459  0.3457 -0.2623
  174SOPE  H11R19762   4.349   6.982   9.480  3.2678 -1.0774 -2.0872
  174SOPE  H11S19763   4.451   7.121   9.523  0.6257 -1.8064  0.3452
  174SOPE  C21219764   4.429   7.089   9.304 -0.2463  0.6112 -0.5912
  174SOPE  H12R19765   4.472   7.191   9.297  1.5243  0.0754  1.5806
  174SOPE  H12S19766   4.343   7.079   9.234 -0.5323 -1.2514 -0.0224
  174SOPE  C21319767   4.529   6.980   9.277  0.0278 -0.0066 -0.2409
  174SOPE  H13R19768   4.567   6.945   9.375 -0.1736 -2.8925 -1.1025
  174SOPE  H13S19769   4.605   7.030   9.213 -0.1503 -0.8821 -1.1660
  174SOPE  C21419770   4.473   6.857   9.201 -0.4228 -0.6050 -0.2407
  174SOPE  H14R19771   4.564   6.793   9.191 -0.9804 -1.3854 -0.3811
  174SOPE  H14S19772   4.439   6.887   9.100 -1.1090  1.2486  0.4969
  174SOPE  C21519773   4.374   6.775   9.282 -0.7977 -0.4296  0.0145
  174SOPE  H15R19774   4.291   6.848   9.286 -1.1204 -0.7775 -0.2541
  174SOPE  H15S19775   4.406   6.754   9.386  2.4820  0.6663 -0.6623
  174SOPE  C21619776   4.327   6.643   9.220 -0.0730 -0.1024  0.5227
  174SOPE  H16R19777   4.266   6.663   9.129  0.8002  0.9237  0.1260
  174SOPE  H16S19778   4.254   6.598   9.291  1.3205 -1.0984  1.3788
  174SOPE  C21719779   4.444   6.547   9.206 -0.9385  0.6750 -0.0269
  174SOPE  H17R19780   4.494   6.535   9.304  0.7914  1.5773 -0.7543
  174SOPE  H17S19781   4.518   6.601   9.143  0.3003  1.4682  2.0176
  174SOPE  C21819782   4.416   6.411   9.141  0.7391  0.7382 -0.6833
  174SOPE  H18R19783   4.505   6.372   9.086  0.3332  0.8756 -1.4557
  174SOPE  H18S19784   4.333   6.410   9.067  0.4625 -0.3363 -0.3656
  174SOPE  H18T19785   4.383   6.346   9.224 -0.5864  0.9127 -1.0562
  174SOPE   C3319786   4.174   6.735   9.911  0.3275  0.5061  0.2201
  174SOPE   H3X19787   4.145   6.628   9.919 -1.3884  0.8112 -1.0888
  174SOPE   H3Y19788   4.277   6.744   9.951 -0.2886  0.0995  1.9915
  174SOPE   C3419789   4.169   6.776   9.764  0.6063  0.0266 -0.3205
  174SOPE   H4X19790   4.252   6.726   9.710  2.1189  0.4242  1.5080
  174SOPE   H4Y19791   4.194   6.884   9.767  1.6814 -0.2347  1.1153
  174SOPE   C3519792   4.032   6.755   9.702 -0.1522  0.9260  0.7704
  174SOPE   H5X19793   3.943   6.786   9.761 -2.1056 -1.1849 -0.8601
  174SOPE   H5Y19794   4.020   6.645   9.692  2.0941  0.8815 -4.0797
  174SOPE   C3619795   4.032   6.820   9.562  0.1863  1.1357 -0.0799
  174SOPE   H6X19796   4.117   6.779   9.503  0.9482  3.8018 -0.9823
  174SOPE   H6Y19797   4.060   6.928   9.566 -1.2936  1.5519 -0.2962
  174SOPE   C3719798   3.902   6.795   9.492 -0.3311 -0.3204 -0.4813
  174SOPE   H7X19799   3.815   6.817   9.557 -2.0373 -1.4094 -2.2904
  174SOPE   H7Y19800   3.896   6.689   9.459 -6.1136 -0.2217 -0.7468
  174SOPE   C3819801   3.870   6.887   9.370  0.3361 -1.0181  0.6022
  174SOPE   H8X19802   3.868   6.990   9.409  1.8390 -0.2150 -1.2696
  174SOPE   H8Y19803   3.774   6.847   9.330  0.5788 -2.0293  0.9851
  174SOPE   C3919804   3.963   6.873   9.245  0.2798  0.1491 -0.2997
  174SOPE   H9X19805   4.067   6.877   9.285  0.6728  2.8179 -1.3783
  174SOPE   H9Y19806   3.962   6.970   9.191  0.3666  0.7709  0.7732
  174SOPE  C31019807   3.932   6.753   9.149 -0.2435 -0.3839  0.3158
  174SOPE  H10X19808   3.823   6.759   9.128 -0.0916 -1.6195 -0.9582
  174SOPE  H10Y19809   3.948   6.659   9.206 -1.1586 -0.4910  0.4100
  174SOPE  C31119810   4.012   6.760   9.021  0.2493  0.5646  0.2051
  174SOPE  H11X19811   4.122   6.771   9.027  0.1693  1.6436 -0.0933
  174SOPE  H11Y19812   3.972   6.834   8.949 -0.7530  1.1391  1.2990
  174SOPE  C31219813   4.001   6.634   8.941  0.4087  0.3083  0.7673
  174SOPE  H12X19814   4.021   6.545   9.005  1.3029 -2.0320 -2.5108
  174SOPE  H12Y19815   4.069   6.625   8.854 -1.1487 -1.7384 -0.3313
  174SOPE  C31319816   3.856   6.609   8.887 -0.6283  0.1047 -0.4437
  174SOPE  H13X19817   3.813   6.694   8.829 -5.1714 -0.8880  1.0530
  174SOPE  H13Y19818   3.780   6.607   8.968  1.4759  0.2887  1.6287
  174SOPE  C31419819   3.870   6.498   8.780 -0.5055  1.0457  0.1250
  174SOPE  H14X19820   3.882   6.398   8.827 -0.4804  0.4332 -1.1376
  174SOPE  H14Y19821   3.957   6.523   8.717 -0.6824 -2.0842 -1.6150
  174SOPE  C31519822   3.744   6.481   8.694  0.3289 -0.9201 -0.2286
  174SOPE  H15X19823   3.713   6.577   8.647  0.7416 -0.3384  0.6617
  174SOPE  H15Y19824   3.667   6.445   8.766  0.4120  0.3398  0.5208
  174SOPE  C31619825   3.758   6.385   8.574  0.9740 -0.0162  0.1056
  174SOPE  H16X19826   3.739   6.280   8.605 -0.7573  0.0368 -0.6264
  174SOPE  H16Y19827   3.853   6.393   8.518 -0.1246  1.0478 -1.7171
  174SOPE  C31719828   3.651   6.416   8.474  0.6725  0.3787 -0.0997
  174SOPE  H17X19829   3.672   6.516   8.430 -1.2878  0.9448  0.1298
  174SOPE  H17Y19830   3.557   6.424   8.533 -0.3952  1.4123 -1.8293
  174SOPE  C31819831   3.640   6.317   8.357  0.2815  0.2066 -0.5681
  174SOPE  H18X19832   3.550   6.331   8.293  0.2689 -0.0025 -0.5960
  174SOPE  H18Y19833   3.651   6.211   8.386  2.6414 -0.1558 -2.4779
  174SOPE  H18Z19834   3.724   6.333   8.286  2.6497 -0.0625  2.0397
  175SOPE     N19835   0.334   0.859  10.781 -0.4007  0.2772  0.3240
  175SOPE   HN119836   0.408   0.869  10.853  0.8394  1.9972 -1.1122
  175SOPE   HN219837   0.264   0.936  10.777 -1.0670 -0.3616 -2.8166
  175SOPE   HN319838   0.277   0.772  10.790  0.0613 -0.3554 -2.0188
  175SOPE   C1219839   0.411   0.852  10.649 -0.4701  0.9122 -0.5191
  175SOPE  H12A19840   0.332   0.825  10.575 -1.9457  0.4085  1.1554
  175SOPE  H12B19841   0.486   0.771  10.645 -0.6083  0.8125 -1.3548
  175SOPE   C1119842   0.486   0.977  10.603  0.8654  0.0902 -0.2577
  175SOPE  H11A19843   0.526   0.960  10.501  0.2107 -2.1146 -0.1976
  175SOPE  H11B19844   0.588   0.977  10.648  2.0617 -0.6724 -2.7678
  175SOPE     P19845   0.478   1.232  10.592  0.0966  0.3935 -0.2265
  175SOPE   O1319846   0.604   1.238  10.666  0.0895 -0.1682 -0.4558
  175SOPE   O1419847   0.372   1.336  10.622  0.6900  0.0101  0.1797
  175SOPE   O1219848   0.411   1.096  10.613 -0.1407 -0.1030 -0.3672
  175SOPE   O1119849   0.514   1.234  10.435  0.2173  0.3952  0.4189
  175SOPE    C119850   0.435   1.165  10.337 -0.1426  0.0308  0.2502
  175SOPE    HA19851   0.332   1.144  10.371 -0.6222 -0.8066 -1.5907
  175SOPE    HB19852   0.475   1.062  10.322 -0.2339  0.3599 -2.7598
  175SOPE    C219853   0.426   1.249  10.214 -0.1425  0.5746 -1.2236
  175SOPE    HS19854   0.399   1.352  10.245  2.2095  1.1690 -0.9606
  175SOPE   O2119855   0.338   1.182  10.114 -0.3106  0.5255  0.0726
  175SOPE   C2119856   0.208   1.208  10.141 -0.2747 -0.7167  0.1349
  175SOPE   O2219857   0.169   1.286  10.222  0.1295  0.4203 -0.3446
  175SOPE   C2219858   0.124   1.116  10.051 -0.6691 -0.9158  0.4091
  175SOPE   H2R19859   0.191   1.035  10.016  1.0347 -0.6633  2.8457
  175SOPE   H2S19860   0.100   1.164   9.954 -2.3564 -1.9885  0.2614
  175SOPE    C319861   0.568   1.246  10.153 -0.6621 -0.5532  0.2994
  175SOPE    HX19862   0.576   1.144  10.109 -1.4102  0.2376 -1.7903
  175SOPE    HY19863   0.645   1.264  10.231  0.5293  1.0801 -1.1708
  175SOPE   O3119864   0.594   1.354  10.054 -0.2793 -0.0996 -0.1298
  175SOPE   C3119865   0.669   1.327   9.949  0.5876  0.1936 -0.0829
  175SOPE   O3219866   0.718   1.219   9.929 -0.3168  0.2066 -0.3113
  175SOPE   C3219867   0.678   1.454   9.852 -0.0201  0.5932 -0.8093
  175SOPE   H2X19868   0.741   1.532   9.898 -0.3001 -0.6928  1.9798
  175SOPE   H2Y19869   0.574   1.487   9.833  0.1917  0.2163 -2.7675
  175SOPE   C2319870  -0.004   1.049  10.106 -0.3778  0.0339 -0.5997
  175SOPE   H3R19871  -0.089   1.119  10.090  0.1107  0.5426 -1.0095
  175SOPE   H3S19872  -0.002   1.030  10.215 -2.1709 -0.7092 -0.6645
  175SOPE   C2419873  -0.037   0.919  10.029 -0.1449  0.3356  0.3492
  175SOPE   H4R19874   0.046   0.845  10.031  0.5083  1.0768  1.8544
  175SOPE   H4S19875  -0.120   0.878  10.091  1.3101 -0.5847  1.7662
  175SOPE   C2519876  -0.084   0.952   9.890  0.5026  0.6500  0.0246
  175SOPE   H5R19877  -0.166   1.027   9.890  1.0901  1.5115  3.7018
  175SOPE   H5S19878  -0.001   1.000   9.833  1.9047 -1.3858  0.2588
  175SOPE   C2619879  -0.138   0.822   9.820  0.0557 -0.5619 -0.2517
  175SOPE   H6R19880  -0.061   0.742   9.812  0.1351 -0.3484 -1.9426
  175SOPE   H6S19881  -0.231   0.796   9.875  1.2648 -0.2974  2.0411
  175SOPE   C2719882  -0.172   0.856   9.672  1.0263 -0.2228 -0.5531
  175SOPE   H7R19883  -0.104   0.933   9.631  0.7648 -0.4794 -1.5024
  175SOPE   H7S19884  -0.168   0.762   9.612  0.3125  0.6200 -1.9728
  175SOPE   C2819885  -0.316   0.914   9.665 -0.9664 -0.4917  0.1275
  175SOPE   H8R19886  -0.387   0.845   9.715 -1.7800 -0.2570 -0.6737
  175SOPE   H8S19887  -0.322   1.006   9.727  0.6903  0.4623 -1.0120
  175SOPE   C2919888  -0.368   0.947   9.523 -0.6742 -0.5315 -0.2017
  175SOPE   H9119889  -0.353   1.050   9.490 -0.3992 -0.9320 -1.3746
  175SOPE  C21019890  -0.392   0.856   9.424 -1.1827  0.3708 -0.3443
  175SOPE  H10119891  -0.433   0.890   9.327 -0.5913 -0.6591 -0.9688
  175SOPE  C21119892  -0.380   0.708   9.433 -0.7776 -0.2757  0.1531
  175SOPE  H11R19893  -0.473   0.660   9.397 -1.0246  1.4435 -1.6309
  175SOPE  H11S19894  -0.366   0.670   9.537 -2.0708 -0.5127  0.2546
  175SOPE  C21219895  -0.269   0.642   9.343  0.1021  0.0528  0.0543
  175SOPE  H12R19896  -0.275   0.532   9.359 -2.3672 -0.1239 -1.5664
  175SOPE  H12S19897  -0.174   0.677   9.391  0.3419 -1.1439  0.4887
  175SOPE  C21319898  -0.273   0.668   9.192  0.0693 -1.0412 -0.7461
  175SOPE  H13R19899  -0.186   0.611   9.154  1.0678 -0.3605  0.4535
  175SOPE  H13S19900  -0.270   0.779   9.179 -2.0048 -0.8752 -0.1957
  175SOPE  C21419901  -0.402   0.621   9.133 -0.3903 -0.3077  0.5336
  175SOPE  H14R19902  -0.477   0.693   9.170 -1.9426 -2.2922  1.3866
  175SOPE  H14S19903  -0.434   0.522   9.169 -0.2654 -0.2017  0.9373
  175SOPE  C21519904  -0.417   0.625   8.981  0.2949  0.0026 -0.1321
  175SOPE  H15R19905  -0.521   0.598   8.953  0.3220  1.6848 -2.1042
  175SOPE  H15S19906  -0.359   0.540   8.939 -1.0582 -1.3889  0.7406
  175SOPE  C21619907  -0.374   0.755   8.921 -0.1805 -0.0310 -0.4709
  175SOPE  H16R19908  -0.266   0.764   8.944 -0.4265 -1.0057  1.2648
  175SOPE  H16S19909  -0.416   0.837   8.984 -2.2079 -1.4474  0.1343
  175SOPE  C21719910  -0.411   0.782   8.777 -1.1228 -0.0164 -0.0701
  175SOPE  H17R19911  -0.359   0.710   8.712  0.8506  2.0157 -0.8514
  175SOPE  H17S19912  -0.366   0.876   8.739  0.7661 -1.0150 -0.4047
  175SOPE  C21819913  -0.562   0.770   8.747  0.1301 -0.3712  0.6380
  175SOPE  H18R19914  -0.613   0.831   8.824  1.0920  4.0668 -1.9194
  175SOPE  H18S19915  -0.590   0.662   8.743 -0.7500 -0.3603  3.8105
  175SOPE  H18T19916  -0.584   0.815   8.648 -1.4741  3.0236  2.3835
  175SOPE   C3319917   0.740   1.423   9.712  0.2328  0.5729 -0.2250
  175SOPE   H3X19918   0.665   1.358   9.662  1.4473 -1.4113  0.4264
  175SOPE   H3Y19919   0.838   1.371   9.713  0.7599  1.2841 -3.3051
  175SOPE   C3419920   0.761   1.543   9.619  0.7874  0.0668 -1.0302
  175SOPE   H4X19921   0.772   1.642   9.667  0.3918  0.4181 -1.6436
  175SOPE   H4Y19922   0.658   1.553   9.578  0.8457 -0.0870 -1.2141
  175SOPE   C3519923   0.849   1.518   9.502  0.3888 -0.3005  0.0290
  175SOPE   H5X19924   0.954   1.504   9.534  0.0380 -0.4758  1.1424
  175SOPE   H5Y19925   0.844   1.608   9.436  1.1000  0.0774  0.4776
  175SOPE   C3619926   0.797   1.397   9.419 -0.1383 -0.1553 -0.5116
  175SOPE   H6X19927   0.687   1.408   9.422 -0.1852 -0.8362  1.7894
  175SOPE   H6Y19928   0.827   1.300   9.463  0.0675 -0.8234 -2.0769
  175SOPE   C3719929   0.842   1.406   9.273  0.5619  0.3019  0.9595
  175SOPE   H7X19930   0.794   1.490   9.217 -2.1555 -1.6524  0.1645
  175SOPE   H7Y19931   0.809   1.310   9.228 -0.8773  1.4855 -0.6495
  175SOPE   C3819932   0.992   1.436   9.241  0.6117  0.6754  0.3406
  175SOPE   H8X19933   1.060   1.388   9.315  1.8952 -0.1541 -1.3030
  175SOPE   H8Y19934   0.998   1.546   9.254 -0.2952  0.5204  2.2766
  175SOPE   C3919935   1.018   1.372   9.104  0.1832 -0.5823 -0.0812
  175SOPE   H9X19936   1.105   1.425   9.059 -0.8456  0.2029 -1.2015
  175SOPE   H9Y19937   0.933   1.382   9.034  1.2531 -1.4904 -1.5921
  175SOPE  C31019938   1.051   1.218   9.099  0.6315 -0.7899  0.4652
  175SOPE  H10X19939   0.961   1.161   9.129  0.3903  0.5572  2.4826
  175SOPE  H10Y19940   1.129   1.203   9.176 -0.2811 -1.2057  1.3186
  175SOPE  C31119941   1.093   1.171   8.957  0.0031  0.4131  0.6173
  175SOPE  H11X19942   1.141   1.070   8.961  0.0654  0.3241 -1.3322
  175SOPE  H11Y19943   1.166   1.240   8.908  0.3455 -0.4158 -0.0700
  175SOPE  C31219944   0.970   1.169   8.863  0.0069  0.0717 -0.2269
  175SOPE  H12X19945   0.934   1.260   8.809 -0.5729 -1.3651 -2.3828
  175SOPE  H12Y19946   0.884   1.132   8.922  1.4013 -2.0727  0.5584
  175SOPE  C31319947   0.997   1.057   8.751 -0.3515 -0.1840 -0.3790
  175SOPE  H13X19948   0.903   1.026   8.702  0.5010 -1.8920 -1.0224
  175SOPE  H13Y19949   1.025   0.964   8.806  4.1610  1.3721  0.3723
  175SOPE  C31419950   1.109   1.101   8.650 -0.5823 -0.4653 -0.3794
  175SOPE  H14X19951   1.205   1.110   8.704 -0.4483  0.7121 -0.7723
  175SOPE  H14Y19952   1.064   1.197   8.615  0.2337  0.6285  1.4406
  175SOPE  C31519953   1.128   1.008   8.527  0.9102 -0.3350  0.0062
  175SOPE  H15X19954   1.035   1.003   8.466  0.8923  2.0551 -0.2459
  175SOPE  H15Y19955   1.150   0.907   8.566  1.4090  0.1077  0.8944
  175SOPE  C31619956   1.246   1.058   8.440 -0.3147 -0.1328 -0.2348
  175SOPE  H16X19957   1.341   1.032   8.492 -0.4265  0.3029  0.1950
  175SOPE  H16Y19958   1.245   1.168   8.423 -1.2160 -0.4115 -2.3373
  175SOPE  C31719959   1.248   0.982   8.302  0.2089 -0.4687  0.4793
  175SOPE  H17X19960   1.274   0.875   8.316  2.3065 -0.0121  0.4154
  175SOPE  H17Y19961   1.328   1.028   8.241 -1.9396  1.9103 -0.7669
  175SOPE  C31819962   1.116   0.996   8.224  0.4736  0.1749  0.1686
  175SOPE  H18X19963   1.036   0.947   8.285  0.2980 -0.1625 -0.3247
  175SOPE  H18Y19964   1.116   0.960   8.119 -1.2834 -1.2808  0.6079
  175SOPE  H18Z19965   1.089   1.103   8.224  0.3684  0.2227  2.9976
  176SOPE     N19966   4.863   6.656  10.804 -0.5310 -0.7622  0.8156
  176SOPE   HN119967   4.865   6.752  10.843 -0.3738  0.4496 -1.9648
  176SOPE   HN219968   4.782   6.655  10.738  1.0280 -0.3322 -1.2151
  176SOPE   HN319969   4.863   6.580  10.875 -1.3439 -1.6539 -0.1039
  176SOPE   C1219970   4.991   6.654  10.721 -0.0459 -0.0263  0.3671
  176SOPE  H12A19971   4.982   6.731  10.642  4.0147  0.6098  0.2835
  176SOPE  H12B19972   5.003   6.551  10.681  0.6824 -0.3277  1.3129
  176SOPE   C1119973   5.120   6.701  10.798 -0.9913 -0.0871  0.6386
  176SOPE  H11A19974   5.111   6.804  10.839  1.1587  1.4031 -2.2506
  176SOPE  H11B19975   5.202   6.726  10.727 -0.5564 -0.7828  0.8917
  176SOPE     P19976   5.283   6.510  10.903  0.2647 -0.2249  0.3822
  176SOPE   O1319977   5.223   6.377  10.929 -0.2016  0.5477 -0.1096
  176SOPE   O1419978   5.380   6.562  10.996  0.3786  0.3079  0.3299
  176SOPE   O1219979   5.160   6.610  10.898  0.2230  0.0863  0.0596
  176SOPE   O1119980   5.333   6.518  10.758  0.3227 -0.1158 -0.0707
  176SOPE    C119981   5.424   6.444  10.684  0.2365 -0.4505  0.3999
  176SOPE    HA19982   5.484   6.376  10.748 -0.9144 -0.5110  1.4563
  176SOPE    HB19983   5.493   6.518  10.638  0.4739 -1.5414 -1.1132
  176SOPE    C219984   5.340   6.369  10.581 -0.3116 -0.1279  0.3062
  176SOPE    HS19985   5.277   6.294  10.634 -1.1217 -2.3559 -3.4728
  176SOPE   O2119986   5.438   6.308  10.488  0.2814 -0.6242 -0.2326
  176SOPE   C2119987   5.395   6.193  10.437  0.5299 -0.5456  0.9591
  176SOPE   O2219988   5.309   6.120  10.485 -0.1494 -0.1877 -0.0398
  176SOPE   C2219989   5.464   6.171  10.295 -0.0161  0.4495  0.3304
  176SOPE   H2R19990   5.572   6.178  10.322 -0.0743 -2.3229  1.6559
  176SOPE   H2S19991   5.422   6.255  10.235 -1.3939 -0.7557 -0.4530
  176SOPE    C319992   5.256   6.459  10.491 -0.5115 -0.6106  0.2956
  176SOPE    HX19993   5.322   6.533  10.441  1.8009 -2.9277 -0.3362
  176SOPE    HY19994   5.181   6.510  10.555  1.1495  0.7117  1.2686
  176SOPE   O3119995   5.191   6.392  10.378 -0.3062  0.5001  0.4285
  176SOPE   C3119996   5.074   6.336  10.403  0.3518  0.0983  0.3545
  176SOPE   O3219997   5.017   6.340  10.509 -0.2714 -0.3188 -0.2396
  176SOPE   C3219998   5.016   6.266  10.271 -0.2278  0.0579  0.0090
  176SOPE   H2X19999   5.021   6.158  10.294 -1.0032 -0.4542 -2.0150
  176SOPE   H2Y20000   5.084   6.284  10.185 -1.5509  1.4840 -0.8047
  176SOPE   C2320001   5.427   6.033  10.238  0.9888 -0.1292  0.5715
  176SOPE   H3R20002   5.437   5.956  10.318  4.3285 -1.3150 -0.8418
  176SOPE   H3S20003   5.497   5.999  10.160 -0.2230  3.1799 -2.2363
  176SOPE   C2420004   5.283   6.021  10.185  0.4709  0.3022  1.0345
  176SOPE   H4R20005   5.259   5.912  10.182  1.1403  0.1395 -1.7257
  176SOPE   H4S20006   5.207   6.068  10.251 -0.1475  1.2479 -0.3068
  176SOPE   C2520007   5.279   6.081  10.037 -0.0031 -0.0955  0.4778
  176SOPE   H5R20008   5.304   6.190  10.042 -0.2709 -0.0023 -0.1662
  176SOPE   H5S20009   5.355   6.025   9.979 -1.3369 -2.1162  0.5786
  176SOPE   C2620010   5.138   6.069   9.967 -0.2176  0.4798 -0.3816
  176SOPE   H6R20011   5.118   5.961   9.951 -3.3709  1.0597 -1.1216
  176SOPE   H6S20012   5.056   6.106  10.033 -1.7233 -2.2773 -0.5445
  176SOPE   C2720013   5.128   6.145   9.830  0.0901  0.5483 -0.4893
  176SOPE   H7R20014   5.135   6.252   9.860 -0.9533  0.0581  1.6657
  176SOPE   H7S20015   5.226   6.123   9.781  0.5893  1.3708  0.1067
  176SOPE   C2820016   4.996   6.123   9.749 -0.1545 -0.1006 -0.1659
  176SOPE   H8R20017   4.971   6.015   9.745  2.2228 -0.7310  0.4688
  176SOPE   H8S20018   4.917   6.166   9.814 -0.4437 -4.0506  2.4385
  176SOPE   C2920019   4.984   6.196   9.619  0.1587 -0.3842 -0.5459
  176SOPE   H9120020   4.947   6.298   9.635  0.4155 -0.3945  0.1453
  176SOPE  C21020021   5.014   6.164   9.492  0.0213  0.2120 -0.1707
  176SOPE  H10120022   4.996   6.238   9.413 -0.2428  0.3425  0.0089
  176SOPE  C21120023   5.064   6.034   9.443 -0.0133  0.6685 -0.1002
  176SOPE  H11R20024   5.010   5.988   9.358 -0.0576  0.5676 -0.0182
  176SOPE  H11S20025   5.047   5.962   9.526 -1.3103  1.4446  0.3310
  176SOPE  C21220026   5.209   6.042   9.394 -0.2284 -0.1578 -0.0225
  176SOPE  H12R20027   5.244   5.937   9.382  1.2815  0.3101  0.0878
  176SOPE  H12S20028   5.280   6.075   9.472  1.8967 -0.5569 -1.6833
  176SOPE  C21320029   5.235   6.121   9.270  0.4489 -0.0443 -0.5999
  176SOPE  H13R20030   5.345   6.136   9.280  0.4632 -0.6014  0.1096
  176SOPE  H13S20031   5.191   6.223   9.281  0.0184 -0.3025  0.1642
  176SOPE  C21420032   5.211   6.046   9.135  0.6571 -0.1016  0.7061
  176SOPE  H14R20033   5.155   6.115   9.069  0.7756 -1.0384 -0.4050
  176SOPE  H14S20034   5.148   5.955   9.150  1.4244 -0.7243  0.2266
  176SOPE  C21520035   5.338   5.993   9.067  0.3709 -0.4496  0.2457
  176SOPE  H15R20036   5.383   5.907   9.119 -1.0819  1.1787  4.6564
  176SOPE  H15S20037   5.419   6.069   9.059  0.3817 -0.5226 -0.4336
  176SOPE  C21620038   5.296   5.950   8.922  0.2269  0.4601  0.4351
  176SOPE  H16R20039   5.391   5.913   8.877 -0.7331 -1.0694 -0.4474
  176SOPE  H16S20040   5.265   6.032   8.854  3.0161 -1.0591 -2.9979
  176SOPE  C21720041   5.196   5.833   8.912 -0.0912  0.4265  0.0406
  176SOPE  H17R20042   5.095   5.879   8.902 -0.9398 -1.2838  0.4587
  176SOPE  H17S20043   5.199   5.787   9.013  1.6004 -0.0446 -0.1896
  176SOPE  C21820044   5.227   5.742   8.800  0.0070  0.4402  1.3284
  176SOPE  H18R20045   5.150   5.663   8.783  0.1613  0.7179 -0.8988
  176SOPE  H18S20046   5.321   5.686   8.823 -1.3445 -1.6949  2.0046
  176SOPE  H18T20047   5.250   5.805   8.712  0.6530  0.9717  1.8661
  176SOPE   C3320048   4.872   6.312  10.247 -0.4986  0.2823 -0.5256
  176SOPE   H3X20049   4.879   6.421  10.266  1.1701  0.1697 -0.3799
  176SOPE   H3Y20050   4.798   6.271  10.319  1.9887 -0.5524  1.7478
  176SOPE   C3420051   4.813   6.297  10.107 -0.5320  0.7521 -0.3093
  176SOPE   H4X20052   4.788   6.188  10.100  0.3550  0.1539  3.6574
  176SOPE   H4Y20053   4.889   6.329  10.033  0.6793 -2.2090 -0.5076
  176SOPE   C3520054   4.685   6.378  10.080  0.4254 -0.3057 -0.0434
  176SOPE   H5X20055   4.697   6.480  10.124 -2.8967  0.4649 -0.6289
  176SOPE   H5Y20056   4.593   6.336  10.127 -1.6555  3.3779 -0.4253
  176SOPE   C3620057   4.648   6.399   9.932  0.0773  0.4021 -0.3459
  176SOPE   H6X20058   4.549   6.449   9.923 -0.8804 -1.2990  0.2109
  176SOPE   H6Y20059   4.627   6.302   9.882 -3.0376  0.2589  1.0164
  176SOPE   C3720060   4.751   6.474   9.849  0.4135  0.6088  0.2099
  176SOPE   H7X20061   4.843   6.413   9.836 -1.4828 -2.3175 -0.2769
  176SOPE   H7Y20062   4.791   6.566   9.898  0.5256  0.4422  0.4318
  176SOPE   C3820063   4.698   6.509   9.709 -0.1270  0.3807  0.4266
  176SOPE   H8X20064   4.613   6.575   9.733 -1.9482 -1.8335  0.3863
  176SOPE   H8Y20065   4.656   6.413   9.672  0.5239  0.7890 -1.5170
  176SOPE   C3920066   4.800   6.577   9.616 -0.2596 -0.1304 -0.7955
  176SOPE   H9X20067   4.891   6.515   9.604 -0.2966 -0.3249 -0.1324
  176SOPE   H9Y20068   4.829   6.676   9.658 -0.6467 -0.0201 -0.7818
  176SOPE  C31020069   4.758   6.583   9.471 -0.7499  0.0929 -0.7189
  176SOPE  H10X20070   4.740   6.690   9.450 -1.4413  0.0540 -0.3411
  176SOPE  H10Y20071   4.663   6.527   9.461  0.1413 -2.3242  2.6165
  176SOPE  C31120072   4.856   6.513   9.373 -0.2942  0.2933 -1.1220
  176SOPE  H11X20073   4.899   6.415   9.399 -1.5852 -0.7590 -2.7323
  176SOPE  H11Y20074   4.947   6.577   9.375  1.5735 -2.2378  1.5486
  176SOPE  C31220075   4.800   6.509   9.231 -0.8776 -0.0923  0.2828
  176SOPE  H12X20076   4.755   6.605   9.198 -0.6608 -0.2895 -0.6036
  176SOPE  H12Y20077   4.714   6.439   9.233 -0.9149 -0.1680 -1.8052
  176SOPE  C31320078   4.886   6.441   9.118  0.1918 -0.6461  0.7381
  176SOPE  H13X20079   4.813   6.409   9.041  0.8724 -2.3142  0.7386
  176SOPE  H13Y20080   4.939   6.356   9.168  0.8984 -0.2184  0.7213
  176SOPE  C31420081   4.986   6.543   9.058 -0.9878 -0.5886  0.0470
  176SOPE  H14X20082   5.037   6.485   8.978 -2.2245  0.2539 -1.4185
  176SOPE  H14Y20083   5.061   6.570   9.135 -0.8933 -2.4210  0.6595
  176SOPE  C31520084   4.933   6.665   8.987 -0.0657  0.5955 -0.5989
  176SOPE  H15X20085   5.014   6.718   8.933  1.4342 -1.3216 -0.3509
  176SOPE  H15Y20086   4.896   6.719   9.076 -0.4612 -1.6994  0.7047
  176SOPE  C31620087   4.819   6.665   8.898 -0.1245  0.1421 -0.0227
  176SOPE  H16X20088   4.788   6.771   8.908  0.0853  0.1937  0.1039
  176SOPE  H16Y20089   4.735   6.603   8.936  0.9334 -0.5901  1.2099
  176SOPE  C31720090   4.868   6.625   8.753  0.7591 -0.3662  0.2918
  176SOPE  H17X20091   4.973   6.588   8.748  1.2528  1.1038 -1.5170
  176SOPE  H17Y20092   4.844   6.716   8.694  0.8030 -0.9576 -0.6655
  176SOPE  C31820093   4.762   6.519   8.712 -0.0650 -0.3081 -0.3681
  176SOPE  H18X20094   4.781   6.475   8.612  0.8954 -1.9840  0.5117
  176SOPE  H18Y20095   4.659   6.560   8.709 -0.9423 -2.1801  1.6633
  176SOPE  H18Z20096   4.762   6.444   8.793 -0.4396  1.8989  1.7778
  177SOPE     N20097   5.421   5.657  10.752  0.0982 -0.1375 -0.0008
  177SOPE   HN120098   5.413   5.704  10.660 -0.2583 -0.0098  0.0959
  177SOPE   HN220099   5.515   5.663  10.798  0.1039 -0.6174  0.0592
  177SOPE   HN320100   5.413   5.556  10.731  0.0196 -0.0831 -0.2304
  177SOPE   C1220101   5.293   5.680  10.834  0.3525  0.6390 -0.4965
  177SOPE  H12A20102   5.260   5.786  10.830 -0.9449  0.3254  0.8820
  177SOPE  H12B20103   5.316   5.643  10.936  2.0971 -1.7762 -1.6740
  177SOPE   C1120104   5.183   5.573  10.790 -0.9237 -0.1133  0.3747
  177SOPE  H11A20105   5.157   5.613  10.690  0.3350  1.9515  0.8241
  177SOPE  H11B20106   5.095   5.564  10.858 -1.2814 -0.2104 -0.0911
  177SOPE     P20107   5.151   5.329  10.720  0.2033  0.0277  0.1654
  177SOPE   O1320108   5.007   5.371  10.719 -0.3962 -0.1802  0.6693
  177SOPE   O1420109   5.181   5.206  10.792  0.5351 -0.3362 -0.3872
  177SOPE   O1220110   5.240   5.444  10.776  0.8218 -0.2308  0.2129
  177SOPE   O1120111   5.210   5.319  10.573  0.0749 -0.1997 -0.5455
  177SOPE    C120112   5.178   5.422  10.478  0.4849  0.1749  0.0024
  177SOPE    HA20113   5.264   5.492  10.483  0.9788 -0.4255 -0.0002
  177SOPE    HB20114   5.084   5.479  10.494 -1.4911 -1.5232 -4.1023
  177SOPE    C220115   5.169   5.367  10.332  0.2907 -0.3067  0.0847
  177SOPE    HS20116   5.121   5.266  10.332 -0.1225 -0.1249  1.3291
  177SOPE   O2120117   5.305   5.363  10.291 -0.4813 -0.2266  0.0030
  177SOPE   C2120118   5.354   5.240  10.267  0.3082  0.1958  0.3432
  177SOPE   O2220119   5.297   5.135  10.278  0.5049  0.2235  0.2146
  177SOPE   C2220120   5.498   5.240  10.210 -0.2618  0.3051 -0.4379
  177SOPE   H2R20121   5.553   5.207  10.301 -1.5356  1.6630  0.8991
  177SOPE   H2S20122   5.515   5.347  10.186  2.3802  0.0380  0.0177
  177SOPE    C320123   5.097   5.470  10.233 -0.6516 -0.1979 -0.1959
  177SOPE    HX20124   5.157   5.562  10.219  1.8865 -1.5728  0.9531
  177SOPE    HY20125   5.006   5.498  10.291  0.3581  1.3141  0.7115
  177SOPE   O3120126   5.090   5.411  10.102 -0.2297  0.1090  0.6913
  177SOPE   C3120127   4.987   5.322  10.093 -0.6113  0.1173  0.0910
  177SOPE   O3220128   4.912   5.298  10.187 -0.2138  0.4469  0.3638
  177SOPE   C3220129   4.994   5.235   9.961 -0.7924 -0.6337  0.1803
  177SOPE   H2X20130   4.929   5.148   9.981  1.0256 -1.6330  2.1524
  177SOPE   H2Y20131   5.099   5.200   9.954 -0.3816  0.7998 -1.6398
  177SOPE   C2320132   5.523   5.145  10.092 -0.6468 -0.3243  0.6744
  177SOPE   H3R20133   5.479   5.045  10.111 -1.7814  0.4020  1.9496
  177SOPE   H3S20134   5.630   5.118  10.075 -0.4270  0.1196  1.3054
  177SOPE   C2420135   5.463   5.190   9.955 -0.1803 -0.6939  0.3811
  177SOPE   H4R20136   5.364   5.235   9.976  0.3652  0.2808  0.9177
  177SOPE   H4S20137   5.522   5.275   9.913 -0.3297 -2.6130 -4.3930
  177SOPE   C2520138   5.464   5.077   9.853  1.1399 -0.6092  0.0562
  177SOPE   H5R20139   5.557   5.025   9.824  0.0011 -2.7060 -0.0432
  177SOPE   H5S20140   5.396   5.002   9.898 -1.9793  2.2311  0.4929
  177SOPE   C2620141   5.394   5.135   9.729  0.1137 -0.3077 -0.4840
  177SOPE   H6R20142   5.291   5.170   9.754 -0.0308 -1.0710  0.0235
  177SOPE   H6S20143   5.455   5.223   9.700 -0.2154 -0.7486 -2.7302
  177SOPE   C2720144   5.385   5.030   9.619  0.2580  0.3696  0.1856
  177SOPE   H7R20145   5.486   5.002   9.581  0.3189 -0.0255  0.6226
  177SOPE   H7S20146   5.339   4.941   9.667 -2.8050  2.4031  1.3195
  177SOPE   C2820147   5.308   5.074   9.502 -0.5665  0.0579  0.3922
  177SOPE   H8R20148   5.218   5.133   9.531 -1.3584 -0.7639 -0.3460
  177SOPE   H8S20149   5.368   5.148   9.445 -0.8166  0.7208  0.9738
  177SOPE   C2920150   5.265   4.961   9.406 -0.9087 -0.5315 -0.1414
  177SOPE   H9120151   5.175   4.907   9.439 -1.4907 -0.1532 -1.0522
  177SOPE  C21020152   5.307   4.944   9.282 -0.2868 -0.7214  1.0439
  177SOPE  H10120153   5.286   4.853   9.224 -1.2517  1.8160 -2.9754
  177SOPE  C21120154   5.392   5.043   9.206  0.2339  0.5035  0.3342
  177SOPE  H11R20155   5.497   5.043   9.245 -0.1949  2.0764  1.6271
  177SOPE  H11S20156   5.365   5.151   9.210  0.5606  0.6312 -0.7445
  177SOPE  C21220157   5.391   5.009   9.046 -0.1721 -0.5632 -0.9490
  177SOPE  H12R20158   5.462   5.079   8.997  0.4431  0.8525  1.7884
  177SOPE  H12S20159   5.293   5.039   9.004  0.3622  0.6762 -1.3448
  177SOPE  C21320160   5.431   4.866   9.011 -0.2108 -0.0798 -0.3193
  177SOPE  H13R20161   5.378   4.781   9.060  1.2159 -0.7066  0.1881
  177SOPE  H13S20162   5.541   4.855   9.025  0.0233  1.4397 -0.7310
  177SOPE  C21420163   5.394   4.837   8.867 -0.2707 -0.1722 -0.4874
  177SOPE  H14R20164   5.459   4.909   8.812  0.6053 -1.5309 -1.3019
  177SOPE  H14S20165   5.292   4.877   8.850  0.7868  2.7099 -0.7582
  177SOPE  C21520166   5.419   4.692   8.827 -0.0347  0.2567  0.5202
  177SOPE  H15R20167   5.340   4.628   8.872 -1.1025  1.1120 -0.1055
  177SOPE  H15S20168   5.512   4.657   8.875 -1.4001 -1.7647  1.8592
  177SOPE  C21620169   5.413   4.664   8.681  0.1367 -0.1688 -0.1076
  177SOPE  H16R20170   5.483   4.738   8.635 -0.9417  2.0339  1.5774
  177SOPE  H16S20171   5.315   4.676   8.631  0.4635  2.4164 -0.2977
  177SOPE  C21720172   5.458   4.520   8.641 -0.3010 -0.2433 -0.2649
  177SOPE  H17R20173   5.536   4.492   8.715 -0.2396 -0.1459 -0.2947
  177SOPE  H17S20174   5.489   4.518   8.534 -0.9187 -2.5194 -0.4617
  177SOPE  C21820175   5.346   4.409   8.653 -0.3072 -0.3456  0.9734
  177SOPE  H18R20176   5.292   4.405   8.750 -0.1128  2.0207  1.2455
  177SOPE  H18S20177   5.401   4.315   8.633  2.2459  0.3800  3.7465
  177SOPE  H18T20178   5.274   4.413   8.569  0.6339  0.0100  0.1707
  177SOPE   C3320179   4.964   5.310   9.829 -0.2186 -0.6230  0.0651
  177SOPE   H3X20180   5.045   5.386   9.819 -0.2696 -0.4159  1.1222
  177SOPE   H3Y20181   4.871   5.370   9.845  0.7464  0.4072  2.1835
  177SOPE   C3420182   4.947   5.230   9.702 -0.1248 -0.3852  0.2422
  177SOPE   H4X20183   4.866   5.156   9.713 -0.2930 -0.4368 -1.1573
  177SOPE   H4Y20184   5.041   5.176   9.677 -0.3484  0.0653 -1.7106
  177SOPE   C3520185   4.917   5.314   9.575  0.0938 -0.4394 -0.2482
  177SOPE   H5X20186   4.977   5.408   9.572  0.9106 -0.7035  3.0672
  177SOPE   H5Y20187   4.813   5.351   9.584 -0.4810 -2.1091  0.3128
  177SOPE   C3620188   4.927   5.241   9.441  0.0095 -0.3442 -0.4957
  177SOPE   H6X20189   4.850   5.161   9.444 -1.2472  0.8569 -0.1580
  177SOPE   H6Y20190   5.032   5.206   9.426  0.5814  1.3777 -0.7913
  177SOPE   C3720191   4.879   5.327   9.315 -0.1118  0.1002  0.2632
  177SOPE   H7X20192   4.947   5.414   9.310 -0.0735  0.1928  1.7349
  177SOPE   H7Y20193   4.771   5.344   9.330 -0.5155 -0.9775 -1.2094
  177SOPE   C3820194   4.878   5.247   9.178  0.3535 -0.2696 -0.2943
  177SOPE   H8X20195   4.836   5.145   9.194 -1.4534  0.6249  1.1053
  177SOPE   H8Y20196   4.980   5.214   9.149  0.1904 -1.5699  0.5459
  177SOPE   C3920197   4.802   5.317   9.071 -0.2178  0.1656 -0.2468
  177SOPE   H9X20198   4.851   5.404   9.024  0.1384  1.9255  3.0693
  177SOPE   H9Y20199   4.701   5.349   9.104 -1.5371  1.0906 -4.5960
  177SOPE  C31020200   4.763   5.213   8.961  0.0840  0.2781 -0.7162
  177SOPE  H10X20201   4.705   5.129   9.005 -1.8282  1.1922 -1.3338
  177SOPE  H10Y20202   4.852   5.178   8.904  0.3422  0.5232 -0.4677
  177SOPE  C31120203   4.670   5.270   8.849 -0.1269  0.4924 -0.3321
  177SOPE  H11X20204   4.660   5.185   8.778  1.1161  1.1869 -1.3644
  177SOPE  H11Y20205   4.709   5.364   8.804  1.6315 -0.4651 -0.8834
  177SOPE  C31220206   4.528   5.302   8.900 -0.9620  0.1973  0.2207
  177SOPE  H12X20207   4.518   5.390   8.968 -3.4457 -0.5598  0.9073
  177SOPE  H12Y20208   4.489   5.223   8.967 -3.1159  2.6126  2.0183
  177SOPE  C31320209   4.417   5.328   8.791  0.0844 -0.3206 -0.2035
  177SOPE  H13X20210   4.321   5.291   8.831  0.3224 -1.7986 -0.9374
  177SOPE  H13Y20211   4.451   5.259   8.711 -0.8238 -1.8073  0.6558
  177SOPE  C31420212   4.404   5.473   8.750  0.0905 -0.8701 -0.3673
  177SOPE  H14X20213   4.507   5.513   8.740  1.0385 -3.2278 -0.5869
  177SOPE  H14Y20214   4.354   5.542   8.821  0.8822 -0.0040 -0.6250
  177SOPE  C31520215   4.322   5.509   8.624  0.0328  1.0915 -1.2559
  177SOPE  H15X20216   4.398   5.464   8.556  3.0397  2.3167  1.1002
  177SOPE  H15Y20217   4.321   5.617   8.597  1.3109  0.9390 -1.9936
  177SOPE  C31620218   4.183   5.444   8.621 -0.2063  0.3956  0.5045
  177SOPE  H16X20219   4.140   5.425   8.722 -2.4175  2.8682  0.1206
  177SOPE  H16Y20220   4.190   5.348   8.566  2.7219 -0.1117  1.5963
  177SOPE  C31720221   4.080   5.526   8.533  0.0557 -0.2046 -0.0031
  177SOPE  H17X20222   4.054   5.620   8.585  0.4693 -1.2276  2.1597
  177SOPE  H17Y20223   3.983   5.473   8.536 -0.4876  0.8154  2.3873
  177SOPE  C31820224   4.123   5.556   8.394 -0.2976  0.4851  0.3321
  177SOPE  H18X20225   4.144   5.464   8.335 -0.9718  1.3687 -1.3514
  177SOPE  H18Y20226   4.210   5.625   8.401 -0.2224  0.3739  0.5160
  177SOPE  H18Z20227   4.036   5.606   8.347  0.5346  1.6294 -0.0275
  178SOPE     N20228   4.924   3.383  10.636  0.5286  0.1946  0.5154
  178SOPE   HN120229   4.941   3.410  10.537 -1.5072 -0.0763  0.0605
  178SOPE   HN220230   4.919   3.474  10.687 -0.1544  1.0247 -0.9822
  178SOPE   HN320231   5.015   3.345  10.671  1.1333  1.9818  1.0177
  178SOPE   C1220232   4.807   3.286  10.649  0.0830  0.0775 -0.0785
  178SOPE  H12A20233   4.778   3.281  10.756  0.5245  0.0536  0.0428
  178SOPE  H12B20234   4.844   3.190  10.607 -0.4912  0.7917 -2.3779
  178SOPE   C1120235   4.688   3.345  10.568 -0.8500 -0.0643 -0.8239
  178SOPE  H11A20236   4.714   3.340  10.460  0.8160 -0.6522 -0.4197
  178SOPE  H11B20237   4.666   3.449  10.601 -1.4016  0.0447 -1.5006
  178SOPE     P20238   4.458   3.294  10.678 -0.0185  0.0369  0.2715
  178SOPE   O1320239   4.491   3.391  10.787 -0.2605  0.1310  0.3718
  178SOPE   O1420240   4.401   3.164  10.718 -0.6811 -0.2311  0.3575
  178SOPE   O1220241   4.582   3.262  10.595 -0.1793  0.1778 -0.3177
  178SOPE   O1120242   4.359   3.361  10.574  0.9578  0.2102  0.2592
  178SOPE    C120243   4.385   3.494  10.533  0.4781 -0.0214 -0.1910
  178SOPE    HA20244   4.488   3.520  10.500  0.0184  0.6266 -1.1405
  178SOPE    HB20245   4.373   3.562  10.620  0.7025  1.2474 -1.1227
  178SOPE    C220246   4.297   3.527  10.413 -0.8414 -0.7035  0.4943
  178SOPE    HS20247   4.192   3.520  10.448 -0.4926 -0.7200  1.5975
  178SOPE   O2120248   4.340   3.444  10.309  0.1850 -0.0363  0.0586
  178SOPE   C2120249   4.244   3.370  10.251 -0.2363  0.2206  0.1212
  178SOPE   O2220250   4.131   3.349  10.293 -0.8474 -0.4058  0.1545
  178SOPE   C2220251   4.304   3.316  10.118 -0.3839  0.0819 -0.1424
  178SOPE   H2R20252   4.350   3.221  10.154 -1.0953  0.3772  1.6544
  178SOPE   H2S20253   4.383   3.389  10.090  2.5304 -1.5561  3.0158
  178SOPE    C320254   4.327   3.675  10.370  0.1743  0.6832  0.2248
  178SOPE    HX20255   4.435   3.680  10.343  0.4931 -0.1771  1.2473
  178SOPE    HY20256   4.304   3.732  10.463 -0.5249  2.3946 -0.9460
  178SOPE   O3120257   4.226   3.706  10.264  1.0693 -0.3317 -0.6814
  178SOPE   C3120258   4.227   3.841  10.238  0.7356 -0.2716 -0.5395
  178SOPE   O3220259   4.320   3.917  10.258  0.4721  0.0754  0.2533
  178SOPE   C3220260   4.104   3.871  10.156 -0.7804 -0.2460  0.3623
  178SOPE   H2X20261   4.076   3.978  10.153 -2.9905 -0.7830 -0.7966
  178SOPE   H2Y20262   4.014   3.823  10.201 -1.1581 -0.6241 -0.7547
  178SOPE   C2320263   4.203   3.308  10.007 -0.1032  0.0230 -0.2950
  178SOPE   H3R20264   4.127   3.231  10.030 -0.6305  0.9423  1.1543
  178SOPE   H3S20265   4.256   3.267   9.919  0.1375 -1.6518  0.5987
  178SOPE   C2420266   4.148   3.452   9.980 -0.0090  0.5424 -0.2826
  178SOPE   H4R20267   4.058   3.467  10.043 -0.3114 -3.1916  0.3793
  178SOPE   H4S20268   4.225   3.528  10.007  0.1367  0.7431 -1.2354
  178SOPE   C2520269   4.121   3.473   9.835  0.2832 -0.3818 -0.0490
  178SOPE   H5R20270   4.048   3.402   9.794  0.4161 -0.2646 -0.4926
  178SOPE   H5S20271   4.080   3.576   9.846 -0.3936 -0.6779  0.2541
  178SOPE   C2620272   4.237   3.487   9.744 -0.0628  0.0662  0.8249
  178SOPE   H6R20273   4.304   3.564   9.788 -2.6709  1.7698  2.1272
  178SOPE   H6S20274   4.279   3.387   9.721  1.5957  1.0665 -0.7190
  178SOPE   C2720275   4.202   3.546   9.602 -0.0757  1.0347  0.2674
  178SOPE   H7R20276   4.134   3.463   9.573  0.4022  0.3623  1.0297
  178SOPE   H7S20277   4.135   3.635   9.608 -0.2373  0.8802  0.8644
  178SOPE   C2820278   4.320   3.550   9.495  0.2169  0.4264  0.9294
  178SOPE   H8R20279   4.388   3.463   9.508  0.6125  0.3082 -1.4901
  178SOPE   H8S20280   4.259   3.529   9.405  0.5848  0.4909  0.6640
  178SOPE   C2920281   4.396   3.681   9.494  0.2954  0.0757  0.0411
  178SOPE   H9120282   4.435   3.712   9.592 -0.9048  2.9758 -0.2727
  178SOPE  C21020283   4.423   3.760   9.398  0.3697  0.4580  0.1660
  178SOPE  H10120284   4.477   3.851   9.428  1.5508 -0.2912  0.4244
  178SOPE  C21120285   4.376   3.733   9.254 -0.2150 -0.0958 -0.0866
  178SOPE  H11R20286   4.268   3.706   9.251  0.0323 -1.0619 -1.0255
  178SOPE  H11S20287   4.431   3.640   9.227  2.6887  1.2663  0.7149
  178SOPE  C21220288   4.396   3.843   9.148  0.3032 -1.1651  0.8935
  178SOPE  H12R20289   4.501   3.879   9.154 -0.4964  1.7544 -0.4218
  178SOPE  H12S20290   4.330   3.927   9.179  0.9648 -0.6955  1.0568
  178SOPE  C21320291   4.361   3.796   9.000  0.1930 -0.7084  0.1185
  178SOPE  H13R20292   4.428   3.710   8.978  1.6052  0.8624 -2.0879
  178SOPE  H13S20293   4.389   3.886   8.942 -1.2339  1.3414  2.4037
  178SOPE  C21420294   4.219   3.756   8.969 -0.2338 -0.6131 -0.5625
  178SOPE  H14R20295   4.145   3.835   8.994 -0.3877  0.0389 -2.8458
  178SOPE  H14S20296   4.192   3.668   9.030 -1.8473  0.2393  0.0047
  178SOPE  C21520297   4.195   3.723   8.822 -0.3726  0.7276  1.0271
  178SOPE  H15R20298   4.195   3.811   8.755  0.0896 -2.4336 -3.6031
  178SOPE  H15S20299   4.090   3.688   8.821  0.2218 -1.2110  1.4989
  178SOPE  C21620300   4.281   3.614   8.763 -0.5245  1.2351 -0.9729
  178SOPE  H16R20301   4.253   3.523   8.820 -2.7318  1.3866 -1.6957
  178SOPE  H16S20302   4.389   3.625   8.785 -0.3484  0.5074 -1.4148
  178SOPE  C21720303   4.276   3.600   8.615 -0.4550 -0.3911  0.9026
  178SOPE  H17R20304   4.281   3.700   8.566  0.3078 -0.9493 -0.2169
  178SOPE  H17S20305   4.178   3.559   8.582 -0.6848  1.7037 -1.3002
  178SOPE  C21820306   4.395   3.520   8.554  0.3394  0.2832 -0.0538
  178SOPE  H18R20307   4.394   3.420   8.604  1.0435  1.3167  2.1742
  178SOPE  H18S20308   4.492   3.568   8.578 -0.0904  1.3277 -0.3819
  178SOPE  H18T20309   4.371   3.521   8.446 -0.2300  1.1636  0.0704
  178SOPE   C3320310   4.116   3.828  10.006 -0.1361  0.0821  0.0781
  178SOPE   H3X20311   4.023   3.865   9.958 -1.7631 -0.9784  2.2206
  178SOPE   H3Y20312   4.112   3.718   9.991 -1.8235  0.1606 -0.2698
  178SOPE   C3420313   4.243   3.883   9.937 -0.1958 -0.0917  0.5334
  178SOPE   H4X20314   4.324   3.813   9.967  1.2530  1.5745  0.6136
  178SOPE   H4Y20315   4.266   3.984   9.977 -0.9893  0.4811 -0.4006
  178SOPE   C3520316   4.244   3.891   9.780  0.3888 -0.2003  0.1112
  178SOPE   H5X20317   4.225   3.789   9.740  0.9041 -0.3054  0.1256
  178SOPE   H5Y20318   4.341   3.926   9.739 -0.4960  1.2750 -0.7953
  178SOPE   C3620319   4.144   4.010   9.742  0.1512 -0.0066 -0.2367
  178SOPE   H6X20320   4.166   4.102   9.800 -0.6063 -0.1835  0.3328
  178SOPE   H6Y20321   4.042   3.987   9.778  0.9882  1.2836  3.3567
  178SOPE   C3720322   4.135   4.050   9.597 -0.4257 -0.1343 -0.1775
  178SOPE   H7X20323   4.236   4.076   9.559 -0.4714 -0.5169 -0.5772
  178SOPE   H7Y20324   4.056   4.125   9.578  0.5303  1.6276  2.3931
  178SOPE   C3820325   4.088   3.924   9.514  0.4940  0.3268 -0.4850
  178SOPE   H8X20326   3.986   3.898   9.551  0.9118 -1.6095 -0.5752
  178SOPE   H8Y20327   4.155   3.835   9.514 -1.1630 -0.9743  0.8015
  178SOPE   C3920328   4.082   3.948   9.359  0.5304  0.1649 -0.0273
  178SOPE   H9X20329   4.091   3.848   9.312  1.2271  0.1152  0.1976
  178SOPE   H9Y20330   4.174   4.002   9.330  0.6176 -0.6273 -1.2520
  178SOPE  C31020331   3.965   4.029   9.316  0.1255  0.7747  0.0215
  178SOPE  H10X20332   3.956   4.127   9.367 -0.4228 -0.0367  1.5202
  178SOPE  H10Y20333   3.875   3.967   9.331  0.6728  0.1235  0.6909
  178SOPE  C31120334   3.961   4.073   9.165 -0.6566 -0.0770 -0.0497
  178SOPE  H11X20335   3.943   3.985   9.099 -0.6735  1.3247 -1.9983
  178SOPE  H11Y20336   4.063   4.110   9.138  0.6337 -0.3712  3.8375
  178SOPE  C31220337   3.844   4.173   9.138 -0.6152  0.9285  0.7260
  178SOPE  H12X20338   3.843   4.258   9.210 -1.2937  0.6523  1.0476
  178SOPE  H12Y20339   3.750   4.114   9.142  0.0435 -0.1775  0.2306
  178SOPE  C31320340   3.867   4.234   8.994 -0.5718 -0.4780  0.0218
  178SOPE  H13X20341   3.965   4.283   8.976 -1.0574  1.0228  1.1833
  178SOPE  H13Y20342   3.797   4.320   8.981  0.2873  0.2025 -0.2023
  178SOPE  C31420343   3.850   4.137   8.884  0.3647  0.3159  0.4684
  178SOPE  H14X20344   3.754   4.081   8.892 -0.2334  1.1993 -0.1898
  178SOPE  H14Y20345   3.927   4.057   8.882  0.9604  0.8675 -1.5129
  178SOPE  C31520346   3.850   4.206   8.750 -0.0825  0.1409 -0.3538
  178SOPE  H15X20347   3.939   4.271   8.741 -0.1361  0.3905  0.6929
  178SOPE  H15Y20348   3.764   4.275   8.738 -1.0591 -1.0292 -0.2928
  178SOPE  C31620349   3.841   4.110   8.633 -0.6196 -0.0051  0.1895
  178SOPE  H16X20350   3.830   4.172   8.541  1.8731  0.4568  0.1117
  178SOPE  H16Y20351   3.749   4.050   8.646  0.1087 -1.1860  0.0125
  178SOPE  C31720352   3.963   4.016   8.607 -0.5606  0.4493 -0.8496
  178SOPE  H17X20353   3.990   3.958   8.698  0.9376  0.5885 -1.1741
  178SOPE  H17Y20354   4.047   4.079   8.571 -0.0758  0.7298  0.7019
  178SOPE  C31820355   3.939   3.905   8.504  1.0222 -0.0518  0.2203
  178SOPE  H18X20356   3.898   3.947   8.410 -1.9395 -1.6569  0.6736
  178SOPE  H18Y20357   3.872   3.824   8.539  1.6623 -0.1673  1.2339
  178SOPE  H18Z20358   4.033   3.852   8.478  1.5547  1.6061 -1.4840
  179SOPE     N20359   0.153   0.213   6.400  0.2587 -0.1164 -0.3796
  179SOPE   HN120360   0.241   0.266   6.418 -0.7111  1.7432 -0.8671
  179SOPE   HN220361   0.165   0.111   6.386 -0.3495 -0.2793  0.2526
  179SOPE   HN320362   0.116   0.262   6.316  0.5838  1.3525  0.2931
  179SOPE   C1220363   0.054   0.242   6.510  0.1237 -0.4839  0.4769
  179SOPE  H12A20364  -0.042   0.275   6.466 -0.1425 -0.6126  0.9590
  179SOPE  H12B20365   0.092   0.328   6.568  0.6635  0.4362 -1.1589
  179SOPE   C1120366   0.037   0.127   6.602 -0.3215  0.0685 -0.2550
  179SOPE  H11A20367  -0.045   0.158   6.669 -0.1801  0.4292 -0.2466
  179SOPE  H11B20368   0.122   0.109   6.671 -0.9298  2.7434  1.2951
  179SOPE     P20369  -0.118  -0.024   6.441  0.1777 -0.3397 -0.4790
  179SOPE   O1320370  -0.124  -0.164   6.413 -0.5535  0.3937  0.6100
  179SOPE   O1420371  -0.127   0.064   6.324  0.4859 -0.0110  0.4941
  179SOPE   O1220372   0.011   0.007   6.531 -0.5176  0.0731  0.5186
  179SOPE   O1120373  -0.228   0.018   6.541 -0.1464  0.2134  0.0469
  179SOPE    C120374  -0.237  -0.053   6.669  0.6621 -0.6994  0.3858
  179SOPE    HA20375  -0.259   0.024   6.747 -1.0830 -0.9750  0.2026
  179SOPE    HB20376  -0.149  -0.115   6.696  1.6044  0.6843  0.6069
  179SOPE    C220377  -0.342  -0.171   6.665  0.1851 -0.3970  0.9325
  179SOPE    HS20378  -0.328  -0.214   6.563  1.6201  0.4690  0.7442
  179SOPE   O2120379  -0.473  -0.114   6.688 -0.4377  0.0510  0.2147
  179SOPE   C2120380  -0.579  -0.167   6.645  0.4375  0.0477 -0.2837
  179SOPE   O2220381  -0.582  -0.271   6.587  0.6304  0.2207 -0.2348
  179SOPE   C2220382  -0.697  -0.088   6.700  0.9439  0.2082 -0.7697
  179SOPE   H2R20383  -0.713   0.007   6.644  0.4941  1.4843  1.4048
  179SOPE   H2S20384  -0.677  -0.061   6.806 -1.3500 -0.2099 -0.1799
  179SOPE    C320385  -0.313  -0.273   6.773 -0.2977 -0.3318  0.5600
  179SOPE    HX20386  -0.212  -0.316   6.756 -0.5605 -0.9060  0.4013
  179SOPE    HY20387  -0.388  -0.354   6.755 -3.7641  2.9633 -1.2752
  179SOPE   O3120388  -0.316  -0.213   6.906  0.0224  0.1983 -0.1000
  179SOPE   C3120389  -0.430  -0.224   6.975  0.2608  0.1575 -0.6596
  179SOPE   O3220390  -0.529  -0.287   6.940  0.1013 -0.2620 -0.1522
  179SOPE   C3220391  -0.411  -0.154   7.105 -0.0195 -0.2070 -0.3767
  179SOPE   H2X20392  -0.414  -0.043   7.097  0.4304 -0.0585  1.1732
  179SOPE   H2Y20393  -0.319  -0.193   7.153 -1.2831 -2.7529  0.1451
  179SOPE   C2320394  -0.837  -0.167   6.710 -0.0504 -0.0748 -0.1630
  179SOPE   H3R20395  -0.858  -0.213   6.611 -1.8852  0.7408 -0.1898
  179SOPE   H3S20396  -0.922  -0.097   6.727 -1.4545 -1.3360 -1.6144
  179SOPE   C2420397  -0.852  -0.277   6.813 -0.3130  0.0116 -0.7449
  179SOPE   H4R20398  -0.929  -0.351   6.784 -1.9868  0.7367  1.5788
  179SOPE   H4S20399  -0.762  -0.342   6.818 -0.8834 -0.7288  0.1801
  179SOPE   C2520400  -0.891  -0.231   6.952  0.1298  0.3945 -0.2604
  179SOPE   H5R20401  -0.810  -0.169   6.995  0.4529  0.3604 -0.8151
  179SOPE   H5S20402  -0.985  -0.173   6.942 -0.6244 -0.5379  1.1030
  179SOPE   C2620403  -0.927  -0.331   7.067  0.1914 -0.0665  0.5963
  179SOPE   H6R20404  -1.029  -0.371   7.048 -0.1347  1.4322 -1.0760
  179SOPE   H6S20405  -0.849  -0.410   7.067  0.3956  0.0689  2.8232
  179SOPE   C2720406  -0.938  -0.258   7.198  0.3980 -0.1955 -0.1506
  179SOPE   H7R20407  -0.839  -0.221   7.233  1.3575 -2.2615 -0.5477
  179SOPE   H7S20408  -0.994  -0.164   7.176  0.7221  0.0839  0.2082
  179SOPE   C2820409  -1.007  -0.328   7.319 -0.2599  0.2532  0.0661
  179SOPE   H8R20410  -1.113  -0.351   7.296 -0.6914  2.3926 -0.3401
  179SOPE   H8S20411  -0.947  -0.419   7.337  2.0483  0.8411 -3.6748
  179SOPE   C2920412  -1.026  -0.232   7.436 -0.1451  0.5219 -0.3836
  179SOPE   H9120413  -1.112  -0.164   7.420 -0.9597 -1.0205 -3.2632
  179SOPE  C21020414  -0.967  -0.226   7.550 -0.5659  0.3358  0.0558
  179SOPE  H10120415  -1.000  -0.148   7.620  0.9552  2.3502 -1.3738
  179SOPE  C21120416  -0.849  -0.325   7.584 -0.2098 -0.4574 -0.5165
  179SOPE  H11R20417  -0.757  -0.291   7.531 -0.7325 -0.2064 -1.2733
  179SOPE  H11S20418  -0.875  -0.429   7.555  1.0434 -1.2574  1.0372
  179SOPE  C21220419  -0.812  -0.330   7.732 -0.2598  0.4809  0.3906
  179SOPE  H12R20420  -0.791  -0.223   7.753  2.9019 -0.2387  1.5283
  179SOPE  H12S20421  -0.716  -0.388   7.733 -0.0395  0.8395  1.6632
  179SOPE  C21320422  -0.913  -0.402   7.829  0.3202 -0.0735  0.0239
  179SOPE  H13R20423  -0.911  -0.513   7.816  2.0542  0.0739 -1.3908
  179SOPE  H13S20424  -1.014  -0.363   7.806  0.8857  0.5918 -1.4483
  179SOPE  C21420425  -0.883  -0.359   7.973 -0.3307 -0.6858 -0.8075
  179SOPE  H14R20426  -0.884  -0.249   7.989 -1.7099 -0.6013 -1.3065
  179SOPE  H14S20427  -0.776  -0.383   7.989 -0.1755  1.7500  3.0389
  179SOPE  C21520428  -0.961  -0.446   8.077 -0.2152  0.6904  0.0088
  179SOPE  H15R20429  -0.961  -0.550   8.038 -1.7813  0.6604  0.0163
  179SOPE  H15S20430  -1.071  -0.433   8.088 -0.2947  0.2706 -0.2933
  179SOPE  C21620431  -0.904  -0.455   8.222 -1.0220 -0.0498 -0.1324
  179SOPE  H16R20432  -0.899  -0.350   8.257  2.5186  0.1779 -0.9881
  179SOPE  H16S20433  -0.800  -0.495   8.226  0.5479  3.3497 -2.4949
  179SOPE  C21720434  -0.996  -0.534   8.314 -0.3591  0.2614  0.3596
  179SOPE  H17R20435  -1.091  -0.478   8.323 -0.3101  0.6695 -1.3294
  179SOPE  H17S20436  -0.947  -0.527   8.414  2.8779  1.9612 -1.1856
  179SOPE  C21820437  -1.019  -0.681   8.272 -0.1364  0.4224 -0.0667
  179SOPE  H18R20438  -1.034  -0.689   8.162  1.5615  4.8256 -0.8415
  179SOPE  H18S20439  -1.112  -0.718   8.321  0.6932  1.2149  2.2208
  179SOPE  H18T20440  -0.923  -0.732   8.294  0.9468  2.0449 -0.8642
  179SOPE   C3320441  -0.529  -0.196   7.195 -0.2966  0.2608 -0.4283
  179SOPE   H3X20442  -0.525  -0.307   7.203 -2.3639  0.2187  0.5966
  179SOPE   H3Y20443  -0.624  -0.185   7.139 -1.0438 -1.0028  0.5339
  179SOPE   C3420444  -0.555  -0.123   7.330 -1.1974 -0.0452 -0.1854
  179SOPE   H4X20445  -0.653  -0.162   7.365 -0.1900  0.1701  3.1596
  179SOPE   H4Y20446  -0.548  -0.016   7.302  0.9934 -0.3704 -1.0641
  179SOPE   C3520447  -0.453  -0.153   7.443 -0.6527 -0.1775 -0.2104
  179SOPE   H5X20448  -0.483  -0.092   7.531  1.1637 -1.7623  1.6014
  179SOPE   H5Y20449  -0.352  -0.129   7.405 -0.1879  0.1068  1.1608
  179SOPE   C3620450  -0.459  -0.292   7.495  0.2626  0.2492 -0.6087
  179SOPE   H6X20451  -0.421  -0.363   7.419 -0.9631  0.4473 -1.4445
  179SOPE   H6Y20452  -0.565  -0.317   7.517  0.0964  3.1444  2.6606
  179SOPE   C3720453  -0.376  -0.316   7.627  0.7782 -0.9043  0.5808
  179SOPE   H7X20454  -0.278  -0.265   7.620  0.9052 -0.9831  1.6293
  179SOPE   H7Y20455  -0.349  -0.424   7.627  0.8736 -0.8817  1.0844
  179SOPE   C3820456  -0.453  -0.273   7.752 -0.6440 -1.0418  0.0389
  179SOPE   H8X20457  -0.540  -0.342   7.766 -0.6537 -1.1279 -0.4257
  179SOPE   H8Y20458  -0.489  -0.170   7.732 -0.8281 -0.8947  1.0383
  179SOPE   C3920459  -0.362  -0.256   7.871 -0.2335  0.3835  0.2782
  179SOPE   H9X20460  -0.264  -0.212   7.845  0.6702  1.0672  4.1929
  179SOPE   H9Y20461  -0.344  -0.352   7.923  0.5480  0.2545 -0.2191
  179SOPE  C31020462  -0.433  -0.172   7.983 -0.5949  0.3340  0.2205
  179SOPE  H10X20463  -0.489  -0.092   7.931  2.3043  1.9921 -0.5602
  179SOPE  H10Y20464  -0.356  -0.131   8.052  0.6375 -0.5061 -0.6160
  179SOPE  C31120465  -0.515  -0.249   8.088  0.5329 -0.4409  0.0027
  179SOPE  H11X20466  -0.454  -0.305   8.163  0.3193 -0.5589  0.0880
  179SOPE  H11Y20467  -0.574  -0.324   8.031  2.4030 -0.5468 -1.9254
  179SOPE  C31220468  -0.603  -0.151   8.172  0.6540  0.3164  0.2408
  179SOPE  H12X20469  -0.695  -0.203   8.207  1.2675 -1.0707 -0.1413
  179SOPE  H12Y20470  -0.640  -0.076   8.100 -1.0457  1.0968  1.8475
  179SOPE  C31320471  -0.527  -0.084   8.291 -0.1396 -0.2597 -0.2513
  179SOPE  H13X20472  -0.469   0.001   8.250  0.4938 -0.5602  0.0120
  179SOPE  H13Y20473  -0.455  -0.146   8.348  1.2989  1.7460  0.1920
  179SOPE  C31420474  -0.616  -0.024   8.404  0.4305 -0.5374 -0.6157
  179SOPE  H14X20475  -0.657  -0.113   8.457  1.7816 -0.5185  0.4981
  179SOPE  H14Y20476  -0.704   0.030   8.361  0.8068  1.7097  1.2207
  179SOPE  C31520477  -0.536   0.079   8.485 -0.2229 -0.0973 -0.1373
  179SOPE  H15X20478  -0.503   0.154   8.410  0.4887  1.4407  1.6408
  179SOPE  H15Y20479  -0.447   0.029   8.530 -0.1560 -0.1924 -0.3701
  179SOPE  C31620480  -0.621   0.144   8.591 -0.1361  0.1412 -0.3435
  179SOPE  H16X20481  -0.625   0.088   8.688  0.5616  1.0016  0.1969
  179SOPE  H16Y20482  -0.725   0.164   8.558 -1.1030  0.1727  2.4027
  179SOPE  C31720483  -0.568   0.286   8.617 -0.8985  0.5721 -1.2773
  179SOPE  H17X20484  -0.630   0.330   8.697  0.2031  1.6488 -0.9839
  179SOPE  H17Y20485  -0.583   0.350   8.527  0.6122  1.9075 -0.6374
  179SOPE  C31820486  -0.421   0.295   8.659 -0.6762 -0.2107  0.3871
  179SOPE  H18X20487  -0.398   0.230   8.746  0.2178 -0.5882 -0.1109
  179SOPE  H18Y20488  -0.392   0.399   8.684 -0.0780  0.0117 -1.0941
  179SOPE  H18Z20489  -0.356   0.267   8.573 -1.9719  1.2092 -1.1095
  180SOPE     N20490   0.144   5.967   6.163  0.0972  0.1114 -0.5464
  180SOPE   HN120491   0.199   5.921   6.087 -0.9557 -2.5190  0.1583
  180SOPE   HN220492   0.092   6.041   6.113  1.8030  3.2201  1.8935
  180SOPE   HN320493   0.206   6.005   6.238 -2.3707 -3.7805  4.1014
  180SOPE   C1220494   0.048   5.868   6.235 -0.3882  0.2253 -0.1412
  180SOPE  H12A20495  -0.039   5.847   6.168  1.5838 -0.6663 -2.5847
  180SOPE  H12B20496   0.021   5.920   6.329  0.7549 -1.3732  1.1263
  180SOPE   C1120497   0.115   5.734   6.269  0.0759 -0.2671 -0.1439
  180SOPE  H11A20498   0.026   5.669   6.283  0.0147 -0.3444 -0.8347
  180SOPE  H11B20499   0.167   5.735   6.367  0.0538 -2.0690 -0.0788
  180SOPE     P20500   0.303   5.571   6.185  0.0651 -0.2205  0.1038
  180SOPE   O1320501   0.436   5.623   6.137  0.4423 -0.8557 -0.0025
  180SOPE   O1420502   0.262   5.442   6.130 -0.0633  0.0859 -0.4525
  180SOPE   O1220503   0.194   5.681   6.159  1.1544  0.4921  0.3788
  180SOPE   O1120504   0.307   5.564   6.344 -0.2854  0.0184  0.5143
  180SOPE    C120505   0.379   5.456   6.410  0.6186  0.1354 -0.4515
  180SOPE    HA20506   0.485   5.450   6.375  1.0469  0.2783  0.7615
  180SOPE    HB20507   0.332   5.360   6.379  1.1421  0.2658 -1.7219
  180SOPE    C220508   0.376   5.480   6.564 -0.2504 -0.3495 -0.0548
  180SOPE    HS20509   0.450   5.561   6.583  0.0317 -1.0208  1.9468
  180SOPE   O2120510   0.417   5.351   6.624  0.4209 -0.5646  0.2521
  180SOPE   C2120511   0.538   5.332   6.619  0.3317  0.8404  0.1836
  180SOPE   O2220512   0.632   5.406   6.583  0.0707 -0.4587 -0.3593
  180SOPE   C2220513   0.568   5.189   6.658  0.6123 -0.7806  0.1929
  180SOPE   H2R20514   0.643   5.153   6.585 -1.0375 -0.1092 -1.9211
  180SOPE   H2S20515   0.479   5.124   6.648  0.4471 -0.4669 -0.3645
  180SOPE    C320516   0.243   5.527   6.622 -0.2176 -0.0675 -0.0835
  180SOPE    HX20517   0.179   5.450   6.574  1.1930 -0.8702 -0.7422
  180SOPE    HY20518   0.200   5.625   6.594  1.2049  1.3473  2.3667
  180SOPE   O3120519   0.243   5.509   6.764  0.3237  0.5192 -0.2394
  180SOPE   C3120520   0.295   5.605   6.837  0.6726  0.1026 -0.9776
  180SOPE   O3220521   0.332   5.715   6.797 -1.1134 -0.2768  0.1252
  180SOPE   C3220522   0.296   5.563   6.978 -0.3449 -0.1675 -0.5738
  180SOPE   H2X20523   0.296   5.453   6.991 -0.4939  0.1044  2.5060
  180SOPE   H2Y20524   0.200   5.592   7.026 -1.1627  0.3416 -2.4463
  180SOPE   C2320525   0.629   5.179   6.795 -0.2677 -0.4888 -0.4239
  180SOPE   H3R20526   0.717   5.247   6.799 -1.2816  0.8660 -0.4742
  180SOPE   H3S20527   0.677   5.081   6.815  0.1581  0.1252  1.8559
  180SOPE   C2420528   0.531   5.203   6.911  0.3021 -0.5747  0.4839
  180SOPE   H4R20529   0.492   5.306   6.897  1.8601  0.2753  2.0406
  180SOPE   H4S20530   0.449   5.128   6.913  0.0925 -0.3490  0.4272
  180SOPE   C2520531   0.609   5.194   7.044  0.3306 -0.3361  0.4493
  180SOPE   H5R20532   0.655   5.094   7.058  0.2990 -0.1669  2.0140
  180SOPE   H5S20533   0.699   5.258   7.031  0.4904 -0.7894 -0.7932
  180SOPE   C2620534   0.526   5.243   7.170 -0.2359  0.1365  0.9672
  180SOPE   H6R20535   0.491   5.346   7.145  0.4734 -0.1551 -1.5890
  180SOPE   H6S20536   0.438   5.177   7.185  0.6618 -1.6333 -1.0354
  180SOPE   C2720537   0.610   5.231   7.298  0.9191 -0.0423  0.0214
  180SOPE   H7R20538   0.631   5.123   7.315  0.3539 -0.6163 -2.5952
  180SOPE   H7S20539   0.702   5.293   7.306 -0.2903  1.8548 -0.0733
  180SOPE   C2820540   0.530   5.298   7.415 -0.2262  0.4420 -0.7492
  180SOPE   H8R20541   0.520   5.406   7.391  1.9367  1.0446  0.8235
  180SOPE   H8S20542   0.427   5.257   7.421 -1.1126  2.4635 -1.1183
  180SOPE   C2920543   0.597   5.255   7.545  0.2593 -0.7058 -0.2316
  180SOPE   H9120544   0.660   5.164   7.544  2.3142  0.6592  0.0826
  180SOPE  C21020545   0.583   5.316   7.665  0.6953 -0.1168 -0.6796
  180SOPE  H10120546   0.639   5.280   7.752  0.6435  0.4400 -0.4126
  180SOPE  C21120547   0.507   5.443   7.685  0.5318  0.0515  0.0576
  180SOPE  H11R20548   0.413   5.443   7.626  0.5430  0.2636  0.0405
  180SOPE  H11S20549   0.570   5.532   7.663 -0.2662  0.4117 -0.8301
  180SOPE  C21220550   0.461   5.471   7.829 -0.1843 -0.4829 -0.0219
  180SOPE  H12R20551   0.416   5.382   7.878  2.2220 -1.8490 -0.1620
  180SOPE  H12S20552   0.393   5.557   7.849  2.1664  0.8013  3.2846
  180SOPE  C21320553   0.577   5.514   7.914  0.3392 -0.1142 -0.6456
  180SOPE  H13R20554   0.643   5.592   7.870 -0.0408  0.7000  0.1696
  180SOPE  H13S20555   0.644   5.431   7.944 -0.0250  0.1062  0.8788
  180SOPE  C21420556   0.529   5.584   8.043  0.8782  0.5730 -0.1514
  180SOPE  H14R20557   0.469   5.674   8.019 -1.6120 -1.0020 -0.1865
  180SOPE  H14S20558   0.620   5.629   8.088  2.6913  1.1695 -3.9404
  180SOPE  C21520559   0.448   5.498   8.136  0.1238  0.2020 -0.2897
  180SOPE  H15R20560   0.516   5.427   8.188  0.6321 -0.8144 -2.2651
  180SOPE  H15S20561   0.370   5.435   8.089  0.3977 -2.3810  2.3840
  180SOPE  C21620562   0.364   5.592   8.224 -0.4076 -1.0110 -0.2851
  180SOPE  H16R20563   0.300   5.660   8.164  2.1649  0.8197 -1.1255
  180SOPE  H16S20564   0.440   5.657   8.271 -1.2564  0.1861 -0.5190
  180SOPE  C21720565   0.281   5.531   8.329 -0.7978 -0.3051 -0.3420
  180SOPE  H17R20566   0.339   5.494   8.416 -2.7647 -0.1725  1.0920
  180SOPE  H17S20567   0.227   5.446   8.282 -2.1404  0.2611  0.1153
  180SOPE  C21820568   0.174   5.627   8.370  0.8952 -0.1772 -0.1738
  180SOPE  H18R20569   0.110   5.582   8.450  0.2039 -1.5826 -1.4578
  180SOPE  H18S20570   0.108   5.654   8.285 -0.3435  0.2790  0.8858
  180SOPE  H18T20571   0.234   5.713   8.406  1.4750 -0.6951  0.1143
  180SOPE   C3320572   0.413   5.614   7.062  0.0555  0.1768 -0.3769
  180SOPE   H3X20573   0.435   5.719   7.033 -0.7058  0.1537 -1.0693
  180SOPE   H3Y20574   0.502   5.554   7.032 -0.3118 -1.5676  1.7753
  180SOPE   C3420575   0.398   5.607   7.213 -1.2456  0.2552  0.6081
  180SOPE   H4X20576   0.494   5.596   7.268 -1.5782 -0.8940  0.9819
  180SOPE   H4Y20577   0.341   5.515   7.238 -3.2678  0.6141 -2.1944
  180SOPE   C3520578   0.328   5.731   7.278  0.2167  0.0696 -0.2344
  180SOPE   H5X20579   0.381   5.825   7.250  2.4931 -1.0757  0.0452
  180SOPE   H5Y20580   0.343   5.705   7.385 -0.6272 -0.8743 -0.3268
  180SOPE   C3620581   0.177   5.749   7.254 -0.6999  0.2400  0.1075
  180SOPE   H6X20582   0.120   5.657   7.277 -0.1592 -0.3778 -0.9726
  180SOPE   H6Y20583   0.171   5.771   7.146 -2.2527  0.6191  0.2475
  180SOPE   C3720584   0.111   5.865   7.337  0.4119 -0.3367 -0.0040
  180SOPE   H7X20585   0.023   5.895   7.276 -1.6183  0.4804  3.0824
  180SOPE   H7Y20586   0.173   5.956   7.350  0.9041 -0.8309  1.2807
  180SOPE   C3820587   0.056   5.838   7.478 -0.4769  1.3024  0.3059
  180SOPE   H8X20588  -0.008   5.747   7.477  1.8552 -0.4447 -0.5141
  180SOPE   H8Y20589  -0.006   5.922   7.514 -0.1656  0.7474  2.2905
  180SOPE   C3920590   0.172   5.798   7.577 -0.4284 -0.5586  0.5763
  180SOPE   H9X20591   0.248   5.872   7.546 -1.2221 -0.5163 -1.4212
  180SOPE   H9Y20592   0.204   5.693   7.562  1.4101  0.0246  0.2167
  180SOPE  C31020593   0.137   5.815   7.729 -0.3998 -0.5406  0.1574
  180SOPE  H10X20594   0.099   5.716   7.761  0.2080 -2.0641 -3.3435
  180SOPE  H10Y20595   0.052   5.887   7.730 -0.0064 -0.0247 -1.1171
  180SOPE  C31120596   0.254   5.857   7.818  0.0827 -0.6762 -0.4170
  180SOPE  H11X20597   0.291   5.948   7.767 -1.1177 -0.4413 -0.9108
  180SOPE  H11Y20598   0.335   5.783   7.801 -0.3771 -1.1658 -0.4976
  180SOPE  C31220599   0.214   5.882   7.962  0.0346 -0.3335  0.4830
  180SOPE  H12X20600   0.214   5.786   8.018  0.5483 -0.4375  0.3148
  180SOPE  H12Y20601   0.109   5.918   7.963 -0.5528 -1.8766 -0.7637
  180SOPE  C31320602   0.303   5.985   8.022 -0.8706 -0.2730 -0.3944
  180SOPE  H13X20603   0.302   6.087   7.978 -1.9008  0.0301  0.2974
  180SOPE  H13Y20604   0.411   5.960   8.026 -0.5915  1.0966  1.6134
  180SOPE  C31420605   0.258   6.024   8.169  0.0402 -0.5177  0.1133
  180SOPE  H14X20606   0.243   5.933   8.231  1.7103 -1.2547 -0.5016
  180SOPE  H14Y20607   0.155   6.065   8.178 -0.4981 -1.9844  1.0414
  180SOPE  C31520608   0.359   6.115   8.238 -0.3919  0.1573 -0.3771
  180SOPE  H15X20609   0.309   6.158   8.328 -0.4766 -0.1774 -0.2647
  180SOPE  H15Y20610   0.387   6.204   8.177  1.4443  0.1872  0.4508
  180SOPE  C31620611   0.473   6.028   8.277 -0.2935  0.1094 -0.7263
  180SOPE  H16X20612   0.531   5.982   8.195 -1.0304 -2.4465  0.0792
  180SOPE  H16Y20613   0.447   5.936   8.333  2.6964 -1.1505 -1.2306
  180SOPE  C31720614   0.572   6.099   8.363  0.5795 -0.4793  0.0408
  180SOPE  H17X20615   0.524   6.126   8.459  3.3140  1.6473  0.9481
  180SOPE  H17Y20616   0.596   6.201   8.327 -1.2656 -0.2446 -0.6280
  180SOPE  C31820617   0.694   6.020   8.401  0.3192 -0.0334 -0.4797
  180SOPE  H18X20618   0.768   6.095   8.434 -1.0743  1.0153  0.3428
  180SOPE  H18Y20619   0.730   5.957   8.316 -0.1920  1.3094 -1.7312
  180SOPE  H18Z20620   0.665   5.954   8.485 -0.4744  0.6806 -0.1761
  181SOPE     N20621   0.295   3.920   6.204 -0.0612 -0.7118 -0.5331
  181SOPE   HN120622   0.369   3.912   6.132 -0.1673 -2.0598 -0.5244
  181SOPE   HN220623   0.313   4.011   6.250  0.8565 -1.1696  0.0447
  181SOPE   HN320624   0.310   3.851   6.281  2.2009  1.7786  1.4780
  181SOPE   C1220625   0.158   3.920   6.141 -0.0536 -0.7808  0.1119
  181SOPE  H12A20626   0.157   4.004   6.068  3.7821 -0.1406  0.5393
  181SOPE  H12B20627   0.091   3.933   6.228  2.8932 -0.9928  2.6083
  181SOPE   C1120628   0.142   3.777   6.068 -0.2445  0.3980 -0.1787
  181SOPE  H11A20629   0.135   3.697   6.145 -1.0306 -1.3831 -2.0312
  181SOPE  H11B20630   0.231   3.750   6.008  0.2390 -1.7809  1.4061
  181SOPE     P20631  -0.078   3.649   5.986 -0.2243 -0.0086  0.6523
  181SOPE   O1320632  -0.025   3.549   5.890  0.3637  0.2958 -0.3435
  181SOPE   O1420633  -0.209   3.699   5.955 -0.5318  0.1240  0.2923
  181SOPE   O1220634   0.028   3.768   5.993 -0.3651  0.3539 -0.0205
  181SOPE   O1120635  -0.067   3.584   6.127 -0.4196 -0.0063 -0.1745
  181SOPE    C120636  -0.181   3.549   6.202 -0.3682  0.1202  0.6861
  181SOPE    HA20637  -0.208   3.446   6.171  1.5232 -0.4510  0.7573
  181SOPE    HB20638  -0.272   3.612   6.191 -0.1542  0.4583  0.8212
  181SOPE    C220639  -0.143   3.544   6.352 -0.9483 -0.7237 -0.7540
  181SOPE    HS20640  -0.224   3.497   6.412 -1.2717 -0.5689 -1.0612
  181SOPE   O2120641  -0.114   3.674   6.413  0.8386  0.1760  0.3383
  181SOPE   C2120642  -0.210   3.748   6.451  0.5069 -0.4048 -0.6828
  181SOPE   O2220643  -0.324   3.712   6.467  0.6057 -0.0741 -0.1018
  181SOPE   C2220644  -0.160   3.882   6.490 -0.4053  0.1465 -0.0840
  181SOPE   H2R20645  -0.249   3.935   6.530  0.9144  2.9293 -0.5523
  181SOPE   H2S20646  -0.119   3.936   6.402  1.1084  0.2620  0.6542
  181SOPE    C320647  -0.028   3.445   6.384  0.8118 -0.0499  0.3296
  181SOPE    HX20648   0.066   3.494   6.353  0.9864 -0.4610  0.2085
  181SOPE    HY20649  -0.039   3.351   6.325 -1.0040 -0.0240  0.5571
  181SOPE   O3120650  -0.035   3.415   6.521 -0.2404  0.3350 -0.0502
  181SOPE   C3120651   0.070   3.349   6.571  0.5179  0.2629  0.6888
  181SOPE   O3220652   0.163   3.311   6.504 -0.8901  0.2441 -0.5138
  181SOPE   C3220653   0.040   3.323   6.718 -0.3364  0.0037 -0.2605
  181SOPE   H2X20654   0.139   3.304   6.765 -0.6568 -1.6559 -0.2212
  181SOPE   H2Y20655  -0.013   3.226   6.708  0.9408 -0.6314 -1.4503
  181SOPE   C2320656  -0.060   3.889   6.604  0.8755  0.2232 -0.0159
  181SOPE   H3R20657  -0.034   3.996   6.623  1.1293 -0.1012  1.6324
  181SOPE   H3S20658   0.037   3.845   6.573  1.2400  0.0667  1.2681
  181SOPE   C2420659  -0.108   3.813   6.733 -0.2864  0.7003 -0.0547
  181SOPE   H4R20660  -0.209   3.851   6.758 -1.4250 -1.2956 -1.3568
  181SOPE   H4S20661  -0.133   3.711   6.699 -3.7452  1.4915 -0.1916
  181SOPE   C2520662  -0.013   3.830   6.854  0.4881  0.6839  0.3644
  181SOPE   H5R20663   0.075   3.770   6.821 -1.6536 -2.2218 -0.4294
  181SOPE   H5S20664   0.020   3.934   6.873  2.7037  0.0640  0.2757
  181SOPE   C2620665  -0.065   3.774   6.990 -0.2445 -0.4550 -0.1093
  181SOPE   H6R20666  -0.117   3.677   6.976 -0.7437  0.0288 -1.7480
  181SOPE   H6S20667   0.018   3.747   7.059  0.9340 -3.9471 -2.5903
  181SOPE   C2720668  -0.166   3.873   7.059  0.7272 -0.6689  0.0630
  181SOPE   H7R20669  -0.248   3.899   6.989  0.0120  2.3926  1.8440
  181SOPE   H7S20670  -0.199   3.837   7.159 -1.2901  1.9706  0.4433
  181SOPE   C2820671  -0.097   4.017   7.078 -0.4273  0.2350  0.8050
  181SOPE   H8R20672  -0.088   4.073   6.983 -0.5922 -0.7332  0.2132
  181SOPE   H8S20673  -0.175   4.072   7.136 -1.5178  2.2138 -2.2939
  181SOPE   C2920674   0.035   4.015   7.154  0.1266  0.1181 -0.3554
  181SOPE   H9120675   0.120   4.036   7.087  1.1307  0.9178  1.1002
  181SOPE  C21020676   0.071   3.993   7.282 -0.3823  0.1936 -0.5411
  181SOPE  H10120677   0.178   3.998   7.306 -0.1574 -1.6538 -1.0381
  181SOPE  C21120678  -0.026   3.972   7.396 -0.3716 -0.4977 -0.6675
  181SOPE  H11R20679   0.005   3.871   7.430  0.5132 -0.5176 -1.4708
  181SOPE  H11S20680  -0.134   3.968   7.372 -0.7363 -1.4597  1.0003
  181SOPE  C21220681  -0.008   4.089   7.504 -0.1859  0.9670  0.2655
  181SOPE  H12R20682  -0.084   4.166   7.482 -1.6483 -0.0699  1.5217
  181SOPE  H12S20683   0.092   4.138   7.496  0.7927 -1.1744 -1.9627
  181SOPE  C21320684  -0.025   4.034   7.643  0.0093  0.4077  0.4163
  181SOPE  H13R20685   0.057   3.963   7.669 -0.2326  0.0275  0.1478
  181SOPE  H13S20686  -0.120   3.977   7.636 -1.5020  2.9691 -2.0397
  181SOPE  C21420687  -0.040   4.150   7.740  0.3212  0.5867  0.2252
  181SOPE  H14R20688  -0.126   4.215   7.714  1.8570  2.7802  0.2457
  181SOPE  H14S20689   0.055   4.208   7.731  0.1025  0.7585 -1.2087
  181SOPE  C21520690  -0.060   4.103   7.890  0.4458 -0.5727  0.0648
  181SOPE  H15R20691   0.011   4.026   7.926  0.0929 -0.6262  0.6716
  181SOPE  H15S20692  -0.157   4.048   7.893  1.0445 -1.7734 -1.2362
  181SOPE  C21620693  -0.076   4.214   7.995  0.6096  0.5573 -0.3574
  181SOPE  H16R20694  -0.112   4.306   7.944  1.8150  0.1887 -1.9212
  181SOPE  H16S20695   0.026   4.227   8.037 -0.3562  1.9960  1.6872
  181SOPE  C21720696  -0.176   4.187   8.113  0.0710  0.4587  0.4611
  181SOPE  H17R20697  -0.281   4.181   8.078 -0.8055 -0.9911  3.0904
  181SOPE  H17S20698  -0.163   4.273   8.182  0.9920  0.6638  0.0427
  181SOPE  C21820699  -0.147   4.064   8.199  0.1738  0.3656 -0.7026
  181SOPE  H18R20700  -0.067   4.086   8.272 -0.1159 -0.3617 -0.1545
  181SOPE  H18S20701  -0.113   3.986   8.128  1.2737  1.3167 -1.2619
  181SOPE  H18T20702  -0.233   4.033   8.261  1.5354 -0.0227  1.0621
  181SOPE   C3320703  -0.038   3.432   6.798 -0.1106 -0.3155  0.1904
  181SOPE   H3X20704  -0.142   3.445   6.760 -0.0689  1.1399  0.4987
  181SOPE   H3Y20705   0.010   3.532   6.789 -1.8698  0.5274 -0.3279
  181SOPE   C3420706  -0.037   3.406   6.948 -0.2361  0.4681 -0.2549
  181SOPE   H4X20707  -0.078   3.307   6.976 -0.2541  0.2316 -1.0743
  181SOPE   H4Y20708  -0.112   3.473   6.996 -0.7943 -0.8286  0.7565
  181SOPE   C3520709   0.092   3.429   7.029  1.0081 -0.4587  0.0188
  181SOPE   H5X20710   0.130   3.533   7.024 -0.7966  0.2480  0.3253
  181SOPE   H5Y20711   0.173   3.371   6.978  0.2381  0.6242 -2.6124
  181SOPE   C3620712   0.078   3.392   7.176 -0.1091  0.3865  1.2891
  181SOPE   H6X20713   0.163   3.334   7.217 -0.9903 -1.3899  0.7062
  181SOPE   H6Y20714  -0.009   3.324   7.191  0.7987 -0.3928  3.3166
  181SOPE   C3720715   0.042   3.516   7.258 -0.1058  0.4778 -0.3770
  181SOPE   H7X20716  -0.027   3.580   7.199 -0.6851  1.1100  0.9517
  181SOPE   H7Y20717   0.140   3.565   7.269 -0.7593  1.6342  0.3739
  181SOPE   C3820718  -0.015   3.476   7.400 -0.0011 -0.7700 -0.5574
  181SOPE   H8X20719   0.034   3.383   7.436  0.7702 -0.1603  0.0003
  181SOPE   H8Y20720  -0.125   3.466   7.388 -0.2309  1.0090 -0.2270
  181SOPE   C3920721   0.012   3.581   7.508 -0.5923  0.4458  0.1798
  181SOPE   H9X20722  -0.032   3.674   7.466 -1.4635 -1.2610 -2.9669
  181SOPE   H9Y20723   0.122   3.593   7.517 -0.4804 -1.1782  1.6059
  181SOPE  C31020724  -0.048   3.536   7.638  1.1187 -0.2291 -0.1905
  181SOPE  H10X20725   0.035   3.551   7.710 -1.3334 -0.6118  2.9001
  181SOPE  H10Y20726  -0.083   3.431   7.634  0.9293 -0.1446 -1.2931
  181SOPE  C31120727  -0.157   3.635   7.678  0.8626  0.6279  0.2474
  181SOPE  H11X20728  -0.253   3.618   7.625  1.6719 -1.8377 -0.5423
  181SOPE  H11Y20729  -0.131   3.738   7.645  1.7959  0.4183  0.2993
  181SOPE  C31220730  -0.181   3.621   7.829  0.4257 -0.3032 -0.4534
  181SOPE  H12X20731  -0.089   3.638   7.889 -0.1933  0.8786  0.1868
  181SOPE  H12Y20732  -0.205   3.515   7.851 -1.4937  0.0081 -0.8218
  181SOPE  C31320733  -0.303   3.707   7.875 -0.3639 -0.3465  0.0558
  181SOPE  H13X20734  -0.401   3.662   7.848  0.6562 -1.6389 -1.7777
  181SOPE  H13Y20735  -0.279   3.810   7.839  1.4377 -1.0355 -0.8710
  181SOPE  C31420736  -0.306   3.731   8.025  0.4119 -0.0939  0.4154
  181SOPE  H14X20737  -0.400   3.778   8.061  0.6852 -0.6461  1.9503
  181SOPE  H14Y20738  -0.227   3.801   8.060  3.0710 -2.3946 -0.5810
  181SOPE  C31520739  -0.277   3.604   8.104  0.4036  0.3178  0.7659
  181SOPE  H15X20740  -0.169   3.580   8.092  1.0845  3.4864 -0.6852
  181SOPE  H15Y20741  -0.340   3.520   8.069  2.3657 -1.5960  1.6364
  181SOPE  C31620742  -0.313   3.629   8.249 -0.1191 -0.0835  0.6464
  181SOPE  H16X20743  -0.424   3.629   8.259 -0.1355  0.3813  0.4931
  181SOPE  H16Y20744  -0.271   3.722   8.294  2.2949 -0.9365  0.2945
  181SOPE  C31720745  -0.258   3.519   8.336  0.1428  0.2005 -0.4316
  181SOPE  H17X20746  -0.220   3.549   8.437  1.4174 -0.1228 -0.8006
  181SOPE  H17Y20747  -0.168   3.471   8.293 -1.5411 -1.1080 -2.6306
  181SOPE  C31820748  -0.356   3.403   8.351 -0.5850 -0.3839  0.1830
  181SOPE  H18X20749  -0.308   3.325   8.416  0.3614 -0.5098 -0.6488
  181SOPE  H18Y20750  -0.369   3.343   8.258  3.4409  0.5094 -1.1387
  181SOPE  H18Z20751  -0.456   3.430   8.390 -0.9900 -0.5063 -0.7658
  182SOPE     N20752   0.364   4.866   6.092 -0.2181  0.6944 -0.0265
  182SOPE   HN120753   0.448   4.905   6.138  0.0248  0.5941 -0.3863
  182SOPE   HN220754   0.373   4.898   5.994 -0.5618 -0.8177 -0.5810
  182SOPE   HN320755   0.280   4.893   6.148  0.3189 -1.3523  1.9667
  182SOPE   C1220756   0.372   4.714   6.086 -0.2162 -0.4300  0.5707
  182SOPE  H12A20757   0.470   4.680   6.046 -1.6855 -2.5679 -1.4472
  182SOPE  H12B20758   0.298   4.673   6.014 -0.4813  0.4219  0.3452
  182SOPE   C1120759   0.357   4.654   6.230  0.2233  0.4390  0.1798
  182SOPE  H11A20760   0.421   4.687   6.314 -1.2743 -1.3490  2.1344
  182SOPE  H11B20761   0.371   4.544   6.219 -0.2326  0.3116  0.8392
  182SOPE     P20762   0.095   4.573   6.256 -0.0050 -0.5136 -0.0537
  182SOPE   O1320763   0.080   4.516   6.122 -0.0782 -0.7772  0.1260
  182SOPE   O1420764  -0.021   4.653   6.303 -0.7285  0.5383  0.0343
  182SOPE   O1220765   0.222   4.666   6.267 -0.4347 -0.4057  0.0549
  182SOPE   O1120766   0.119   4.454   6.368  0.4190 -0.2726 -0.2613
  182SOPE    C120767   0.197   4.484   6.481  0.5813 -0.3512  0.1401
  182SOPE    HA20768   0.181   4.588   6.517  0.4528  0.9283 -3.2797
  182SOPE    HB20769   0.305   4.496   6.456  0.3462  1.3359 -0.2178
  182SOPE    C220770   0.180   4.389   6.601 -0.2462 -0.0130  0.4035
  182SOPE    HS20771   0.253   4.435   6.672 -2.0692 -0.0180  2.3717
  182SOPE   O2120772   0.212   4.256   6.553  0.0453  0.1868 -0.3978
  182SOPE   C2120773   0.271   4.180   6.644  0.0955 -0.1712 -0.5515
  182SOPE   O2220774   0.307   4.221   6.751  0.6273  0.0495  0.0259
  182SOPE   C2220775   0.286   4.037   6.598 -0.3996  0.3273  0.3426
  182SOPE   H2R20776   0.388   4.030   6.555  0.0211 -1.8516  1.5722
  182SOPE   H2S20777   0.208   4.015   6.523 -1.8551  0.2868  1.8094
  182SOPE    C320778   0.046   4.402   6.667  0.5349 -0.5558  0.1817
  182SOPE    HX20779  -0.031   4.354   6.602  1.3977  0.2304 -1.5002
  182SOPE    HY20780   0.018   4.509   6.677  0.4358 -0.7781  3.1998
  182SOPE   O3120781   0.041   4.345   6.798  0.1744  0.2069  0.3032
  182SOPE   C3120782   0.102   4.411   6.894 -0.1870  0.3245 -0.1433
  182SOPE   O3220783   0.169   4.514   6.875 -0.2269  0.4309  0.3524
  182SOPE   C3220784   0.070   4.367   7.030  0.7101 -0.0970 -0.4564
  182SOPE   H2X20785   0.138   4.286   7.063  1.5354  1.1320  0.9944
  182SOPE   H2Y20786  -0.037   4.337   7.025  0.3404  1.0970 -0.1350
  182SOPE   C2320787   0.289   3.931   6.714 -0.1196  0.0292  0.0276
  182SOPE   H3R20788   0.259   3.836   6.666  0.6882  1.0561 -2.6944
  182SOPE   H3S20789   0.222   3.960   6.798  0.0894  2.2018 -0.4880
  182SOPE   C2420790   0.432   3.899   6.767  0.4126 -0.2513 -0.3835
  182SOPE   H4R20791   0.492   3.877   6.676  1.0487 -1.0479  0.2130
  182SOPE   H4S20792   0.488   3.979   6.819  0.9415 -1.0113  0.2249
  182SOPE   C2520793   0.451   3.779   6.860 -0.0277 -0.4809  0.4345
  182SOPE   H5R20794   0.387   3.698   6.818  0.2160 -1.4593  1.8912
  182SOPE   H5S20795   0.557   3.751   6.844 -0.4253 -1.0207 -1.5464
  182SOPE   C2620796   0.422   3.808   7.003 -1.5116 -0.0112 -0.9939
  182SOPE   H6R20797   0.498   3.887   7.021  0.3107 -1.6576 -1.0939
  182SOPE   H6S20798   0.317   3.842   7.016 -1.2199  0.9367 -1.0206
  182SOPE   C2720799   0.430   3.689   7.103  0.5290 -0.0292 -0.2375
  182SOPE   H7R20800   0.348   3.620   7.076 -1.4985  1.5434  1.5483
  182SOPE   H7S20801   0.532   3.644   7.114  1.1285  1.2180 -0.4998
  182SOPE   C2820802   0.388   3.736   7.246  0.1128 -1.0639  0.0510
  182SOPE   H8R20803   0.450   3.824   7.272 -0.5831 -0.7311  0.6413
  182SOPE   H8S20804   0.286   3.780   7.237  0.4164 -0.7856 -2.7153
  182SOPE   C2920805   0.390   3.636   7.353 -0.1874 -0.0528 -0.5025
  182SOPE   H9120806   0.364   3.532   7.327 -1.3875  0.0211  0.3336
  182SOPE  C21020807   0.407   3.664   7.485  0.3563  0.7399 -0.3341
  182SOPE  H10120808   0.414   3.574   7.549 -0.7891 -0.2017 -1.4827
  182SOPE  C21120809   0.418   3.795   7.548 -0.3388 -0.2798 -0.4667
  182SOPE  H11R20810   0.430   3.875   7.471  1.8599  0.5505  0.6545
  182SOPE  H11S20811   0.509   3.799   7.612  0.9148  0.1561 -2.2095
  182SOPE  C21220812   0.290   3.821   7.637 -0.5097  0.3467  0.4086
  182SOPE  H12R20813   0.199   3.810   7.574 -0.8453  0.7384  0.8164
  182SOPE  H12S20814   0.297   3.931   7.656  1.1613  0.4147 -0.4194
  182SOPE  C21320815   0.305   3.757   7.777  0.4769  0.1274  0.5626
  182SOPE  H13R20816   0.406   3.782   7.815 -0.1125  1.4319  1.3583
  182SOPE  H13S20817   0.300   3.647   7.767  1.2965  0.2193 -1.1824
  182SOPE  C21420818   0.190   3.791   7.873  0.3794  0.6709 -0.1142
  182SOPE  H14R20819   0.088   3.783   7.830 -0.0725  1.6488  0.7233
  182SOPE  H14S20820   0.207   3.897   7.902  2.2165  0.7437 -1.2236
  182SOPE  C21520821   0.203   3.716   8.004 -0.4876  0.6676  0.4801
  182SOPE  H15R20822   0.313   3.709   8.021 -0.6294 -2.5285  0.7192
  182SOPE  H15S20823   0.174   3.610   7.986 -0.6084  0.7239  0.3438
  182SOPE  C21620824   0.135   3.789   8.124 -0.3344 -0.1985 -0.3246
  182SOPE  H16R20825   0.034   3.828   8.099 -0.1183  0.4647 -0.1782
  182SOPE  H16S20826   0.185   3.886   8.140 -0.2620 -0.2610 -0.1649
  182SOPE  C21720827   0.140   3.716   8.254  0.2889  0.0143 -0.3251
  182SOPE  H17R20828   0.185   3.616   8.236 -2.4124 -1.4857  0.6393
  182SOPE  H17S20829   0.037   3.694   8.288  0.1096  2.4100  0.8507
  182SOPE  C21820830   0.219   3.801   8.361 -0.1968  0.4859  0.1446
  182SOPE  H18R20831   0.154   3.881   8.403 -0.1792 -0.2946  1.7303
  182SOPE  H18S20832   0.312   3.840   8.314  0.1149 -1.9054 -1.3504
  182SOPE  H18T20833   0.246   3.735   8.446  4.0689 -0.9199 -2.0520
  182SOPE   C3320834   0.076   4.482   7.126 -0.2899 -0.4678 -0.4618
  182SOPE   H3X20835   0.027   4.576   7.091  0.8340  0.2273 -0.2286
  182SOPE   H3Y20836   0.182   4.502   7.152 -0.6600 -0.8439  1.4754
  182SOPE   C3420837   0.014   4.447   7.262 -0.2785 -0.5329  0.0089
  182SOPE   H4X20838   0.076   4.361   7.295 -1.1419 -0.3455  2.2809
  182SOPE   H4Y20839  -0.093   4.418   7.258 -1.2799  2.7696  0.2341
  182SOPE   C3520840   0.026   4.563   7.355  0.2708  0.0033  0.0688
  182SOPE   H5X20841  -0.035   4.643   7.308 -0.2567 -0.2066  0.3826
  182SOPE   H5Y20842   0.133   4.595   7.353 -0.4511  2.7241  0.5874
  182SOPE   C3620843  -0.007   4.530   7.498 -0.1334 -0.0338 -0.1213
  182SOPE   H6X20844   0.068   4.453   7.526 -0.3441 -0.7312 -1.4099
  182SOPE   H6Y20845  -0.110   4.489   7.503 -0.5556  1.0427  0.4552
  182SOPE   C3720846   0.020   4.659   7.588 -0.0307  0.4455  0.5352
  182SOPE   H7X20847  -0.029   4.750   7.546 -0.0293  0.2018 -0.0072
  182SOPE   H7Y20848   0.131   4.671   7.591  0.2939 -1.0731 -2.0176
  182SOPE   C3820849  -0.028   4.635   7.732  0.0935  0.4277 -0.5607
  182SOPE   H8X20850   0.037   4.554   7.774 -1.2019 -1.4201 -1.9732
  182SOPE   H8Y20851  -0.125   4.582   7.740 -0.7353  1.9796  0.0508
  182SOPE   C3920852  -0.024   4.761   7.824 -0.2707  0.6193 -0.7370
  182SOPE   H9X20853  -0.124   4.808   7.809 -1.5075 -2.0844 -1.7097
  182SOPE   H9Y20854   0.046   4.830   7.773  0.1538  1.8644  1.4013
  182SOPE  C31020855   0.013   4.731   7.975 -0.1622 -0.3434 -0.4184
  182SOPE  H10X20856   0.020   4.828   8.028 -0.1038 -1.3890  1.5929
  182SOPE  H10Y20857   0.117   4.692   7.977  0.2555  0.7570 -0.1847
  182SOPE  C31120858  -0.096   4.643   8.045  0.2458 -0.7566 -0.5085
  182SOPE  H11X20859  -0.105   4.542   7.999 -0.3335 -0.5640 -0.8261
  182SOPE  H11Y20860  -0.191   4.694   8.020  1.1612  0.1623 -2.3645
  182SOPE  C31220861  -0.071   4.624   8.195 -0.5409  0.3016  0.3396
  182SOPE  H12X20862  -0.161   4.571   8.233 -0.0702 -0.9619 -0.2360
  182SOPE  H12Y20863  -0.066   4.722   8.247 -0.5255 -0.1323  1.1650
  182SOPE  C31320864   0.056   4.552   8.241 -0.4436  0.1804 -0.6446
  182SOPE  H13X20865   0.141   4.606   8.194  0.2199  0.4282  0.7922
  182SOPE  H13Y20866   0.072   4.449   8.203  0.7897 -0.4032  1.2748
  182SOPE  C31420867   0.073   4.541   8.397  0.0555  0.1838 -0.2067
  182SOPE  H14X20868   0.014   4.455   8.436 -2.3577  1.4782 -0.8648
  182SOPE  H14Y20869   0.023   4.628   8.446 -2.8536  0.1128 -2.7882
  182SOPE  C31520870   0.222   4.523   8.448 -0.0890 -0.1595 -0.0344
  182SOPE  H15X20871   0.259   4.627   8.432  1.0535 -0.6481 -0.6609
  182SOPE  H15Y20872   0.258   4.447   8.375 -2.5206  0.9734 -2.6077
  182SOPE  C31620873   0.268   4.494   8.595  0.3658 -0.3543  1.2086
  182SOPE  H16X20874   0.226   4.569   8.666 -2.3033 -0.4344 -0.1630
  182SOPE  H16Y20875   0.378   4.498   8.582  0.0940  1.7553 -1.4251
  182SOPE  C31720876   0.230   4.349   8.637 -0.0722 -0.9351  0.0278
  182SOPE  H17X20877   0.120   4.345   8.652  0.1112  0.0710  2.0677
  182SOPE  H17Y20878   0.287   4.326   8.730 -1.8594 -0.9809  1.1786
  182SOPE  C31820879   0.260   4.242   8.528 -0.1562 -0.3409  0.7430
  182SOPE  H18X20880   0.242   4.139   8.564  2.8010 -0.5019  2.0730
  182SOPE  H18Y20881   0.367   4.242   8.499 -0.9480  1.6344 -2.7637
  182SOPE  H18Z20882   0.212   4.269   8.431  3.0757  1.0079 -0.6371
  183SOPE     N20883   3.620   1.402   6.147  0.4366 -0.1411 -0.8254
  183SOPE   HN120884   3.637   1.491   6.199 -1.3877  0.0378 -0.4924
  183SOPE   HN220885   3.701   1.338   6.163  0.5005  0.0719 -0.2701
  183SOPE   HN320886   3.602   1.410   6.045 -3.0484  1.3061 -0.2242
  183SOPE   C1220887   3.501   1.332   6.199  0.3906  0.2018  0.2475
  183SOPE  H12A20888   3.514   1.223   6.181 -2.0385  0.2067 -2.2243
  183SOPE  H12B20889   3.415   1.377   6.144  0.0602  3.1763  2.9231
  183SOPE   C1120890   3.469   1.351   6.339  0.2995  0.3840  0.4877
  183SOPE  H11A20891   3.371   1.305   6.364  0.4806  0.0779  0.6435
  183SOPE  H11B20892   3.442   1.457   6.356 -0.8568  0.0412  0.8611
  183SOPE     P20893   3.595   1.401   6.570 -0.4570  0.0820  0.4268
  183SOPE   O1320894   3.529   1.532   6.564 -0.3487  0.2832  0.2678
  183SOPE   O1420895   3.736   1.408   6.600 -0.1715  0.0882  0.1189
  183SOPE   O1220896   3.577   1.326   6.428 -0.0455  0.0072  0.2538
  183SOPE   O1120897   3.518   1.302   6.661  0.3375 -0.2400  0.2555
  183SOPE    C120898   3.486   1.323   6.801  0.3857  0.4450  0.1995
  183SOPE    HA20899   3.548   1.401   6.851  1.1537 -0.1859  0.2474
  183SOPE    HB20900   3.507   1.224   6.847  1.0511 -1.6257 -4.0576
  183SOPE    C220901   3.331   1.361   6.814  0.9425 -0.2947 -0.0031
  183SOPE    HS20902   3.317   1.466   6.780  0.4875  1.3430  4.5497
  183SOPE   O2120903   3.288   1.352   6.948 -0.2495  0.2015  0.3047
  183SOPE   C2120904   3.300   1.468   7.006  0.7778 -0.1112  1.0137
  183SOPE   O2220905   3.368   1.558   6.965 -0.8096 -0.7485 -0.5294
  183SOPE   C2220906   3.230   1.470   7.143  0.2928 -0.1238 -0.1346
  183SOPE   H2R20907   3.156   1.387   7.151 -0.6662  0.8394  1.8992
  183SOPE   H2S20908   3.173   1.564   7.157 -1.1475 -0.5297 -2.6042
  183SOPE    C320909   3.234   1.279   6.716  0.5808  0.3423 -0.0727
  183SOPE    HX20910   3.281   1.179   6.721  0.0705  0.0854 -0.3191
  183SOPE    HY20911   3.246   1.326   6.617 -0.5083  0.1773 -0.2972
  183SOPE   O3120912   3.095   1.280   6.758  0.1645 -0.3173 -0.3532
  183SOPE   C3120913   3.021   1.386   6.754 -0.3782 -0.6813  0.0099
  183SOPE   O3220914   3.054   1.503   6.733  0.2475  0.3767  0.4297
  183SOPE   C3220915   2.876   1.340   6.778 -0.3968 -0.0964 -0.5133
  183SOPE   H2X20916   2.878   1.235   6.812 -1.2867  0.5761  1.7306
  183SOPE   H2Y20917   2.817   1.350   6.684 -1.0463  1.1308  0.0078
  183SOPE   C2320918   3.325   1.470   7.270 -0.2947  0.8341  0.1070
  183SOPE   H3R20919   3.405   1.546   7.256  2.8559 -2.5213 -1.4799
  183SOPE   H3S20920   3.375   1.373   7.289 -0.2585 -0.0723 -3.7913
  183SOPE   C2420921   3.233   1.484   7.396  0.0729  0.0526  0.0541
  183SOPE   H4R20922   3.179   1.582   7.396 -0.4829 -0.2520 -0.2279
  183SOPE   H4S20923   3.147   1.416   7.382 -0.8496  1.4381 -1.5232
  183SOPE   C2520924   3.312   1.479   7.526 -0.3522  0.3815  0.4744
  183SOPE   H5R20925   3.372   1.386   7.516 -0.8065  0.3328 -3.4295
  183SOPE   H5S20926   3.388   1.555   7.555 -0.8823  0.4279  1.8114
  183SOPE   C2620927   3.229   1.488   7.658  0.4264  0.4443 -0.2640
  183SOPE   H6R20928   3.155   1.570   7.650 -1.5025 -1.3468 -1.8140
  183SOPE   H6S20929   3.170   1.394   7.665  1.9974 -0.5237  0.4334
  183SOPE   C2720930   3.312   1.495   7.781  0.1701  0.5599  0.1334
  183SOPE   H7R20931   3.392   1.419   7.778 -0.8830 -0.7522  2.4614
  183SOPE   H7S20932   3.359   1.594   7.798 -0.9184  0.8622  1.6879
  183SOPE   C2820933   3.242   1.468   7.920 -0.1228  0.1280  0.0417
  183SOPE   H8R20934   3.184   1.376   7.896 -0.0095  0.3349 -1.1068
  183SOPE   H8S20935   3.329   1.455   7.987  0.9543 -0.1027 -1.3374
  183SOPE   C2920936   3.142   1.566   7.973 -0.0659  0.0562  0.7305
  183SOPE   H9120937   3.083   1.614   7.893 -0.0405 -0.7035  0.2497
  183SOPE  C21020938   3.126   1.598   8.101 -0.1820  0.2536  0.6383
  183SOPE  H10120939   3.046   1.672   8.116 -0.2378  0.7731 -1.8574
  183SOPE  C21120940   3.201   1.543   8.219  0.5111 -0.7959 -0.0532
  183SOPE  H11R20941   3.264   1.629   8.251 -2.4413  0.6608  2.3064
  183SOPE  H11S20942   3.273   1.463   8.192 -0.2247 -1.2373 -0.7727
  183SOPE  C21220943   3.133   1.502   8.346  0.3890 -0.9269 -0.0971
  183SOPE  H12R20944   3.082   1.586   8.398 -0.0925 -1.1927 -0.1395
  183SOPE  H12S20945   3.211   1.466   8.416 -0.7701 -2.2912  0.5342
  183SOPE  C21320946   3.018   1.398   8.328 -0.3772 -0.0567 -0.4005
  183SOPE  H13R20947   3.047   1.298   8.288  1.1397 -0.3864  1.3920
  183SOPE  H13S20948   2.940   1.448   8.267  1.3428  1.3173 -1.5246
  183SOPE  C21420949   2.955   1.356   8.459 -0.1191  0.8919 -0.5056
  183SOPE  H14R20950   2.864   1.297   8.436  1.1474 -1.7298  0.7413
  183SOPE  H14S20951   2.913   1.445   8.510 -0.1354  0.3153  0.5242
  183SOPE  C21520952   3.048   1.274   8.554  0.4297  0.1696  0.0706
  183SOPE  H15R20953   2.977   1.245   8.634 -0.1947 -1.4121 -1.0016
  183SOPE  H15S20954   3.129   1.326   8.609  0.0043  0.3992  0.4927
  183SOPE  C21620955   3.109   1.145   8.501  0.1871  0.2693  0.0127
  183SOPE  H16R20956   3.165   1.166   8.407 -0.5700  0.3531 -0.4263
  183SOPE  H16S20957   3.026   1.082   8.463  1.0392  0.9043 -3.2266
  183SOPE  C21720958   3.205   1.075   8.602 -0.6499 -0.3192  0.5949
  183SOPE  H17R20959   3.282   1.151   8.630 -1.2113  0.4832 -0.0150
  183SOPE  H17S20960   3.253   0.993   8.544 -0.7027  0.4743 -0.6131
  183SOPE  C21820961   3.133   1.001   8.716 -0.1080 -0.3555 -0.1281
  183SOPE  H18R20962   3.196   0.930   8.773 -1.6576 -0.2483  1.8341
  183SOPE  H18S20963   3.059   0.929   8.674 -1.0273  0.4036  0.1466
  183SOPE  H18T20964   3.085   1.072   8.786 -1.6764 -0.1935 -1.2962
  183SOPE   C3320965   2.805   1.423   6.890  0.1142  0.0541 -0.0992
  183SOPE   H3X20966   2.709   1.377   6.924  0.2770 -0.8346 -0.7922
  183SOPE   H3Y20967   2.788   1.528   6.861  0.7488  0.6877  1.6729
  183SOPE   C3420968   2.870   1.433   7.028  0.3235 -0.4966  0.2988
  183SOPE   H4X20969   2.826   1.526   7.070 -1.1151 -0.5101 -1.1056
  183SOPE   H4Y20970   2.980   1.430   7.013  0.2034 -1.5430 -0.4360
  183SOPE   C3520971   2.821   1.325   7.129  0.8516 -0.3357  0.3030
  183SOPE   H5X20972   2.870   1.228   7.108 -1.6363 -1.7920  0.9256
  183SOPE   H5Y20973   2.711   1.312   7.136  0.8667 -0.0506  1.3194
  183SOPE   C3620974   2.851   1.372   7.274  0.2484  0.2025  0.4714
  183SOPE   H6X20975   2.769   1.443   7.295  0.0747  0.3622 -0.6502
  183SOPE   H6Y20976   2.952   1.415   7.286  0.5293 -0.6713  1.3708
  183SOPE   C3720977   2.842   1.258   7.383 -0.5645  0.3706  0.7634
  183SOPE   H7X20978   2.944   1.228   7.414  0.0440  1.8229  0.2637
  183SOPE   H7Y20979   2.796   1.167   7.338 -0.5821 -0.3129  2.1127
  183SOPE   C3820980   2.756   1.305   7.504  0.2409  0.1507 -0.0767
  183SOPE   H8X20981   2.757   1.218   7.573 -1.2550  0.9572  1.0336
  183SOPE   H8Y20982   2.653   1.335   7.474  0.0377  0.6858  1.1174
  183SOPE   C3920983   2.823   1.424   7.578 -0.2090  0.5809  0.9060
  183SOPE   H9X20984   2.814   1.513   7.512 -0.1455 -0.3710 -0.4046
  183SOPE   H9Y20985   2.932   1.408   7.584 -0.3952 -0.8813  0.6431
  183SOPE  C31020986   2.757   1.450   7.708  0.1869  0.0543 -0.2508
  183SOPE  H10X20987   2.789   1.367   7.775 -0.2425 -0.1116 -0.2471
  183SOPE  H10Y20988   2.647   1.449   7.694  0.2173  0.1986 -0.4875
  183SOPE  C31120989   2.785   1.583   7.784  1.2378 -0.5648  0.1496
  183SOPE  H11X20990   2.741   1.669   7.729  0.5228 -0.3117  1.0844
  183SOPE  H11Y20991   2.895   1.598   7.794  0.9337  1.9370  0.4336
  183SOPE  C31220992   2.714   1.577   7.918  0.1094 -0.6139 -0.9694
  183SOPE  H12X20993   2.741   1.488   7.980  1.1654 -1.8361 -3.0723
  183SOPE  H12Y20994   2.605   1.568   7.897 -0.2799  0.6473  0.3214
  183SOPE  C31320995   2.717   1.713   8.000 -1.1431  0.1227  0.0009
  183SOPE  H13X20996   2.698   1.797   7.930 -2.0402  1.4059  1.7253
  183SOPE  H13Y20997   2.818   1.730   8.043 -0.6473  0.1260 -1.1410
  183SOPE  C31420998   2.603   1.719   8.102  0.3783 -0.1358  0.3991
  183SOPE  H14X20999   2.511   1.668   8.066  0.1749 -0.3257  1.1901
  183SOPE  H14Y21000   2.581   1.823   8.133 -1.1841 -0.1493 -0.5640
  183SOPE  C31521001   2.634   1.646   8.232  0.1726 -0.0635 -0.8277
  183SOPE  H15X21002   2.702   1.714   8.287  0.5751 -0.3670 -0.9524
  183SOPE  H15Y21003   2.689   1.551   8.213 -1.4045 -1.5505  1.4225
  183SOPE  C31621004   2.518   1.618   8.334 -0.7915 -0.6704 -0.0350
  183SOPE  H16X21005   2.458   1.543   8.278  0.5272 -0.9014 -1.1785
  183SOPE  H16Y21006   2.463   1.712   8.357 -0.1172  0.4118 -2.4984
  183SOPE  C31721007   2.580   1.557   8.457  0.1207  0.3326  0.1967
  183SOPE  H17X21008   2.654   1.629   8.499 -0.4394 -0.0294  1.9182
  183SOPE  H17Y21009   2.634   1.462   8.438  0.2652  0.4390  0.0763
  183SOPE  C31821010   2.478   1.524   8.570 -1.0729  0.0153  1.1823
  183SOPE  H18X21011   2.456   1.625   8.611 -1.8856 -0.5398  2.1568
  183SOPE  H18Y21012   2.519   1.453   8.646 -0.7888 -0.1558  0.8676
  183SOPE  H18Z21013   2.383   1.473   8.542 -0.5386 -0.6161  0.4866
  184SOPE     N21014   5.948   4.802   6.067  0.1956  0.1319 -0.5911
  184SOPE   HN121015   6.016   4.770   5.995  0.6681 -2.3508  0.8507
  184SOPE   HN221016   5.855   4.766   6.040  0.6389  0.0081 -2.0251
  184SOPE   HN321017   5.937   4.905   6.055  1.7576  0.4111  0.1049
  184SOPE   C1221018   5.998   4.767   6.208  0.2786  0.5242  1.0298
  184SOPE  H12A21019   5.995   4.656   6.222  1.6408  0.2877 -0.2769
  184SOPE  H12B21020   5.928   4.806   6.285 -1.6562 -0.5031 -0.1366
  184SOPE   C1121021   6.131   4.832   6.213  0.2143 -0.1852  0.1482
  184SOPE  H11A21022   6.173   4.839   6.316 -0.4542  0.5774  0.3833
  184SOPE  H11B21023   6.129   4.936   6.174 -1.6666 -0.1706  0.1759
  184SOPE     P21024   6.358   4.709   6.156 -0.3345 -0.3676  0.3615
  184SOPE   O1321025   6.458   4.815   6.117 -0.1209  0.3076  0.1340
  184SOPE   O1421026   6.377   4.579   6.087 -0.0482 -0.1883 -0.2797
  184SOPE   O1221027   6.214   4.766   6.120 -0.5946 -0.0124 -0.3567
  184SOPE   O1121028   6.356   4.687   6.314 -0.1903 -0.2231 -0.5083
  184SOPE    C121029   6.326   4.580   6.395  0.3129  0.4373 -0.0679
  184SOPE    HA21030   6.240   4.521   6.355  0.3013 -0.5458  1.3499
  184SOPE    HB21031   6.300   4.617   6.496 -0.2766 -0.3236  0.0701
  184SOPE    C221032   6.451   4.485   6.414 -0.7822 -0.3658  0.7669
  184SOPE    HS21033   6.481   4.464   6.309 -0.4379  0.7291  0.6286
  184SOPE   O2121034   6.396   4.368   6.471 -0.4278 -0.0321 -0.4518
  184SOPE   C2121035   6.460   4.252   6.495  0.1580  0.2627  0.6131
  184SOPE   O2221036   6.572   4.223   6.454  0.9150 -0.3349  0.0772
  184SOPE   C2221037   6.359   4.163   6.563  0.6822  0.1035  0.0519
  184SOPE   H2R21038   6.352   4.081   6.489 -0.7186  0.8687 -0.7108
  184SOPE   H2S21039   6.260   4.213   6.571  0.5394 -0.1581 -0.0662
  184SOPE    C321040   6.566   4.544   6.500 -0.6172  0.0717  0.3661
  184SOPE    HX21041   6.572   4.650   6.470 -3.5335 -0.0696 -1.1130
  184SOPE    HY21042   6.653   4.489   6.458  0.0549  1.0642  0.4501
  184SOPE   O3121043   6.565   4.523   6.644 -0.4887 -0.0037  0.1043
  184SOPE   C3121044   6.495   4.617   6.713  0.0101 -0.2824  0.1864
  184SOPE   O3221045   6.444   4.717   6.664  0.3556  0.2071 -0.8103
  184SOPE   C3221046   6.495   4.583   6.866  0.3828  0.0967  0.4420
  184SOPE   H2X21047   6.590   4.527   6.883 -1.1104 -2.3189  1.4613
  184SOPE   H2Y21048   6.408   4.513   6.870 -0.3873  0.9811 -0.2603
  184SOPE   C2321049   6.403   4.121   6.700  0.6188 -0.1704 -0.7564
  184SOPE   H3R21050   6.509   4.088   6.695  0.9394  0.5542  0.7761
  184SOPE   H3S21051   6.341   4.034   6.729  1.4263  0.3248  2.9186
  184SOPE   C2421052   6.396   4.235   6.802 -0.3461 -0.3436  0.7823
  184SOPE   H4R21053   6.483   4.299   6.776 -0.8153 -0.2635 -0.6980
  184SOPE   H4S21054   6.311   4.302   6.776  0.5295 -0.3503 -2.5535
  184SOPE   C2521055   6.404   4.195   6.952 -0.1761 -0.2497  0.2532
  184SOPE   H5R21056   6.342   4.104   6.966 -2.5736  1.2882  0.1731
  184SOPE   H5S21057   6.508   4.181   6.988 -0.9277  0.8956  3.1772
  184SOPE   C2621058   6.354   4.297   7.060 -0.3301  0.3632  1.0104
  184SOPE   H6R21059   6.418   4.388   7.055 -1.5602  1.2430  0.8981
  184SOPE   H6S21060   6.250   4.326   7.033  0.3259  0.0600 -2.3215
  184SOPE   C2721061   6.368   4.235   7.204 -0.5380 -0.8867  0.5628
  184SOPE   H7R21062   6.299   4.148   7.201 -1.7116  0.0055 -2.8014
  184SOPE   H7S21063   6.469   4.192   7.220  0.8564  2.4848  1.6158
  184SOPE   C2821064   6.318   4.334   7.315  0.3601  0.3669 -0.0579
  184SOPE   H8R21065   6.352   4.437   7.290 -2.0657  0.8968 -1.5474
  184SOPE   H8S21066   6.208   4.351   7.313  0.2358 -0.2161  1.0911
  184SOPE   C2921067   6.369   4.285   7.450  0.8878 -0.2362  0.7066
  184SOPE   H9121068   6.381   4.175   7.449 -1.4403 -0.5483  0.2699
  184SOPE  C21021069   6.381   4.350   7.567 -0.3758  0.5131  0.5534
  184SOPE  H10121070   6.427   4.295   7.651 -0.9344 -0.2194  0.3909
  184SOPE  C21121071   6.375   4.495   7.588 -0.0523 -0.1969 -0.1858
  184SOPE  H11R21072   6.320   4.536   7.500 -0.2227  1.3047  0.5901
  184SOPE  H11S21073   6.479   4.534   7.588  0.4957 -1.5655 -1.1571
  184SOPE  C21221074   6.284   4.516   7.714  1.0075 -0.4471  0.0487
  184SOPE  H12R21075   6.194   4.453   7.701 -0.6380  1.9128 -0.7970
  184SOPE  H12S21076   6.245   4.621   7.711  1.1597 -0.2264  2.9317
  184SOPE  C21321077   6.351   4.501   7.849 -0.0488  0.6259  0.1418
  184SOPE  H13R21078   6.450   4.549   7.838  0.2055 -0.1707 -1.3595
  184SOPE  H13S21079   6.359   4.395   7.881 -3.2830  0.5833  1.1717
  184SOPE  C21421080   6.257   4.563   7.952 -0.0691 -0.3902 -0.5559
  184SOPE  H14R21081   6.170   4.500   7.980 -0.0686  0.7638  2.3960
  184SOPE  H14S21082   6.218   4.657   7.910 -0.0601  0.3515  1.0151
  184SOPE  C21521083   6.312   4.606   8.095  0.0985  0.0471  0.2082
  184SOPE  H15R21084   6.402   4.670   8.084  0.9039 -1.3594 -2.2556
  184SOPE  H15S21085   6.347   4.510   8.139 -0.4395 -0.5859 -0.6917
  184SOPE  C21621086   6.202   4.676   8.171 -0.4678 -0.3560  0.3969
  184SOPE  H16R21087   6.113   4.612   8.185 -0.8691 -0.3701 -1.8253
  184SOPE  H16S21088   6.185   4.775   8.123  3.9252 -0.8856 -2.8541
  184SOPE  C21721089   6.258   4.697   8.316  0.7214  0.2641  0.3978
  184SOPE  H17R21090   6.351   4.757   8.304  0.6853  0.1435 -0.5264
  184SOPE  H17S21091   6.282   4.602   8.367  2.9280  1.5493  1.9317
  184SOPE  C21821092   6.162   4.781   8.400 -0.1523 -0.0737 -0.1368
  184SOPE  H18R21093   6.209   4.807   8.497 -1.9713 -1.9662  1.3743
  184SOPE  H18S21094   6.069   4.722   8.417  0.3651 -0.5347  1.2750
  184SOPE  H18T21095   6.145   4.879   8.351 -1.3332  0.2650  0.8788
  184SOPE   C3321096   6.468   4.704   6.955 -0.0267 -0.0077  0.2448
  184SOPE   H3X21097   6.365   4.736   6.929 -0.7606 -1.3691  1.3405
  184SOPE   H3Y21098   6.544   4.784   6.943  0.4285 -0.2606  1.3252
  184SOPE   C3421099   6.469   4.669   7.102  0.2985 -0.2116 -0.2643
  184SOPE   H4X21100   6.564   4.614   7.123  0.7575  0.2869 -0.9632
  184SOPE   H4Y21101   6.398   4.592   7.137  1.0599  0.0412  1.9484
  184SOPE   C3521102   6.449   4.796   7.183  1.1554 -0.7216  0.0451
  184SOPE   H5X21103   6.341   4.824   7.176  0.4996 -2.9553  0.2864
  184SOPE   H5Y21104   6.522   4.869   7.143 -0.3632  0.4975 -0.6418
  184SOPE   C3621105   6.449   4.774   7.332 -0.1989 -0.3204 -0.6421
  184SOPE   H6X21106   6.551   4.739   7.360 -0.9575  0.1681  3.3024
  184SOPE   H6Y21107   6.379   4.695   7.365  0.6301 -0.1278  1.8189
  184SOPE   C3721108   6.435   4.897   7.428  0.2332 -0.0626  0.1900
  184SOPE   H7X21109   6.326   4.916   7.417  0.2551 -0.5880 -1.0980
  184SOPE   H7Y21110   6.504   4.970   7.380  1.1997 -0.4152  1.0003
  184SOPE   C3821111   6.473   4.864   7.571  0.8076 -0.1195 -0.2475
  184SOPE   H8X21112   6.580   4.834   7.569  0.6909 -0.4932 -0.8793
  184SOPE   H8Y21113   6.414   4.774   7.598  1.5010  0.0252  1.9930
  184SOPE   C3921114   6.454   4.977   7.678  0.0300  0.5339 -0.0881
  184SOPE   H9X21115   6.402   5.056   7.619  3.9136  1.3758 -2.7867
  184SOPE   H9Y21116   6.554   5.019   7.704 -0.2058  0.8263  0.3383
  184SOPE  C31021117   6.387   4.930   7.804  0.3505 -0.4411 -0.0260
  184SOPE  H10X21118   6.439   4.840   7.843 -0.8260 -1.8852 -1.6516
  184SOPE  H10Y21119   6.287   4.892   7.775  0.3710 -0.5924  0.1045
  184SOPE  C31121120   6.385   5.030   7.916  0.1276  0.9457 -0.3752
  184SOPE  H11X21121   6.320   5.116   7.891 -0.4191  0.1557 -1.7318
  184SOPE  H11Y21122   6.483   5.078   7.938  0.6521 -0.6202  0.9827
  184SOPE  C31221123   6.337   4.980   8.058 -0.0544 -0.2261 -0.0097
  184SOPE  H12X21124   6.384   4.885   8.090  0.2453 -0.0975 -0.0584
  184SOPE  H12Y21125   6.230   4.961   8.038  0.0854  0.6933 -1.9142
  184SOPE  C31321126   6.356   5.085   8.163 -0.4242  0.0874  0.0070
  184SOPE  H13X21127   6.287   5.071   8.249 -0.6629  0.3277 -0.1417
  184SOPE  H13Y21128   6.338   5.188   8.124 -0.3346  0.3847  0.7263
  184SOPE  C31421129   6.495   5.083   8.237  0.4407  0.4104  1.1640
  184SOPE  H14X21130   6.573   5.059   8.162 -0.2695  0.5077  0.3787
  184SOPE  H14Y21131   6.487   5.004   8.315  1.0772 -0.2280  0.5987
  184SOPE  C31521132   6.520   5.213   8.315 -0.9007 -0.1222 -0.3189
  184SOPE  H15X21133   6.429   5.237   8.373 -0.2442  2.3268 -0.2140
  184SOPE  H15Y21134   6.535   5.299   8.246 -0.4741  0.2975  0.2922
  184SOPE  C31621135   6.646   5.212   8.407 -0.5212 -0.0023 -0.2092
  184SOPE  H16X21136   6.738   5.218   8.347  1.5579 -0.0922  2.7543
  184SOPE  H16Y21137   6.639   5.118   8.466 -3.1343 -1.7912 -3.0823
  184SOPE  C31721138   6.649   5.335   8.505  0.0673  0.4904 -0.3605
  184SOPE  H17X21139   6.659   5.424   8.439 -1.1195  0.0860 -1.1182
  184SOPE  H17Y21140   6.741   5.326   8.566  0.3420 -1.7782 -1.0428
  184SOPE  C31821141   6.529   5.335   8.600  0.2853  0.4930 -0.5289
  184SOPE  H18X21142   6.520   5.424   8.665  2.2026 -0.7445  1.5849
  184SOPE  H18Y21143   6.531   5.244   8.664  1.2574  1.5108  0.9551
  184SOPE  H18Z21144   6.430   5.355   8.554  0.1428  1.4766  0.1732
  185SAPI   C1221145   0.250   0.289  11.029  0.4710  0.5704 -0.0872
  185SAPI    H221146   0.229   0.238  10.932  1.9146 -1.9012  0.8250
  185SAPI    O221147   0.149   0.249  11.123 -0.6048 -0.4288  0.6193
  185SAPI   HO221148   0.085   0.320  11.135  1.7344  1.6786  1.4771
  185SAPI   C1321149   0.397   0.262  11.081  0.1474  0.4639 -0.0732
  185SAPI    H321150   0.463   0.295  10.997  0.4597  1.3592  0.5136
  185SAPI    O321151   0.422   0.121  11.099  0.4771 -0.2932  0.5754
  185SAPI   HO321152   0.379   0.087  11.178 -1.5450 -1.2871 -0.8604
  185SAPI   C1421153   0.421   0.343  11.206  0.2722 -0.0601  0.0598
  185SAPI    H421154   0.353   0.305  11.285 -1.0110  1.7853 -0.0828
  185SAPI    O421155   0.555   0.317  11.256  0.5736  0.3075  0.1132
  185SAPI   HO421156   0.534   0.259  11.330  1.1579  1.3381  1.1249
  185SAPI   C1521157   0.400   0.490  11.186 -0.0451 -0.7298  0.6960
  185SAPI    H521158   0.476   0.525  11.113 -0.9807  0.4391  0.2592
  185SAPI    O521159   0.421   0.566  11.303 -0.1483  0.2423 -0.1135
  185SAPI   HO521160   0.355   0.546  11.370 -1.9618  1.0243 -1.5687
  185SAPI   C1621161   0.260   0.515  11.133 -1.1551  0.4735 -0.1511
  185SAPI    H621162   0.194   0.470  11.211  0.2253 -1.7779 -0.1922
  185SAPI    O621163   0.239   0.650  11.109 -0.1077  0.5789 -0.3444
  185SAPI   HO621164   0.222   0.653  11.014  0.1696 -1.7481 -0.5353
  185SAPI   C1121165   0.238   0.439  11.005  0.4269  0.1545 -0.4822
  185SAPI    H121166   0.322   0.455  10.933  2.1487 -1.4100  1.0650
  185SAPI     P21167   0.080   0.535  10.808  0.2331 -0.0858 -0.1357
  185SAPI   O1321168   0.185   0.643  10.810  0.2261 -0.1040 -0.3487
  185SAPI   O1421169  -0.062   0.573  10.798 -0.3847 -0.5412 -0.0529
  185SAPI   O1221170   0.106   0.459  10.952 -0.1984 -0.1459  0.3297
  185SAPI   O1121171   0.116   0.435  10.693  0.3662 -0.1706 -0.0958
  185SAPI    C121172   0.008   0.351  10.630 -0.0687  0.2962  0.0194
  185SAPI    HA21173  -0.029   0.275  10.703  0.0084  0.7167  0.5023
  185SAPI    HB21174  -0.073   0.415  10.590 -0.2901  1.1269  1.7034
  185SAPI    C221175   0.069   0.272  10.515 -0.1834 -0.2353  0.4899
  185SAPI    HS21176   0.149   0.212  10.562 -1.7990  0.0010  3.9314
  185SAPI   O2121177   0.116   0.359  10.404 -0.1305  0.3723 -0.1799
  185SAPI   C2121178   0.243   0.403  10.400  0.2787 -0.6385  0.3831
  185SAPI   O2221179   0.326   0.369  10.481  0.4473  0.4499 -0.7436
  185SAPI   C2221180   0.262   0.492  10.281 -0.5565 -0.4470 -0.2304
  185SAPI   H2R21181   0.232   0.587  10.330 -0.8277  1.0677 -3.1597
  185SAPI   H2S21182   0.372   0.497  10.269 -0.3515 -4.7851 -1.8604
  185SAPI    C321183  -0.034   0.174  10.456  0.8148  0.2180  0.6615
  185SAPI    HX21184  -0.118   0.241  10.428 -3.5864 -4.0569  2.2608
  185SAPI    HY21185  -0.089   0.109  10.527 -1.8892  0.2569 -1.2461
  185SAPI   O3121186   0.016   0.091  10.346  0.2816  0.8093 -0.3962
  185SAPI   C3121187   0.063  -0.028  10.384 -0.0600  0.5525 -0.7444
  185SAPI   O3221188   0.074  -0.061  10.499 -0.3390  0.3920 -0.3145
  185SAPI   C3221189   0.113  -0.115  10.267  0.3739 -0.5187  0.0537
  185SAPI   H2X21190   0.212  -0.080  10.230  1.5805 -1.8055  1.8575
  185SAPI   H2Y21191   0.036  -0.096  10.190 -0.1780 -0.9756  0.4800
  185SAPI   C2321192   0.182   0.460  10.152  0.4165  0.7541 -0.5237
  185SAPI   H3R21193   0.217   0.527  10.071 -0.7034  0.8094 -0.9809
  185SAPI   H3S21194   0.073   0.477  10.169  0.6137  1.0443  0.5296
  185SAPI   C2421195   0.222   0.311  10.111  0.7341  0.5992 -0.3426
  185SAPI   H4R21196   0.222   0.246  10.201 -1.5512  0.2612 -0.5331
  185SAPI   H4S21197   0.325   0.314  10.069  0.3755  3.3912 -1.2785
  185SAPI   C2521198   0.132   0.260  10.000  0.7080  0.0225 -0.0557
  185SAPI   H5R21199   0.024   0.257  10.022  0.3582 -1.7475 -1.6615
  185SAPI   C2621200   0.175   0.205   9.883 -0.2463 -0.6295 -0.3578
  185SAPI   H6R21201   0.099   0.159   9.819  0.0979 -1.4306 -0.2078
  185SAPI   C2721202   0.315   0.184   9.829  0.0122 -0.0365  0.1285
  185SAPI   H7R21203   0.382   0.267   9.859 -0.9219  0.5484  0.6270
  185SAPI   H7S21204   0.322   0.179   9.718 -1.3856 -2.8484  0.0575
  185SAPI   C2821205   0.378   0.060   9.876  0.2957  0.4283 -0.3180
  185SAPI   H8R21206   0.444   0.070   9.963  1.2265  3.2541 -1.2271
  185SAPI   C2921207   0.345  -0.063   9.827 -1.1180  0.8167 -0.3654
  185SAPI   H9R21208   0.412  -0.145   9.859  0.5656  1.7763 -1.2941
  185SAPI  C21021209   0.249  -0.112   9.721 -0.2229 -0.6756 -0.6146
  185SAPI  H10R21210   0.172  -0.034   9.701 -0.2529 -0.3717  0.6089
  185SAPI  H10S21211   0.198  -0.205   9.751  0.2996 -0.7730 -0.0015
  185SAPI  C21121212   0.334  -0.156   9.609 -0.7352  0.4720  0.3129
  185SAPI  H11R21213   0.414  -0.223   9.642 -0.5146  0.6016  0.0412
  185SAPI  C21221214   0.343  -0.112   9.484  0.7466  0.6632  0.0251
  185SAPI  H12R21215   0.423  -0.148   9.418  0.3916  1.3593 -0.8038
  185SAPI  C21321216   0.255  -0.007   9.420 -0.3674  0.5101  0.5636
  185SAPI  H13R21217   0.174   0.030   9.486 -1.5169  1.5829 -1.3627
  185SAPI  H13S21218   0.226  -0.045   9.320 -1.1833  1.0087  0.6082
  185SAPI  C21421219   0.347   0.119   9.408  0.5023  0.3715 -0.3387
  185SAPI  H14R21220   0.382   0.167   9.501 -0.4653 -3.2548  2.0968
  185SAPI  C21521221   0.378   0.178   9.290  0.1218  0.4615 -0.9064
  185SAPI  H15R21222   0.450   0.261   9.295 -0.1231  0.6269  0.3062
  185SAPI  C21621223   0.350   0.141   9.147  0.1173  0.8367 -0.2510
  185SAPI  H16R21224   0.328   0.034   9.124 -2.1753  1.6318 -2.1814
  185SAPI  H16S21225   0.441   0.155   9.085  0.8650 -0.7845  0.4072
  185SAPI  C21721226   0.236   0.225   9.085  0.5575 -0.1309  0.4136
  185SAPI  H17R21227   0.266   0.329   9.059  0.0526 -0.3698 -1.2893
  185SAPI  H17S21228   0.154   0.242   9.158 -1.0113  0.1888 -1.3442
  185SAPI  C21821229   0.160   0.166   8.966  0.3046 -0.6066 -1.2369
  185SAPI  H18R21230   0.101   0.247   8.919  0.8376 -0.3685 -1.5088
  185SAPI  H18S21231   0.089   0.091   9.006 -0.4007  0.9574  0.5749
  185SAPI  C21921232   0.241   0.090   8.857 -0.0978  0.6816 -0.2704
  185SAPI  H19R21233   0.163   0.044   8.793 -0.1801 -0.6033  0.7063
  185SAPI  H19S21234   0.302   0.007   8.900 -2.5180 -3.2946 -3.6921
  185SAPI  C22021235   0.325   0.180   8.766  0.8556  0.8655 -0.8369
  185SAPI  H20R21236   0.368   0.112   8.689 -1.5065 -2.2191  0.3741
  185SAPI  H20S21237   0.402   0.239   8.820 -0.3210  2.1413 -0.5093
  185SAPI  H20T21238   0.268   0.260   8.714 -1.4617 -1.2060 -1.6847
  185SAPI   C3321239   0.137  -0.264  10.292 -0.4310  0.8782  0.5198
  185SAPI   H3X21240   0.043  -0.320  10.313  0.2221 -1.7586 -2.7112
  185SAPI   H3Y21241   0.203  -0.273  10.380  0.2162  1.5812  0.1192
  185SAPI   C3421242   0.191  -0.345  10.169  0.0001 -0.3310 -0.0925
  185SAPI   H4X21243   0.263  -0.426  10.196  0.6456  0.3385  0.2435
  185SAPI   H4Y21244   0.261  -0.278  10.114 -0.1401 -0.9856 -1.0976
  185SAPI   C3521245   0.086  -0.405  10.070  0.2286 -0.6016  0.2588
  185SAPI   H5X21246   0.004  -0.330  10.060 -1.2304 -2.1201  0.3725
  185SAPI   H5Y21247   0.036  -0.493  10.116 -1.7940  0.7356  0.7629
  185SAPI   C3621248   0.150  -0.446   9.940  0.2827  0.1883  0.0029
  185SAPI   H6X21249   0.210  -0.540   9.948  0.0009 -0.1596 -1.6235
  185SAPI   H6Y21250   0.225  -0.372   9.907  1.0036  0.1192  1.4094
  185SAPI   C3721251   0.057  -0.462   9.822 -0.0552 -0.2375 -0.1594
  185SAPI   H7X21252   0.007  -0.366   9.797  2.0364  1.2537  0.9398
  185SAPI   H7Y21253  -0.023  -0.535   9.842  0.1865  0.3219  3.6002
  185SAPI   C3821254   0.125  -0.496   9.691 -0.3743  0.0246  0.1566
  185SAPI   H8X21255   0.179  -0.593   9.686  1.7201  1.2070 -1.9690
  185SAPI   H8Y21256   0.207  -0.423   9.671 -0.6229  0.0171 -0.9768
  185SAPI   C3921257   0.040  -0.488   9.566  0.0067 -0.1631  0.5243
  185SAPI   H9X21258   0.012  -0.381   9.559  1.2490  0.0651 -1.9398
  185SAPI   H9Y21259  -0.055  -0.543   9.586 -0.8722  0.9750 -0.3876
  185SAPI  C31021260   0.107  -0.518   9.432  0.2975 -0.2868 -0.0439
  185SAPI  H10X21261   0.160  -0.615   9.432 -1.0921 -1.0737  0.6022
  185SAPI  H10Y21262   0.181  -0.439   9.408 -1.3569  1.8234  1.3543
  185SAPI  C31121263   0.008  -0.515   9.314 -0.3632 -0.2919 -0.1071
  185SAPI  H11X21264  -0.063  -0.600   9.325 -1.4199  0.8172  2.3546
  185SAPI  H11Y21265   0.075  -0.538   9.229  0.1971  1.3051 -0.1340
  185SAPI  C31221266  -0.069  -0.392   9.281  0.3355 -0.5170 -0.8501
  185SAPI  H12X21267  -0.010  -0.298   9.284 -0.8829  0.3772 -2.7480
  185SAPI  H12Y21268  -0.152  -0.383   9.353  1.6727  0.3825  0.6275
  185SAPI  C31321269  -0.143  -0.404   9.148 -0.5363  0.4119 -0.1545
  185SAPI  H13X21270  -0.223  -0.480   9.167 -0.2282  0.4486  1.4084
  185SAPI  H13Y21271  -0.077  -0.426   9.061 -0.1461  1.3574 -0.0965
  185SAPI  C31421272  -0.211  -0.271   9.108 -0.2347 -0.0488 -0.8926
  185SAPI  H14X21273  -0.139  -0.187   9.097 -1.3523  0.7860 -2.0533
  185SAPI  H14Y21274  -0.284  -0.231   9.181 -0.0964 -0.7314 -0.3685
  185SAPI  C31521275  -0.276  -0.284   8.968 -0.1791  0.3568  1.1129
  185SAPI  H15X21276  -0.351  -0.366   8.978  0.4161 -0.7414 -2.3278
  185SAPI  H15Y21277  -0.198  -0.324   8.899  1.3419  1.1549  2.3051
  185SAPI  C31621278  -0.338  -0.153   8.916 -0.1925 -0.1419 -0.4800
  185SAPI  H16X21279  -0.328  -0.082   9.000  0.2389 -1.2964  0.4661
  185SAPI  H16Y21280  -0.446  -0.162   8.890 -0.3619  0.9265 -0.1986
  185SAPI  C31721281  -0.263  -0.104   8.797  0.7776  0.0672  0.2160
  185SAPI  H17X21282  -0.306  -0.008   8.759 -0.8347 -1.1381 -1.1705
  185SAPI  H17Y21283  -0.297  -0.166   8.712  1.7461  2.8679 -2.4089
  185SAPI  C31821284  -0.115  -0.079   8.819 -0.2332 -0.1681 -0.0454
  185SAPI  H18X21285  -0.092  -0.021   8.911  1.4597  0.6634 -0.9516
  185SAPI  H18Y21286  -0.083  -0.024   8.728  0.1621 -2.2784 -1.2388
  185SAPI  H18Z21287  -0.058  -0.173   8.831  0.2727  0.2581  1.0207
  186SAPI   C1221288   5.381   3.290  10.929 -0.3242 -0.8962 -0.3117
  186SAPI    H221289   5.458   3.346  10.871 -1.7853  0.5223 -0.9593
  186SAPI    O221290   5.436   3.175  10.994  0.5412  0.3310  0.2617
  186SAPI   HO221291   5.513   3.143  10.946 -0.6616 -0.1261 -1.4490
  186SAPI   C1321292   5.331   3.396  11.033 -0.5088 -0.0106  0.5133
  186SAPI    H321293   5.304   3.483  10.969  0.3409 -0.4462 -0.4731
  186SAPI    O321294   5.441   3.442  11.111 -0.1396 -0.1394  0.0689
  186SAPI   HO321295   5.462   3.378  11.180 -2.7690 -0.8099  0.3613
  186SAPI   C1421296   5.224   3.333  11.117 -0.5942 -0.2301 -1.2621
  186SAPI    H421297   5.271   3.254  11.180  0.6893  2.0567  0.8092
  186SAPI    O421298   5.178   3.419  11.217  0.1216 -1.4125 -0.3608
  186SAPI   HO421299   5.244   3.489  11.212  1.1738 -2.4387 -1.7404
  186SAPI   C1521300   5.111   3.278  11.038  0.7373  0.4418 -0.2830
  186SAPI    H521301   5.054   3.366  11.003 -2.1992 -0.3399  2.1628
  186SAPI    O521302   5.013   3.221  11.126  0.0611 -0.3903  0.4086
  186SAPI   HO521303   4.969   3.284  11.184 -0.3802  0.7052 -1.0541
  186SAPI   C1621304   5.160   3.197  10.924 -0.5072 -0.0710 -0.4032
  186SAPI    H621305   5.194   3.097  10.958 -0.7545 -0.7059 -1.9503
  186SAPI    O621306   5.055   3.161  10.829  0.3831  0.3291  0.1741
  186SAPI   HO621307   5.078   3.083  10.779 -0.6386 -0.0547  0.2703
  186SAPI   C1121308   5.261   3.259  10.845  0.3412 -0.3670  0.1517
  186SAPI    H121309   5.214   3.357  10.819 -1.3087 -0.1684  3.4521
  186SAPI     P21310   5.291   3.266  10.582 -0.3055 -0.5012  0.0261
  186SAPI   O1321311   5.149   3.302  10.551 -0.5468 -0.2558 -0.7078
  186SAPI   O1421312   5.365   3.187  10.485  0.0209 -0.4267  0.7421
  186SAPI   O1221313   5.302   3.193  10.724 -0.3934  0.1939 -0.9493
  186SAPI   O1121314   5.377   3.395  10.612 -0.5157 -0.3215  0.3821
  186SAPI    C121315   5.323   3.527  10.604  0.3611  0.0390  0.8621
  186SAPI    HA21316   5.217   3.526  10.639  0.0726 -1.8840  0.0389
  186SAPI    HB21317   5.382   3.596  10.669 -0.3188 -1.3316  3.0252
  186SAPI    C221318   5.319   3.569  10.454 -0.0547 -0.3741 -0.0843
  186SAPI    HS21319   5.228   3.520  10.414 -1.3423  0.9280  1.1160
  186SAPI   O2121320   5.437   3.526  10.394 -0.4902  0.8653 -0.0477
  186SAPI   C2121321   5.431   3.484  10.260  0.0344 -0.1325  0.6549
  186SAPI   O2221322   5.327   3.470  10.200  0.7863  0.2151  0.0243
  186SAPI   C2221323   5.578   3.448  10.222  0.5646 -0.0396 -0.1224
  186SAPI   H2R21324   5.645   3.517  10.275 -0.3627  1.4058 -0.7698
  186SAPI   H2S21325   5.589   3.342  10.254 -0.1496 -0.5525 -1.4422
  186SAPI    C321326   5.298   3.720  10.443  0.2589  0.4130 -0.5352
  186SAPI    HX21327   5.380   3.776  10.493  2.3666 -1.2016 -2.0097
  186SAPI    HY21328   5.203   3.750  10.492 -0.8770 -0.4030 -2.1396
  186SAPI   O3121329   5.294   3.765  10.305  0.0660  0.0766 -0.1376
  186SAPI   C3121330   5.179   3.761  10.245 -0.2129 -0.2187  0.7318
  186SAPI   O3221331   5.072   3.730  10.292  0.0902 -0.1449  0.0491
  186SAPI   C3221332   5.199   3.775  10.089 -0.5992 -0.8828 -0.2920
  186SAPI   H2X21333   5.248   3.680  10.059 -0.7151 -1.6134  1.6807
  186SAPI   H2Y21334   5.261   3.866  10.075 -0.5363 -0.9500 -0.4519
  186SAPI   C2321335   5.620   3.462  10.074  0.6832 -0.4823 -0.4531
  186SAPI   H3R21336   5.621   3.564  10.031  0.2534 -0.3224 -0.0910
  186SAPI   H3S21337   5.548   3.396  10.019  1.0195 -0.2889 -1.1383
  186SAPI   C2421338   5.760   3.412  10.039 -0.1155 -0.4095  0.5703
  186SAPI   H4R21339   5.828   3.471  10.103 -1.2891  2.3332 -0.5666
  186SAPI   H4S21340   5.799   3.460   9.947  0.8146  2.1190  2.1846
  186SAPI   C2521341   5.789   3.259  10.045  0.3604  0.1184 -0.1046
  186SAPI   H5R21342   5.793   3.223  10.149  2.4040  1.8320  0.4587
  186SAPI   C2621343   5.789   3.174   9.946  0.4319 -0.5281 -0.1334
  186SAPI   H6R21344   5.794   3.065   9.954  0.9536 -0.5525 -0.6677
  186SAPI   C2721345   5.765   3.235   9.814 -0.0557 -0.6113 -0.1474
  186SAPI   H7R21346   5.855   3.297   9.792 -1.2552  1.5017  0.6238
  186SAPI   H7S21347   5.683   3.307   9.832 -0.6770 -1.7821  2.1606
  186SAPI   C2821348   5.730   3.148   9.700 -1.0245  0.3108  0.4120
  186SAPI   H8R21349   5.676   3.055   9.725 -2.4404  1.3052  1.1723
  186SAPI   C2921350   5.765   3.161   9.573 -0.4100  0.2297 -0.1984
  186SAPI   H9R21351   5.750   3.082   9.498  1.1896  1.3219 -1.7405
  186SAPI  C21021352   5.856   3.271   9.517 -0.2276 -0.0831 -0.1778
  186SAPI  H10R21353   5.929   3.227   9.446  0.4212 -0.9480  1.0001
  186SAPI  H10S21354   5.906   3.318   9.604 -0.7609  2.0684 -0.9646
  186SAPI  C21121355   5.773   3.386   9.461 -0.4609  0.5091  0.2648
  186SAPI  H11R21356   5.755   3.471   9.528 -0.7870 -1.0905  2.3178
  186SAPI  C21221357   5.717   3.395   9.337  0.3631  0.6060  0.1471
  186SAPI  H12R21358   5.659   3.481   9.301 -1.2833  0.1000  1.4509
  186SAPI  C21321359   5.737   3.283   9.236  0.4130 -0.4275  0.1020
  186SAPI  H13R21360   5.782   3.185   9.262 -0.9395 -0.7667  1.2539
  186SAPI  H13S21361   5.817   3.326   9.172 -0.4420 -0.6444 -1.1251
  186SAPI  C21421362   5.613   3.265   9.153 -0.9871 -0.5591  0.0591
  186SAPI  H14R21363   5.571   3.362   9.122  2.6224  1.2218  0.2023
  186SAPI  C21521364   5.568   3.143   9.103  0.2136  0.2140 -0.4645
  186SAPI  H15R21365   5.475   3.147   9.045 -1.2446  1.3956  1.7859
  186SAPI  C21621366   5.636   3.006   9.123  0.4783  0.6276  0.2361
  186SAPI  H16R21367   5.578   2.950   9.200 -0.7006  0.7128 -0.5602
  186SAPI  H16S21368   5.737   3.015   9.167  1.0215  3.4899 -1.3429
  186SAPI  C21721369   5.622   2.915   9.005 -0.3344  0.7483 -0.0429
  186SAPI  H17R21370   5.701   2.841   8.979 -0.9621 -0.9517  2.5210
  186SAPI  H17S21371   5.639   2.969   8.909 -0.8420  1.2813  0.1658
  186SAPI  C21821372   5.477   2.855   8.979 -0.4607  0.4465  0.1441
  186SAPI  H18R21373   5.410   2.939   8.949 -1.8528 -0.2913  1.1220
  186SAPI  H18S21374   5.452   2.814   9.079 -3.0980  0.3105 -0.4932
  186SAPI  C21921375   5.477   2.751   8.869  0.6738 -0.1319  0.4795
  186SAPI  H19R21376   5.526   2.660   8.909  1.6024 -0.1147 -0.5600
  186SAPI  H19S21377   5.544   2.796   8.792  0.0363  0.0289  0.0069
  186SAPI  C22021378   5.344   2.714   8.806  0.0766 -0.0393 -0.2636
  186SAPI  H20R21379   5.360   2.638   8.727 -1.8432  0.6821 -1.4257
  186SAPI  H20S21380   5.293   2.794   8.749  0.5248 -0.9325 -1.9924
  186SAPI  H20T21381   5.274   2.678   8.884  1.6070 -0.3479  1.0282
  186SAPI   C3321382   5.067   3.795  10.021 -0.5105 -0.2933 -0.3583
  186SAPI   H3X21383   5.009   3.875  10.071 -0.8568  1.0426 -2.7513
  186SAPI   H3Y21384   5.000   3.707  10.026 -1.1520  0.2197  0.3550
  186SAPI   C3421385   5.084   3.827   9.875  1.5142 -0.1427 -0.4798
  186SAPI   H4X21386   5.124   3.747   9.808  2.8662  1.0488 -1.1429
  186SAPI   H4Y21387   5.171   3.896   9.873  2.0913 -0.8697 -0.9531
  186SAPI   C3521388   4.959   3.888   9.809  0.2479 -0.2836  0.7434
  186SAPI   H5X21389   4.918   3.953   9.890  0.1788  1.9344 -0.9975
  186SAPI   H5Y21390   4.895   3.798   9.794  0.2125  0.0169 -1.0043
  186SAPI   C3621391   4.979   3.968   9.681  0.2319  0.7023  0.0500
  186SAPI   H6X21392   5.047   4.055   9.693 -1.1904  2.0364 -1.2478
  186SAPI   H6Y21393   4.882   4.014   9.653  0.4256  1.9016  1.2180
  186SAPI   C3721394   5.026   3.885   9.558 -0.0346 -0.2382 -0.0280
  186SAPI   H7X21395   5.119   3.833   9.589  0.7973  1.3185  0.2468
  186SAPI   H7Y21396   5.053   3.970   9.491 -0.3044  0.5560  0.8366
  186SAPI   C3821397   4.927   3.783   9.500  0.1559 -0.7746 -0.2464
  186SAPI   H8X21398   4.829   3.805   9.546  0.4907  1.2801 -0.4385
  186SAPI   H8Y21399   4.948   3.679   9.533 -1.1439 -1.3718 -1.2180
  186SAPI   C3921400   4.912   3.787   9.348 -0.8596 -0.5825 -0.5535
  186SAPI   H9X21401   5.013   3.782   9.302  0.6210  1.6611  2.0963
  186SAPI   H9Y21402   4.868   3.884   9.318  0.1507  0.4408  1.0928
  186SAPI  C31021403   4.834   3.671   9.283  0.4319  0.0313  0.2614
  186SAPI  H10X21404   4.731   3.684   9.320  0.4620 -0.0416  0.3718
  186SAPI  H10Y21405   4.879   3.578   9.324  0.2950 -0.0677  0.1867
  186SAPI  C31121406   4.844   3.666   9.130  0.2673  0.4266  0.3520
  186SAPI  H11X21407   4.811   3.567   9.093 -1.5904  0.1138  2.5869
  186SAPI  H11Y21408   4.952   3.679   9.110  0.7899 -1.8294  1.4076
  186SAPI  C31221409   4.754   3.765   9.058 -0.8685  0.3163  0.0608
  186SAPI  H12X21410   4.759   3.862   9.112 -0.4011 -1.0811  2.7016
  186SAPI  H12Y21411   4.654   3.716   9.054 -0.8081  0.2751 -1.7337
  186SAPI  C31321412   4.797   3.771   8.907  0.3866 -0.5995  0.5685
  186SAPI  H13X21413   4.799   3.669   8.862 -1.4408 -0.9535  1.2047
  186SAPI  H13Y21414   4.900   3.812   8.900  1.8394 -3.9019  0.6907
  186SAPI  C31421415   4.697   3.863   8.829  0.0532  0.3834  0.5105
  186SAPI  H14X21416   4.690   3.962   8.881  0.4626  0.6899 -0.0098
  186SAPI  H14Y21417   4.593   3.825   8.839  0.8070 -2.1585 -0.6805
  186SAPI  C31521418   4.742   3.881   8.681  0.0501 -0.2275  0.0500
  186SAPI  H15X21419   4.759   3.777   8.648  1.3138 -0.1470  0.4159
  186SAPI  H15Y21420   4.841   3.926   8.658  0.2767 -1.5062 -1.6279
  186SAPI  C31621421   4.638   3.963   8.611 -0.4361  0.0760  0.3716
  186SAPI  H16X21422   4.610   4.053   8.670 -1.3487 -0.7861  1.2930
  186SAPI  H16Y21423   4.544   3.908   8.590 -0.7389  0.5408  0.4792
  186SAPI  C31721424   4.691   4.007   8.469  0.4402 -0.5256  0.1581
  186SAPI  H17X21425   4.714   3.909   8.423 -0.8614 -0.8140  0.0576
  186SAPI  H17Y21426   4.787   4.061   8.475  0.9408 -1.3700 -0.1621
  186SAPI  C31821427   4.594   4.090   8.387  0.1803  0.8150  0.0721
  186SAPI  H18X21428   4.580   4.192   8.430  0.8634 -0.2715  3.0305
  186SAPI  H18Y21429   4.490   4.053   8.382  0.0039  1.1215  1.2870
  186SAPI  H18Z21430   4.631   4.121   8.286 -1.1871  2.4339  0.0048
  187SAPI   C1221431   1.042   4.461   6.210 -0.1530  0.2411 -0.4094
  187SAPI    H221432   1.030   4.539   6.132 -0.9657  0.3757 -0.1622
  187SAPI    O221433   0.919   4.460   6.284 -0.5767  0.0266  0.1523
  187SAPI   HO221434   0.891   4.550   6.303 -0.1497  0.2332 -0.2056
  187SAPI   C1321435   1.085   4.334   6.145 -0.4659 -0.0857  0.0673
  187SAPI    H321436   1.183   4.358   6.098 -0.3757  1.4075  0.9516
  187SAPI    O321437   0.993   4.287   6.046  0.0604 -0.0383  0.2456
  187SAPI   HO321438   0.925   4.236   6.091  0.7253 -2.8511 -1.6942
  187SAPI   C1421439   1.100   4.218   6.246 -0.9277 -0.2935 -0.5897
  187SAPI    H421440   1.005   4.199   6.298  0.4662 -1.0821  1.8082
  187SAPI    O421441   1.139   4.089   6.185 -0.0456  0.4328 -0.1516
  187SAPI   HO421442   1.068   4.041   6.228  0.6661 -0.3578  0.1681
  187SAPI   C1521443   1.206   4.267   6.353  0.7818 -0.2046  0.6108
  187SAPI    H521444   1.304   4.272   6.301  0.4591  0.0515  0.0088
  187SAPI    O521445   1.221   4.157   6.451 -0.0140  0.5352  0.7769
  187SAPI   HO521446   1.150   4.168   6.515 -1.2264 -1.2591 -0.1802
  187SAPI   C1621447   1.168   4.404   6.416  0.3889 -0.1901 -0.4886
  187SAPI    H621448   1.075   4.393   6.476  1.7154 -1.5282  1.4701
  187SAPI    O621449   1.273   4.446   6.510  0.3630  0.7236 -0.1402
  187SAPI   HO621450   1.238   4.504   6.578 -0.1081 -1.8983  2.0345
  187SAPI   C1121451   1.146   4.506   6.307 -0.0825 -0.3770 -0.1327
  187SAPI    H121452   1.242   4.503   6.251 -0.0465  2.7249 -0.4198
  187SAPI     P21453   1.182   4.772   6.277  0.2365 -0.1945  0.0266
  187SAPI   O1321454   1.059   4.853   6.244  0.1344  0.0252  0.4765
  187SAPI   O1421455   1.262   4.734   6.163 -0.0343 -0.1537  0.0772
  187SAPI   O1221456   1.124   4.643   6.363  0.2558  0.1508  0.0520
  187SAPI   O1121457   1.287   4.848   6.362  0.4070 -0.1983  0.5921
  187SAPI    C121458   1.369   4.805   6.470  0.9845 -0.0497 -0.5303
  187SAPI    HA21459   1.376   4.695   6.484  0.0845 -0.0047  0.3783
  187SAPI    HB21460   1.471   4.845   6.454  1.2964 -0.0122  1.3094
  187SAPI    C221461   1.339   4.876   6.607 -0.1667 -0.3848  0.2285
  187SAPI    HS21462   1.414   4.841   6.680  2.3065  1.9623 -1.0136
  187SAPI   O2121463   1.197   4.851   6.647 -0.0619 -0.2178  0.4126
  187SAPI   C2121464   1.168   4.730   6.672 -0.2967 -0.0323  0.7658
  187SAPI   O2221465   1.249   4.642   6.690  0.2500  0.0431  0.2104
  187SAPI   C2221466   1.018   4.706   6.675  0.7221 -0.2284 -0.0578
  187SAPI   H2R21467   0.967   4.800   6.705 -1.1380 -1.2727  0.2307
  187SAPI   H2S21468   0.975   4.682   6.575  1.3533 -0.0397 -0.3836
  187SAPI    C321469   1.366   5.027   6.601  0.1726  0.7064  0.1255
  187SAPI    HX21470   1.320   5.072   6.510  1.2570  3.0812  0.6650
  187SAPI    HY21471   1.475   5.050   6.594 -0.1060  1.7456 -1.1655
  187SAPI   O3121472   1.321   5.082   6.727  0.3368 -0.0573 -0.1112
  187SAPI   C3121473   1.242   5.184   6.731 -0.4946 -0.2561 -0.3254
  187SAPI   O3221474   1.204   5.251   6.633  0.3903  0.4036 -0.0020
  187SAPI   C3221475   1.209   5.217   6.877  0.2028  0.6047  0.9386
  187SAPI   H2X21476   1.133   5.298   6.873  0.4422  0.7762 -1.5600
  187SAPI   H2Y21477   1.302   5.262   6.919 -0.2693  0.7953  1.8000
  187SAPI   C2321478   0.967   4.604   6.782  0.0462  0.1538 -0.4844
  187SAPI   H3R21479   1.002   4.504   6.749 -1.2068 -0.1057 -1.0766
  187SAPI   H3S21480   0.856   4.595   6.782 -0.0428  0.9857  0.7371
  187SAPI   C2421481   1.014   4.631   6.925 -0.5110 -0.5222 -0.4241
  187SAPI   H4R21482   1.122   4.608   6.937  0.0371  1.8790 -0.1811
  187SAPI   H4S21483   0.951   4.564   6.988 -1.9427  0.4765 -0.7504
  187SAPI   C2521484   0.985   4.769   6.985 -0.3481 -0.1337  0.9657
  187SAPI   H5R21485   0.965   4.844   6.906 -2.4361 -2.2577 -0.6816
  187SAPI   C2621486   0.961   4.796   7.115  1.2799 -0.1014  0.0538
  187SAPI   H6R21487   0.948   4.901   7.145  5.3849  1.0370 -1.3942
  187SAPI   C2721488   0.980   4.689   7.217 -0.2439 -0.0142 -0.9279
  187SAPI   H7R21489   1.048   4.728   7.295  1.3454 -2.0874 -1.1991
  187SAPI   H7S21490   1.033   4.596   7.187 -0.6552 -0.4015 -0.4758
  187SAPI   C2821491   0.847   4.640   7.273 -0.3726  0.5486  0.8451
  187SAPI   H8R21492   0.779   4.592   7.201  0.4273 -1.3015  1.2738
  187SAPI   C2921493   0.795   4.650   7.393 -0.7502  0.6699 -0.4735
  187SAPI   H9R21494   0.693   4.614   7.413 -1.9416  2.8355 -2.2650
  187SAPI  C21021495   0.871   4.722   7.502 -0.2717 -0.2483  0.5386
  187SAPI  H10R21496   0.894   4.824   7.466  0.2944 -0.8629 -0.9088
  187SAPI  H10S21497   0.971   4.673   7.505 -0.7761 -1.2786  1.1658
  187SAPI  C21121498   0.804   4.699   7.635 -0.1393  0.3341  0.2793
  187SAPI  H11R21499   0.740   4.610   7.629 -0.3747  0.5712 -0.8931
  187SAPI  C21221500   0.797   4.771   7.748 -0.4578  0.0358 -0.3049
  187SAPI  H12R21501   0.741   4.740   7.838  1.5220  0.4617  1.1451
  187SAPI  C21321502   0.876   4.899   7.764  1.1424 -0.2063  0.2202
  187SAPI  H13R21503   0.808   4.987   7.756  3.5897  1.7814 -0.0193
  187SAPI  H13S21504   0.964   4.902   7.696  0.4397 -0.6859 -0.7312
  187SAPI  C21421505   0.938   4.897   7.902  0.0739  0.3842 -0.1507
  187SAPI  H14R21506   1.034   4.844   7.912  0.9113  1.7280 -0.7613
  187SAPI  C21521507   0.885   4.943   8.016  0.8258 -0.3959  0.0630
  187SAPI  H15R21508   0.943   4.947   8.109  0.3461 -1.1601  0.4084
  187SAPI  C21621509   0.761   5.019   8.033  0.2607 -0.1822  0.3707
  187SAPI  H16R21510   0.721   5.001   8.135  2.3305  0.6469  1.3937
  187SAPI  H16S21511   0.678   4.984   7.968  1.4390 -3.5383  0.5041
  187SAPI  C21721512   0.781   5.175   8.027  0.0675  0.1235  0.0223
  187SAPI  H17R21513   0.676   5.213   8.019  0.1513  0.5347  0.7914
  187SAPI  H17S21514   0.824   5.207   7.930  0.9436  1.0732  0.7083
  187SAPI  C21821515   0.855   5.236   8.145  0.1752 -0.7694  0.2226
  187SAPI  H18R21516   0.858   5.346   8.133  3.2126 -0.7997 -0.1683
  187SAPI  H18S21517   0.960   5.203   8.129 -0.3448 -0.7402 -4.2814
  187SAPI  C21921518   0.792   5.201   8.279  0.2971  0.1952 -0.0705
  187SAPI  H19R21519   0.828   5.097   8.296  0.4956  0.4708  1.3386
  187SAPI  H19S21520   0.682   5.194   8.282  0.2370 -0.5306 -2.2891
  187SAPI  C22021521   0.840   5.273   8.404 -0.7969  0.0768 -0.4642
  187SAPI  H20R21522   0.945   5.246   8.429 -1.8629 -2.3555  1.7582
  187SAPI  H20S21523   0.781   5.229   8.487  1.2577  0.6747  1.4150
  187SAPI  H20T21524   0.835   5.384   8.401  0.8948  0.1953 -0.1044
  187SAPI   C3321525   1.184   5.099   6.977 -0.8583  0.1308  0.3240
  187SAPI   H3X21526   1.269   5.027   6.972 -1.4968 -0.6601  0.5629
  187SAPI   H3Y21527   1.101   5.041   6.931 -0.8265  2.3504 -2.8835
  187SAPI   C3421528   1.160   5.144   7.122  1.0182  0.1396 -0.2074
  187SAPI   H4X21529   1.256   5.179   7.166 -0.5774  1.4400  2.4285
  187SAPI   H4Y21530   1.134   5.048   7.171  0.4447 -0.7760 -2.1881
  187SAPI   C3521531   1.043   5.243   7.131 -0.3740 -0.0772  0.1941
  187SAPI   H5X21532   0.976   5.228   7.043  1.7996  0.8511 -1.7469
  187SAPI   H5Y21533   1.075   5.349   7.119 -1.2528  0.2750  0.8021
  187SAPI   C3621534   0.965   5.224   7.256  0.3257 -0.2639 -0.4509
  187SAPI   H6X21535   0.913   5.126   7.246 -1.2180  0.7364 -3.8084
  187SAPI   H6Y21536   0.889   5.305   7.254  0.8723  0.2532 -0.6242
  187SAPI   C3721537   1.055   5.218   7.386  0.5190  0.0606 -0.0607
  187SAPI   H7X21538   1.103   5.318   7.386  0.3403  0.1494  0.2464
  187SAPI   H7Y21539   1.126   5.133   7.390 -1.0813 -1.2838  1.9206
  187SAPI   C3821540   0.980   5.216   7.516  0.2461 -0.0160 -0.5695
  187SAPI   H8X21541   0.886   5.158   7.522 -1.0392  2.0292  0.2010
  187SAPI   H8Y21542   0.942   5.321   7.521 -2.5905 -0.9415 -1.0730
  187SAPI   C3921543   1.069   5.195   7.639  0.3775 -0.1137  0.1481
  187SAPI   H9X21544   1.159   5.133   7.622  2.0557  2.0720  0.6685
  187SAPI   H9Y21545   1.010   5.156   7.726 -1.5136 -1.1174 -1.4941
  187SAPI  C31021546   1.124   5.339   7.683 -0.1053 -0.0057  0.2442
  187SAPI  H10X21547   1.030   5.396   7.702  1.1095  2.4384 -0.6845
  187SAPI  H10Y21548   1.196   5.379   7.608  0.1580 -1.7041 -0.4483
  187SAPI  C31121549   1.199   5.342   7.820  0.2169 -0.5387 -0.0891
  187SAPI  H11X21550   1.299   5.297   7.801 -0.1301 -0.9236 -1.0678
  187SAPI  H11Y21551   1.136   5.293   7.897  0.0061 -1.6610 -0.9485
  187SAPI  C31221552   1.223   5.495   7.858  0.0693  0.6275 -0.1758
  187SAPI  H12X21553   1.124   5.545   7.866  0.1872  0.7793  0.4500
  187SAPI  H12Y21554   1.280   5.534   7.771 -1.5694  0.5032 -1.3425
  187SAPI  C31321555   1.315   5.513   7.982  0.1814  0.3834 -0.6286
  187SAPI  H13X21556   1.314   5.623   7.997 -1.1462  0.1795  1.0532
  187SAPI  H13Y21557   1.417   5.477   7.957 -0.2989 -0.7836 -0.9696
  187SAPI  C31421558   1.241   5.455   8.106  0.2594  0.1717 -0.2002
  187SAPI  H14X21559   1.236   5.344   8.114 -1.1524  0.2603  0.2806
  187SAPI  H14Y21560   1.134   5.483   8.098  0.3985  0.6644 -0.3278
  187SAPI  C31521561   1.318   5.494   8.231  0.9016 -0.0370 -0.1435
  187SAPI  H15X21562   1.307   5.605   8.238  0.0594 -0.0413 -1.0339
  187SAPI  H15Y21563   1.421   5.454   8.233 -0.0387 -2.6223  0.1059
  187SAPI  C31621564   1.251   5.434   8.355 -0.0176 -0.4375 -0.1322
  187SAPI  H16X21565   1.234   5.324   8.353  0.3806 -0.5455 -3.4183
  187SAPI  H16Y21566   1.146   5.468   8.361  0.1710  0.8235 -2.5850
  187SAPI  C31721567   1.322   5.457   8.488 -0.1307 -0.1342 -0.4008
  187SAPI  H17X21568   1.308   5.563   8.516 -1.6743 -0.5697  0.5942
  187SAPI  H17Y21569   1.430   5.429   8.490 -0.6047 -2.0682  0.3982
  187SAPI  C31821570   1.266   5.377   8.601  0.2526 -0.5444  0.4416
  187SAPI  H18X21571   1.156   5.385   8.588  0.1569  0.5608  1.7665
  187SAPI  H18Y21572   1.285   5.432   8.695  1.6341 -0.7916  0.3226
  187SAPI  H18Z21573   1.296   5.270   8.603 -1.6362 -1.2282 -1.9439
  188SAPI   C1221574   4.363   2.600   6.156 -0.2901 -0.3945  0.9244
  188SAPI    H221575   4.412   2.513   6.204  0.6577  0.1083  0.8869
  188SAPI    O221576   4.460   2.656   6.060 -0.2925  0.4096  0.0127
  188SAPI   HO221577   4.522   2.586   6.038 -0.2081  0.5366 -0.1557
  188SAPI   C1321578   4.238   2.550   6.091 -1.2855  0.4427  0.3406
  188SAPI    H321579   4.181   2.482   6.158 -3.1559  0.3101 -1.3007
  188SAPI    O321580   4.270   2.476   5.976 -0.2536 -0.0834 -0.1471
  188SAPI   HO321581   4.316   2.394   5.994  0.2741 -0.3984 -2.5204
  188SAPI   C1421582   4.147   2.665   6.054  0.3972  0.6111  0.1208
  188SAPI    H421583   4.187   2.717   5.965  0.2119  1.2565  0.4107
  188SAPI    O421584   4.015   2.612   6.022 -0.5313  0.5303 -0.0492
  188SAPI   HO421585   3.978   2.644   5.940 -1.2193  0.1040  0.0836
  188SAPI   C1521586   4.136   2.773   6.154  0.7407 -0.2695 -0.0261
  188SAPI    H521587   4.077   2.728   6.237  1.8317  0.2138  1.0504
  188SAPI    O521588   4.058   2.885   6.107  0.1762 -0.4340  0.8458
  188SAPI   HO521589   3.989   2.904   6.170  0.5968 -1.5398  1.6742
  188SAPI   C1621590   4.268   2.826   6.210 -0.0527  0.4015  0.0810
  188SAPI    H621591   4.330   2.866   6.128  1.2105  0.7359  1.1776
  188SAPI    O621592   4.256   2.920   6.311  0.5246  0.4081 -0.4500
  188SAPI   HO621593   4.294   2.997   6.268 -0.9951  0.8582 -1.0496
  188SAPI   C1121594   4.343   2.704   6.264  0.4096  0.7228  0.2280
  188SAPI    H121595   4.271   2.665   6.339 -1.0831 -0.5182 -1.7540
  188SAPI     P21596   4.532   2.647   6.446  0.7388  0.4464  0.1744
  188SAPI   O1321597   4.676   2.677   6.464 -0.4400  0.0216 -0.1327
  188SAPI   O1421598   4.497   2.501   6.424  0.1727 -0.3455 -0.2783
  188SAPI   O1221599   4.466   2.745   6.329 -0.8336  0.5972 -0.0606
  188SAPI   O1121600   4.448   2.688   6.569 -0.0453 -0.2143 -0.5994
  188SAPI    C121601   4.502   2.751   6.684  0.0445 -0.3262  0.3367
  188SAPI    HA21602   4.597   2.808   6.677 -0.7371  1.5065  3.0766
  188SAPI    HB21603   4.438   2.833   6.723  0.1889  1.3007 -2.5707
  188SAPI    C221604   4.510   2.648   6.797  0.7347 -0.0513 -0.1982
  188SAPI    HS21605   4.550   2.690   6.892  1.2088 -1.1922  0.1246
  188SAPI   O2121606   4.592   2.534   6.764  0.0028 -0.3975  0.1028
  188SAPI   C2121607   4.718   2.570   6.770 -0.6691  0.2659  0.2091
  188SAPI   O2221608   4.757   2.678   6.806  0.2768  0.5583  0.0245
  188SAPI   C2221609   4.806   2.462   6.701 -0.5313 -0.1694 -0.2731
  188SAPI   H2R21610   4.774   2.447   6.596 -1.5423  1.1346 -0.1893
  188SAPI   H2S21611   4.910   2.500   6.702 -2.0258  4.6053  0.0558
  188SAPI    C321612   4.371   2.589   6.840  0.1513  0.4041  0.0885
  188SAPI    HX21613   4.383   2.513   6.920  0.1088  0.4115  0.1023
  188SAPI    HY21614   4.334   2.537   6.749  1.6765  0.7440 -0.7643
  188SAPI   O3121615   4.277   2.694   6.873 -0.0143 -0.1245 -0.3389
  188SAPI   C3121616   4.145   2.663   6.850 -0.2765  0.3293  0.8279
  188SAPI   O3221617   4.103   2.560   6.802 -0.3758  0.3096  0.3730
  188SAPI   C3221618   4.056   2.779   6.892 -0.5700  0.4677  1.4818
  188SAPI   H2X21619   3.958   2.776   6.840 -0.6168  3.3188  1.2503
  188SAPI   H2Y21620   4.106   2.871   6.857  1.3475 -0.8310  0.6454
  188SAPI   C2321621   4.805   2.324   6.775 -0.6320  0.5674 -0.2931
  188SAPI   H3R21622   4.865   2.257   6.709 -0.8227  1.8117 -1.7816
  188SAPI   H3S21623   4.701   2.286   6.780  0.5848 -3.2281 -0.3126
  188SAPI   C2421624   4.884   2.309   6.905  0.2813 -0.6107  0.2031
  188SAPI   H4R21625   4.862   2.205   6.936 -1.3380  0.2987  2.3290
  188SAPI   H4S21626   4.841   2.381   6.978 -0.4893 -0.3549 -0.4851
  188SAPI   C2521627   5.037   2.324   6.903  0.6055 -0.6233  0.0880
  188SAPI   H5R21628   5.083   2.284   6.812 -1.6051  0.3387 -1.5508
  188SAPI   C2621629   5.106   2.379   7.002 -0.2305  0.6148 -0.1141
  188SAPI   H6R21630   5.213   2.396   6.982  0.0397  0.6786  1.2542
  188SAPI   C2721631   5.055   2.432   7.137 -0.1320 -0.1915 -0.0951
  188SAPI   H7R21632   5.120   2.400   7.221 -0.8227  1.1708  1.0029
  188SAPI   H7S21633   4.967   2.375   7.176  0.0429  0.5442  1.4597
  188SAPI   C2821634   5.005   2.575   7.139  0.2904 -0.6202  0.1145
  188SAPI   H8R21635   4.978   2.616   7.040  0.5220 -4.3333 -1.6536
  188SAPI   C2921636   5.008   2.654   7.250 -0.1318  0.6540 -0.1493
  188SAPI   H9R21637   4.969   2.757   7.248 -0.2706  0.7241  2.5392
  188SAPI  C21021638   5.059   2.615   7.389 -0.3349  0.6160  1.1550
  188SAPI  H10R21639   5.153   2.557   7.374  0.2311  1.0088  2.8641
  188SAPI  H10S21640   4.997   2.546   7.450 -0.4621  1.7580  2.3770
  188SAPI  C21121641   5.094   2.728   7.485  0.4391  0.0842 -0.6318
  188SAPI  H11R21642   5.080   2.825   7.436 -0.5987  0.9271  1.2508
  188SAPI  C21221643   5.136   2.726   7.615  0.1468 -0.9451 -0.7180
  188SAPI  H12R21644   5.148   2.818   7.674  0.7135 -1.8261  0.6133
  188SAPI  C21321645   5.152   2.605   7.705 -0.0492  0.6829 -0.3805
  188SAPI  H13R21646   5.232   2.626   7.779  0.4234  1.2076 -1.0206
  188SAPI  H13S21647   5.178   2.518   7.641 -1.0789 -0.4404  0.6829
  188SAPI  C21421648   5.025   2.567   7.770 -0.1687  0.3291 -0.0190
  188SAPI  H14R21649   4.975   2.490   7.708  2.0588  1.0688 -2.9394
  188SAPI  C21521650   4.971   2.612   7.879 -0.0135 -0.3295 -0.1735
  188SAPI  H15R21651   4.877   2.563   7.907 -0.2740 -0.4078 -1.1304
  188SAPI  C21621652   5.014   2.725   7.971  0.5948  0.5354  0.5143
  188SAPI  H16R21653   4.921   2.781   7.994 -0.5228 -1.1086  0.1919
  188SAPI  H16S21654   5.069   2.799   7.908  1.0155 -0.3436 -0.1754
  188SAPI  C21721655   5.084   2.678   8.095  0.4528  0.3132 -0.7424
  188SAPI  H17R21656   5.161   2.750   8.131  4.8296 -3.8206 -0.7611
  188SAPI  H17S21657   5.137   2.582   8.077  1.4475  0.9600 -1.3498
  188SAPI  C21821658   4.981   2.672   8.205  0.0099 -0.1628 -0.2581
  188SAPI  H18R21659   4.905   2.605   8.160  1.2888 -1.1481 -1.0435
  188SAPI  H18S21660   4.931   2.770   8.222  1.5822  0.4332  1.2051
  188SAPI  C21921661   5.047   2.645   8.340 -0.0057 -0.0023  0.2488
  188SAPI  H19R21662   5.115   2.725   8.375 -2.3816  0.5863  4.0103
  188SAPI  H19S21663   5.104   2.552   8.316 -2.8941 -1.8627  0.0925
  188SAPI  C22021664   4.938   2.613   8.441  0.0417 -0.6929 -0.6581
  188SAPI  H20R21665   4.871   2.534   8.402 -1.3957 -0.6658  1.6183
  188SAPI  H20S21666   4.873   2.701   8.455 -0.5817 -1.4189  1.3090
  188SAPI  H20T21667   4.978   2.593   8.543 -0.7272  1.2367  0.0649
  188SAPI   C3321668   4.035   2.792   7.045 -0.0203 -0.0784  0.0541
  188SAPI   H3X21669   3.993   2.697   7.087  2.3893 -0.9244  0.6974
  188SAPI   H3Y21670   3.972   2.882   7.057 -1.1307 -0.6494 -1.1903
  188SAPI   C3421671   4.155   2.829   7.136 -0.3189  0.9148 -0.3605
  188SAPI   H4X21672   4.227   2.894   7.081  2.3745 -2.7747 -1.6003
  188SAPI   H4Y21673   4.218   2.741   7.162  0.1590  1.3042 -0.1972
  188SAPI   C3521674   4.099   2.900   7.260 -0.0807 -0.2078  0.4962
  188SAPI   H5X21675   4.178   2.893   7.337  1.4887 -0.5360 -1.0644
  188SAPI   H5Y21676   4.015   2.842   7.305  0.5122 -0.4835  1.2716
  188SAPI   C3621677   4.081   3.061   7.240  0.4986  0.0583 -0.3181
  188SAPI   H6X21678   3.992   3.076   7.174 -1.8707 -1.2594  2.3571
  188SAPI   H6Y21679   4.165   3.104   7.182  0.0498 -1.0943 -1.9062
  188SAPI   C3721680   4.067   3.138   7.363 -0.1831  0.0021 -0.5640
  188SAPI   H7X21681   4.167   3.139   7.409 -0.8295  0.4979  0.8830
  188SAPI   H7Y21682   3.992   3.101   7.436  1.9801  1.1811  2.4450
  188SAPI   C3821683   4.033   3.291   7.336  0.1553 -0.0233 -0.2345
  188SAPI   H8X21684   3.939   3.311   7.279  0.3174  0.2734 -0.4015
  188SAPI   H8Y21685   4.114   3.331   7.271  0.5327 -0.5238 -0.0841
  188SAPI   C3921686   4.044   3.368   7.463 -0.0501 -0.0172  0.5198
  188SAPI   H9X21687   4.151   3.378   7.488 -0.0054  1.4328 -0.1554
  188SAPI   H9Y21688   3.997   3.317   7.550 -1.5220  1.7301  0.8176
  188SAPI  C31021689   4.003   3.517   7.467 -0.0953  0.3226  0.1984
  188SAPI  H10X21690   3.900   3.523   7.424  0.2439 -0.0333 -0.6789
  188SAPI  H10Y21691   4.072   3.582   7.409 -0.0770  1.2156  1.1955
  188SAPI  C31121692   3.978   3.589   7.601 -0.5151 -0.2403  0.5955
  188SAPI  H11X21693   3.947   3.693   7.574 -2.6702 -0.7650  0.8853
  188SAPI  H11Y21694   4.079   3.590   7.647 -1.0735  1.7703  1.9300
  188SAPI  C31221695   3.872   3.539   7.685 -0.0618  0.6179 -0.3793
  188SAPI  H12X21696   3.899   3.437   7.720 -1.8922  0.2006 -0.0548
  188SAPI  H12Y21697   3.780   3.542   7.622 -0.4416  0.4041  0.1530
  188SAPI  C31321698   3.852   3.640   7.804 -0.1067  0.0694  0.2199
  188SAPI  H13X21699   3.747   3.637   7.840  0.4202 -0.1950  1.8429
  188SAPI  H13Y21700   3.879   3.739   7.763  0.4585  0.1140  0.6754
  188SAPI  C31421701   3.947   3.619   7.922 -0.0155 -0.0357 -0.4399
  188SAPI  H14X21702   3.926   3.703   7.990 -2.0266  0.5152 -1.6471
  188SAPI  H14Y21703   4.054   3.637   7.897  0.0923 -1.4657 -1.1575
  188SAPI  C31521704   3.955   3.482   7.991 -0.3013  0.2458  0.0196
  188SAPI  H15X21705   3.989   3.404   7.920  2.1008 -0.2407  1.5710
  188SAPI  H15Y21706   3.849   3.460   8.018 -0.5592 -1.9648 -2.4461
  188SAPI  C31621707   4.063   3.489   8.105  1.0139  0.5774  0.1166
  188SAPI  H16X21708   4.163   3.503   8.060  1.5127  2.3636  1.6886
  188SAPI  H16Y21709   4.061   3.381   8.134 -0.4189 -0.0150 -1.9102
  188SAPI  C31721710   4.044   3.581   8.222 -0.1659  1.0305 -0.1666
  188SAPI  H17X21711   4.054   3.686   8.187  0.7472  1.1405  0.3919
  188SAPI  H17Y21712   4.123   3.568   8.300 -1.4449  1.3709  1.2295
  188SAPI  C31821713   3.901   3.562   8.277  0.2185  0.3918 -0.2183
  188SAPI  H18X21714   3.877   3.454   8.284  1.9970  0.0203  0.6954
  188SAPI  H18Y21715   3.823   3.611   8.215  1.9457 -0.0979 -2.9591
  188SAPI  H18Z21716   3.888   3.606   8.379  1.0529 -0.1189  0.1251
  189POPC     N21717   3.388   3.128  11.118  0.3735  0.4366  0.4493
  189POPC   C1221718   3.497   3.220  11.075  0.2610  0.2596 -0.2612
  189POPC  H12A21719   3.590   3.168  11.092 -0.4596 -1.0017 -0.0581
  189POPC  H12B21720   3.497   3.314  11.127  1.3925  0.7240 -1.0701
  189POPC   C1321721   3.415   2.985  11.060 -0.0859  0.3605  0.7122
  189POPC  H13A21722   3.506   2.938  11.096  1.0962  1.8723 -0.1614
  189POPC  H13B21723   3.333   2.918  11.077  2.0928 -2.4593  0.9264
  189POPC  H13C21724   3.430   3.000  10.954  0.9850  0.3627  0.8453
  189POPC   C1421725   3.398   3.097  11.265 -0.6202 -0.2702  0.4587
  189POPC  H14A21726   3.312   3.041  11.297 -0.5678  0.0345  1.1715
  189POPC  H14B21727   3.486   3.041  11.295 -0.6988  0.0616  1.3563
  189POPC  H14C21728   3.386   3.191  11.318 -4.0097  0.0492 -0.6288
  189POPC   C1521729   3.257   3.175  11.087  0.0884 -0.7090  0.3304
  189POPC  H15A21730   3.180   3.103  11.112 -0.6464 -0.4976 -1.1793
  189POPC  H15B21731   3.239   3.193  10.982  1.1696 -1.6925 -0.0517
  189POPC  H15C21732   3.236   3.265  11.142 -0.9486 -2.0605  2.2820
  189POPC   C1121733   3.488   3.258  10.921 -0.3173  0.6720 -0.3256
  189POPC  H11A21734   3.561   3.341  10.909  1.6692 -1.1013 -1.0325
  189POPC  H11B21735   3.385   3.294  10.898 -0.3982 -0.2833 -1.5396
  189POPC     P21736   3.678   3.123  10.809 -0.4822  0.3442 -0.2248
  189POPC   O1321737   3.736   3.067  10.933  0.2906 -0.4821 -0.3318
  189POPC   O1421738   3.739   3.248  10.762 -0.2572 -0.1749 -0.0554
  189POPC   O1221739   3.525   3.148  10.838 -0.3909 -0.0582 -0.0944
  189POPC   O1121740   3.674   3.012  10.700 -0.3150  0.6455 -0.2471
  189POPC    C121741   3.683   3.053  10.562  0.2330 -0.4290  0.5238
  189POPC    HA21742   3.752   2.985  10.507  1.7759  1.8806 -0.5533
  189POPC    HB21743   3.731   3.152  10.549  1.3805 -0.9910  0.3525
  189POPC    C221744   3.549   3.057  10.488  0.8752 -0.1842 -0.4518
  189POPC    HS21745   3.476   3.086  10.567  0.7467 -0.2757 -0.5338
  189POPC   O2121746   3.520   2.922  10.445  0.0354  0.1271  1.1886
  189POPC   C2121747   3.397   2.904  10.406  0.0175 -0.3634 -0.2232
  189POPC   O2221748   3.312   2.990  10.423  0.4256  0.2532 -0.9037
  189POPC   C2221749   3.369   2.763  10.346 -0.3214  0.2532  0.3390
  189POPC   H2R21750   3.259   2.757  10.336 -0.1533  0.2956 -2.2273
  189POPC   H2S21751   3.411   2.684  10.412  0.5112  1.0071  0.7318
  189POPC    C321752   3.547   3.169  10.381  0.7199 -0.1743 -0.7418
  189POPC    HX21753   3.557   3.261  10.442 -1.3213 -0.2110 -0.2976
  189POPC    HY21754   3.448   3.181  10.333  0.6204  1.9091 -0.1157
  189POPC   O3121755   3.664   3.160  10.294  0.0766  0.2745  0.2545
  189POPC   C3121756   3.643   3.113  10.168 -0.0261  0.1526 -1.4710
  189POPC   O3221757   3.540   3.082  10.120  0.0571  0.0072 -0.8582
  189POPC   C3221758   3.772   3.115  10.081 -0.4834 -0.1446  0.7402
  189POPC   H2X21759   3.835   3.028  10.105  0.4519  0.6591  1.2665
  189POPC   H2Y21760   3.840   3.195  10.118 -0.2225  0.5519 -1.1603
  189POPC   C2321761   3.413   2.748  10.203  0.1489 -0.1054 -0.0972
  189POPC   H3R21762   3.365   2.825  10.138  0.8765 -0.6859 -1.3669
  189POPC   H3S21763   3.372   2.651  10.169  1.3896 -1.1034  1.1220
  189POPC   C2421764   3.561   2.735  10.190 -0.2154  0.2043 -0.0463
  189POPC   H4R21765   3.595   2.678  10.279  0.8209 -0.6603 -0.9676
  189POPC   H4S21766   3.614   2.832  10.197 -1.5231  0.8345  2.1450
  189POPC   C2521767   3.605   2.652  10.073 -0.6994 -0.5451 -0.3705
  189POPC   H5R21768   3.576   2.545  10.068  1.7452 -1.2264 -2.0777
  189POPC   H5S21769   3.716   2.661  10.063 -0.8870  1.4746 -1.2074
  189POPC   C2621770   3.556   2.716   9.945  0.3397  0.6420  1.0679
  189POPC   H6R21771   3.561   2.827   9.943  0.9826  0.6021 -0.3628
  189POPC   H6S21772   3.445   2.712   9.946  0.3819 -0.9438  1.8177
  189POPC   C2721773   3.616   2.647   9.815  0.2877 -0.4140  0.2490
  189POPC   H7R21774   3.596   2.537   9.820  0.9339 -0.5312  0.2883
  189POPC   H7S21775   3.726   2.653   9.819  0.2421 -0.3611  1.9550
  189POPC   C2821776   3.559   2.717   9.689  0.5779  0.6170 -0.5103
  189POPC   H8R21777   3.614   2.813   9.692 -0.0676  1.0089 -1.0431
  189POPC   H8S21778   3.454   2.739   9.720 -0.0577 -0.8807 -1.4830
  189POPC   C2921779   3.576   2.648   9.559  0.1541 -0.9414  0.2860
  189POPC   H9121780   3.543   2.543   9.565 -0.8760 -0.6018  0.8614
  189POPC  C21021781   3.633   2.700   9.449 -0.3691  0.4192 -0.7699
  189POPC  H10121782   3.613   2.635   9.362 -1.6478 -1.1039  0.5719
  189POPC  C21121783   3.695   2.831   9.421  0.5936 -0.3753  0.1692
  189POPC  H11R21784   3.802   2.814   9.396  0.0082 -3.0887 -0.8666
  189POPC  H11S21785   3.690   2.896   9.511  0.0309 -0.4921  0.2237
  189POPC  C21221786   3.625   2.901   9.300  0.4075  0.7241 -0.1940
  189POPC  H12R21787   3.529   2.933   9.345  0.3533 -1.1554  1.1528
  189POPC  H12S21788   3.600   2.838   9.212  0.9045 -1.8026  1.3772
  189POPC  C21321789   3.692   3.032   9.257  0.2038  0.1650  0.1031
  189POPC  H13R21790   3.689   3.114   9.332  3.7859  1.3367 -0.8733
  189POPC  H13S21791   3.623   3.077   9.182 -1.8897 -0.3529  1.6100
  189POPC  C21421792   3.833   3.015   9.200 -0.6658 -0.0386 -0.9713
  189POPC  H14R21793   3.898   2.939   9.248  0.1584  0.6507 -0.9755
  189POPC  H14S21794   3.878   3.113   9.228 -1.9227 -0.0669  1.4425
  189POPC  C21521795   3.837   3.010   9.049  0.1215  0.6369 -0.2591
  189POPC  H15R21796   3.796   3.103   9.004  2.7190  1.5812 -0.8677
  189POPC  H15S21797   3.788   2.917   9.014  0.6841  0.9157 -1.8700
  189POPC  C21621798   3.980   3.000   8.996 -0.2902 -0.6290 -0.6191
  189POPC  H16R21799   4.021   2.904   9.036 -1.9508 -1.5121 -0.9632
  189POPC  H16S21800   4.043   3.080   9.041 -1.1172 -0.9628  1.1959
  189POPC  C21721801   3.982   3.000   8.845  0.1026 -0.2764 -0.1195
  189POPC  H17R21802   3.928   3.088   8.806 -1.1973 -0.6161  0.8571
  189POPC  H17S21803   3.917   2.917   8.809 -0.9910  0.9002 -0.9182
  189POPC  C21821804   4.123   2.998   8.787 -0.9297  1.0221  0.0841
  189POPC  H18R21805   4.184   3.086   8.815  1.4317  0.0485 -1.7374
  189POPC  H18S21806   4.136   2.981   8.678 -0.3784 -2.2607  0.5441
  189POPC  H18T21807   4.194   2.932   8.841 -1.1463  0.7326  0.0174
  189POPC   C3321808   3.751   3.124   9.922  0.3176 -0.8356  0.6188
  189POPC   H3X21809   3.690   3.215   9.904 -0.4979 -1.4337  0.2904
  189POPC   H3Y21810   3.683   3.042   9.889  0.1670 -0.5330  0.1632
  189POPC   C3421811   3.892   3.127   9.848  0.2172  0.4806 -0.8519
  189POPC   H4X21812   3.953   3.049   9.897 -1.1389 -0.3510 -0.4214
  189POPC   H4Y21813   3.929   3.229   9.872 -0.3189  0.2833  0.9285
  189POPC   C3521814   3.878   3.098   9.698 -0.0268  0.0454 -0.1004
  189POPC   H5X21815   3.784   3.145   9.660  0.2217  2.2098  1.7621
  189POPC   H5Y21816   3.871   2.989   9.676 -2.2077  0.0393  0.4084
  189POPC   C3621817   3.992   3.158   9.615 -0.4919  0.7225  0.1022
  189POPC   H6X21818   4.015   3.257   9.661 -3.5353  1.8409 -0.5125
  189POPC   H6Y21819   3.951   3.176   9.513  0.7719 -1.1465 -0.7783
  189POPC   C3721820   4.123   3.070   9.603 -0.0695  0.7167  0.3867
  189POPC   H7X21821   4.087   2.966   9.583 -1.3713  1.4356 -1.2528
  189POPC   H7Y21822   4.174   3.068   9.701 -0.1559 -1.5668  0.4552
  189POPC   C3821823   4.220   3.125   9.496 -0.7802  0.0405  0.8373
  189POPC   H8X21824   4.215   3.236   9.494 -1.7354  0.0094  1.0372
  189POPC   H8Y21825   4.187   3.080   9.400 -0.6134  0.6923  0.4678
  189POPC   C3921826   4.364   3.075   9.509  0.0826 -0.3273  0.3666
  189POPC   H9X21827   4.383   2.973   9.550  1.4856  0.7422  2.5624
  189POPC   H9Y21828   4.422   3.129   9.587  0.4597 -1.2061  0.7119
  189POPC  C31021829   4.448   3.099   9.386  0.1404  0.3987  0.3068
  189POPC  H10X21830   4.428   3.014   9.318  0.5102  0.9448 -0.4894
  189POPC  H10Y21831   4.557   3.090   9.410  0.5820  0.5106 -1.5573
  189POPC  C31121832   4.429   3.233   9.316  0.4126  0.0640 -0.3507
  189POPC  H11X21833   4.450   3.314   9.389 -0.6445  0.0324  0.0167
  189POPC  H11Y21834   4.325   3.249   9.280  0.9048 -1.2573 -2.5332
  189POPC  C31221835   4.515   3.238   9.188  0.1963  0.0576  0.2509
  189POPC  H12X21836   4.447   3.204   9.107 -0.1099  0.4409  0.3440
  189POPC  H12Y21837   4.593   3.159   9.187 -1.2747 -1.5676 -2.7651
  189POPC  C31321838   4.578   3.368   9.156  0.1177  0.2589  0.0312
  189POPC  H13X21839   4.641   3.408   9.239 -1.7236  0.6543  1.2877
  189POPC  H13Y21840   4.497   3.443   9.148  0.0748  0.3930  1.5259
  189POPC  C31421841   4.645   3.356   9.019 -0.3913  0.4545  0.4480
  189POPC  H14X21842   4.658   3.461   8.986  0.9642  0.9130  2.2747
  189POPC  H14Y21843   4.582   3.304   8.944  1.0364 -1.7936  0.6971
  189POPC  C31521844   4.788   3.302   9.022 -0.0580 -0.2043 -0.3644
  189POPC  H15X21845   4.838   3.337   9.115  0.3345  1.3165 -1.1065
  189POPC  H15Y21846   4.847   3.352   8.942 -0.6126  0.5216 -0.3377
  189POPC  C31621847   4.796   3.152   9.003 -0.3706  0.0450 -0.1877
  189POPC  H16X21848   4.759   3.097   9.092  0.5100 -0.1168  0.0924
  189POPC  H16Y21849   4.901   3.126   8.977 -0.7550 -3.4211  1.1271
  189POPC  H16Z21850   4.739   3.120   8.913 -1.2806  0.6545  0.1556
  190POPC     N21851   6.337   6.539  11.310  0.0940 -0.6126 -0.3856
  190POPC   C1221852   6.341   6.538  11.156 -0.4891  0.0055  0.1069
  190POPC  H12A21853   6.439   6.556  11.115 -1.1504  0.7028 -1.2214
  190POPC  H12B21854   6.270   6.608  11.116 -1.3767 -1.1944 -0.4974
  190POPC   C1321855   6.416   6.425  11.368  0.2927 -0.8748  0.5584
  190POPC  H13A21856   6.396   6.422  11.474 -0.8713 -0.6749  0.3510
  190POPC  H13B21857   6.390   6.339  11.308  0.8342 -0.7369  0.1167
  190POPC  H13C21858   6.523   6.433  11.357  0.0235  0.4168 -1.7845
  190POPC   C1421859   6.396   6.675  11.359 -0.4771 -0.0401 -0.2170
  190POPC  H14A21860   6.371   6.700  11.461  0.3695  1.3383 -0.3259
  190POPC  H14B21861   6.503   6.669  11.350 -0.5291 -0.6109 -0.4849
  190POPC  H14C21862   6.357   6.753  11.296  1.3115  0.0267 -1.3099
  190POPC   C1521863   6.198   6.530  11.362  0.7323 -0.0847  0.1548
  190POPC  H15A21864   6.197   6.534  11.470  1.2536 -2.9270  0.3550
  190POPC  H15B21865   6.152   6.436  11.337  0.4064  0.5202 -1.6372
  190POPC  H15C21866   6.140   6.616  11.332  2.1472  1.7544  2.2746
  190POPC   C1121867   6.295   6.410  11.080 -0.4091  0.4546  0.7193
  190POPC  H11A21868   6.293   6.426  10.971 -3.4025 -1.2575  0.4097
  190POPC  H11B21869   6.187   6.395  11.103 -0.7095 -0.2119 -1.0289
  190POPC     P21870   6.451   6.202  11.023  0.0422  0.1627 -0.3969
  190POPC   O1321871   6.433   6.057  11.047 -0.1363 -0.4196 -0.1420
  190POPC   O1421872   6.588   6.241  11.035  0.1583 -0.0684 -0.4691
  190POPC   O1221873   6.350   6.282  11.119  0.1545  0.0122  0.3793
  190POPC   O1121874   6.409   6.250  10.882  0.2731 -0.3573 -0.1077
  190POPC    C121875   6.281   6.187  10.835 -0.4772 -0.8776 -0.1439
  190POPC    HA21876   6.211   6.261  10.793 -1.3107 -0.3722  1.9935
  190POPC    HB21877   6.216   6.162  10.921  0.9851 -0.8232  1.0303
  190POPC    C221878   6.301   6.062  10.741 -0.8998  0.7656  0.2547
  190POPC    HS21879   6.349   5.984  10.803 -1.5609 -1.0115 -1.3801
  190POPC   O2121880   6.382   6.100  10.622  0.2485  0.1789 -0.1599
  190POPC   C2121881   6.442   6.006  10.556 -0.5807 -0.6561 -0.4319
  190POPC   O2221882   6.440   5.888  10.582  0.1453  1.2423 -0.3009
  190POPC   C2221883   6.515   6.072  10.442 -0.6336 -0.9844  0.2983
  190POPC   H2R21884   6.564   6.164  10.481 -0.9610 -0.6968  0.0370
  190POPC   H2S21885   6.432   6.098  10.373 -0.1303 -3.6332 -1.4514
  190POPC    C321886   6.180   5.991  10.684  0.2753  0.4185 -0.5680
  190POPC    HX21887   6.110   5.979  10.770 -1.3615  0.7648 -1.8000
  190POPC    HY21888   6.204   5.890  10.644 -0.9252  0.2126 -0.8167
  190POPC   O3121889   6.121   6.066  10.579  0.0730 -0.1462 -0.2086
  190POPC   C3121890   5.994   6.067  10.544  0.7288 -0.7207  0.7132
  190POPC   O3221891   5.905   6.007  10.603 -0.1774 -0.1693 -0.0345
  190POPC   C3221892   5.976   6.149  10.415 -0.4016 -0.4783  0.6004
  190POPC   H2X21893   6.078   6.162  10.372 -1.4552  1.4034 -1.5875
  190POPC   H2Y21894   5.934   6.248  10.443  3.4496  1.2061  0.9887
  190POPC   C2321895   6.604   5.979  10.359 -0.1157 -0.0320 -0.3644
  190POPC   H3R21896   6.568   5.877  10.335  0.8861 -0.5605  0.3185
  190POPC   H3S21897   6.703   5.970  10.408  0.5304 -2.3958 -1.9337
  190POPC   C2421898   6.629   6.041  10.218  0.0306 -0.1769 -0.1038
  190POPC   H4R21899   6.658   6.148  10.229 -0.2993 -0.0383 -0.5330
  190POPC   H4S21900   6.534   6.034  10.161 -1.5427 -2.8121  2.5864
  190POPC   C2521901   6.727   5.950  10.143  0.3781 -0.5804  0.3213
  190POPC   H5R21902   6.686   5.847  10.147  1.7353 -1.1420  0.0877
  190POPC   H5S21903   6.830   5.966  10.183  0.0630  1.4777  0.4372
  190POPC   C2621904   6.738   5.981   9.995 -0.0861  0.1769  0.5974
  190POPC   H6R21905   6.797   6.075  10.000  0.7065 -0.2540 -0.3878
  190POPC   H6S21906   6.639   5.998   9.948  0.9371  3.0965 -0.7307
  190POPC   C2721907   6.815   5.865   9.918  0.4743  0.0417  0.1992
  190POPC   H7R21908   6.740   5.789   9.884 -1.3129  1.8069 -0.0215
  190POPC   H7S21909   6.880   5.812   9.990  0.4720 -0.7626 -0.3764
  190POPC   C2821910   6.899   5.899   9.793  0.1180 -0.3538 -0.1767
  190POPC   H8R21911   6.975   5.976   9.815 -2.2322  2.2589 -0.5977
  190POPC   H8S21912   6.826   5.939   9.719  1.4591 -0.2710 -1.4892
  190POPC   C2921913   6.966   5.775   9.742  0.2265 -0.2123 -0.2304
  190POPC   H9121914   7.017   5.709   9.814 -0.7242  0.6199  1.2331
  190POPC  C21021915   6.975   5.729   9.612 -0.4060  0.3155  0.9483
  190POPC  H10121916   7.038   5.641   9.591 -0.6151  0.6677 -1.3601
  190POPC  C21121917   6.912   5.791   9.497 -0.0036  0.5255  0.3117
  190POPC  H11R21918   6.829   5.862   9.520  0.4779  0.7067  1.5469
  190POPC  H11S21919   6.862   5.709   9.441  2.0763 -0.3196 -0.4013
  190POPC  C21221920   7.008   5.875   9.411  0.3558 -0.2587  0.0938
  190POPC  H12R21921   7.115   5.848   9.419  1.0298  2.5506  1.7094
  190POPC  H12S21922   7.019   5.980   9.444  2.4395  0.5090 -2.6669
  190POPC  C21321923   6.977   5.870   9.258  1.5323 -0.1039  0.7155
  190POPC  H13R21924   7.000   5.765   9.230 -0.7129 -0.5673  0.4073
  190POPC  H13S21925   7.044   5.937   9.200  1.4832 -0.9607 -0.3626
  190POPC  C21421926   6.826   5.900   9.222 -0.8243 -0.3037 -0.1803
  190POPC  H14R21927   6.804   5.992   9.281  0.7360 -0.2080  0.2845
  190POPC  H14S21928   6.757   5.820   9.257 -1.2674  0.7842  1.5320
  190POPC  C21521929   6.800   5.915   9.068 -0.6225 -0.5331  0.9741
  190POPC  H15R21930   6.861   5.842   9.011  0.8920  1.6612 -0.4084
  190POPC  H15S21931   6.840   6.009   9.024  1.3225 -2.2809 -1.2393
  190POPC  C21621932   6.655   5.917   9.038 -0.4480 -0.2975  0.5324
  190POPC  H16R21933   6.597   6.001   9.082  0.1988  1.1505 -1.2366
  190POPC  H16S21934   6.619   5.817   9.069 -1.9875 -0.3612 -1.2667
  190POPC  C21721935   6.630   5.919   8.879 -0.6967 -0.1636 -0.7960
  190POPC  H17R21936   6.671   6.015   8.840 -3.0880  1.8335  1.2669
  190POPC  H17S21937   6.522   5.939   8.865 -0.5782  1.0834 -0.1392
  190POPC  C21821938   6.675   5.809   8.786 -0.1201  0.7760  0.0853
  190POPC  H18R21939   6.628   5.712   8.813 -2.1404  1.3411 -1.1659
  190POPC  H18S21940   6.785   5.792   8.785 -0.0051  1.4718  0.2263
  190POPC  H18T21941   6.644   5.825   8.680  0.5945  1.0663 -0.0864
  190POPC   C3321942   5.889   6.065  10.316  0.0703  0.5853  1.1481
  190POPC   H3X21943   5.791   6.045  10.364 -0.3902  0.1292  0.0551
  190POPC   H3Y21944   5.931   5.963  10.298 -0.7546  0.4604 -0.2369
  190POPC   C3421945   5.869   6.144  10.185  0.4032  0.6033 -0.1224
  190POPC   H4X21946   5.963   6.181  10.139 -0.4556  3.9030  0.5374
  190POPC   H4Y21947   5.825   6.243  10.210 -0.2472 -0.1711  1.9952
  190POPC   C3521948   5.796   6.075  10.065  0.9141 -0.3701 -0.2430
  190POPC   H5X21949   5.697   6.043  10.107 -1.3699  0.7165 -4.2669
  190POPC   H5Y21950   5.839   5.977  10.037 -0.9648 -1.3509  0.0918
  190POPC   C3621951   5.774   6.164   9.934 -0.1076 -0.2189  0.6403
  190POPC   H6X21952   5.871   6.212   9.909 -0.6661  1.5383  1.6602
  190POPC   H6Y21953   5.703   6.247   9.958 -0.7266 -0.5295 -0.0892
  190POPC   C3721954   5.727   6.087   9.810  0.0021 -0.6011  0.5571
  190POPC   H7X21955   5.792   6.000   9.788  1.0391  0.6620 -1.8542
  190POPC   H7Y21956   5.747   6.153   9.722  1.0208 -1.4402  0.1470
  190POPC   C3821957   5.585   6.042   9.823 -0.3940  0.0530 -0.3365
  190POPC   H8X21958   5.523   6.124   9.780 -1.0857 -1.7441 -3.0475
  190POPC   H8Y21959   5.558   6.026   9.930  1.7929 -0.1671  0.2170
  190POPC   C3921960   5.549   5.908   9.748 -0.2660 -1.0326  0.0924
  190POPC   H9X21961   5.444   5.889   9.779 -0.7643  0.8951 -0.3190
  190POPC   H9Y21962   5.607   5.830   9.803 -1.1069 -0.6174  1.6092
  190POPC  C31021963   5.554   5.901   9.598  0.6686 -0.4161 -0.1294
  190POPC  H10X21964   5.528   6.003   9.564  3.2505 -0.2636 -1.8959
  190POPC  H10Y21965   5.483   5.823   9.561  1.9864 -1.3156 -0.8746
  190POPC  C31121966   5.687   5.870   9.531  0.2701  0.5860  0.2632
  190POPC  H11X21967   5.734   5.806   9.609 -0.7341  1.8807  1.9864
  190POPC  H11Y21968   5.748   5.963   9.528  3.0479 -1.1339 -1.7770
  190POPC  C31221969   5.689   5.826   9.389 -0.3318 -0.4210 -0.0555
  190POPC  H12X21970   5.621   5.739   9.376  0.5402 -1.1996  0.5062
  190POPC  H12Y21971   5.791   5.787   9.369  0.1060  0.7744 -0.2877
  190POPC  C31321972   5.619   5.934   9.307 -0.2619 -0.3113 -0.5708
  190POPC  H13X21973   5.518   5.958   9.347  0.1567  2.6974 -1.0280
  190POPC  H13Y21974   5.591   5.898   9.205 -1.1505  2.8932 -1.6042
  190POPC  C31421975   5.677   6.073   9.293 -0.3526  0.1167 -0.1945
  190POPC  H14X21976   5.700   6.108   9.396 -1.1241 -0.0475  0.0427
  190POPC  H14Y21977   5.606   6.143   9.244  0.1345  0.7683  0.0161
  190POPC  C31521978   5.813   6.085   9.221 -0.7079  0.0119 -0.6580
  190POPC  H15X21979   5.804   6.044   9.118  0.0207 -2.1579  0.1033
  190POPC  H15Y21980   5.886   6.021   9.273 -0.9599 -1.4313 -2.0106
  190POPC  C31621981   5.868   6.231   9.203  0.0400  1.5152  0.3987
  190POPC  H16X21982   5.882   6.283   9.300  2.2396  0.2362  0.8302
  190POPC  H16Y21983   5.801   6.280   9.128  1.8538 -0.2894 -2.5967
  190POPC  H16Z21984   5.961   6.222   9.143  0.1625 -0.8712  0.8701
  191POPC     N21985   4.287   3.578   6.242 -0.8426  0.4067  0.5090
  191POPC   C1221986   4.337   3.559   6.098 -0.2780 -0.2068 -0.2806
  191POPC  H12A21987   4.421   3.625   6.084 -0.0030 -0.8091 -1.7083
  191POPC  H12B21988   4.251   3.588   6.039  0.7133 -0.3421 -1.8644
  191POPC   C1321989   4.193   3.472   6.274  0.2099  0.1327  0.1476
  191POPC  H13A21990   4.244   3.377   6.267  1.6389  0.9019 -0.1920
  191POPC  H13B21991   4.182   3.459   6.380  0.8887 -0.3662  0.1657
  191POPC  H13C21992   4.097   3.480   6.224  0.4429  3.4576  0.0382
  191POPC   C1421993   4.400   3.571   6.346 -0.2389  0.0354 -0.6970
  191POPC  H14A21994   4.371   3.579   6.450  0.8703 -0.9396 -0.2783
  191POPC  H14B21995   4.437   3.469   6.347 -0.1742  0.0279 -2.2137
  191POPC  H14C21996   4.483   3.636   6.323  0.1615 -0.5162 -0.8459
  191POPC   C1521997   4.222   3.710   6.258 -0.3481  0.2341 -0.3697
  191POPC  H15A21998   4.258   3.750   6.352  0.8300 -0.1374 -0.6397
  191POPC  H15B21999   4.115   3.712   6.242 -0.3622  1.5079 -0.2259
  191POPC  H15C22000   4.256   3.785   6.188  1.3552 -0.8562 -0.7812
  191POPC   C1122001   4.375   3.423   6.047 -0.6070 -0.2473  0.5597
  191POPC  H11A22002   4.414   3.448   5.946 -2.8972  1.9502  0.1236
  191POPC  H11B22003   4.278   3.373   6.027 -0.8591  0.8016 -1.0001
  191POPC     P22004   4.461   3.190   6.140  0.1381  0.1894  0.1542
  191POPC   O1322005   4.492   3.140   6.005  0.3239 -0.3528 -0.0859
  191POPC   O1422006   4.341   3.144   6.210  0.1204 -0.4016  0.2127
  191POPC   O1222007   4.461   3.345   6.133 -0.0392  0.1032  0.5675
  191POPC   O1122008   4.584   3.157   6.231 -0.5756 -0.4751  0.1858
  191POPC    C122009   4.576   3.119   6.362 -0.3014  0.4243 -0.3515
  191POPC    HA22010   4.652   3.044   6.391 -1.5259 -0.3115  1.1133
  191POPC    HB22011   4.477   3.081   6.397  0.0890 -0.0450  0.2709
  191POPC    C222012   4.600   3.244   6.459  0.1890 -0.3865  0.7833
  191POPC    HS22013   4.520   3.319   6.445  2.9020  2.6468  0.2573
  191POPC   O2122014   4.729   3.295   6.433 -0.0244 -1.0554  0.4893
  191POPC   C2122015   4.761   3.420   6.453  0.2903 -0.6283 -0.0686
  191POPC   O2222016   4.676   3.503   6.485  0.3357  0.8064  0.2225
  191POPC   C2222017   4.909   3.439   6.424  0.1736  0.4050  0.7407
  191POPC   H2R22018   4.932   3.493   6.330 -1.7360 -0.0801 -0.0571
  191POPC   H2S22019   4.954   3.339   6.410  1.4171  1.0005  0.3620
  191POPC    C322020   4.595   3.206   6.607  0.0189 -0.2250  0.3877
  191POPC    HX22021   4.613   3.289   6.678 -1.1763 -0.1244  0.6022
  191POPC    HY22022   4.673   3.130   6.626  0.9242  0.9199  1.4277
  191POPC   O3122023   4.470   3.137   6.640 -0.1420  0.1821  0.2675
  191POPC   C3122024   4.362   3.202   6.674  0.1017 -0.1397 -0.2433
  191POPC   O3222025   4.341   3.324   6.647  0.1202 -0.3026 -0.1595
  191POPC   C3222026   4.248   3.111   6.730  0.3116 -0.0676  0.2786
  191POPC   H2X22027   4.298   3.016   6.760 -0.8512 -0.3174  1.5618
  191POPC   H2Y22028   4.169   3.093   6.654 -1.0368 -0.7435  1.7772
  191POPC   C2322029   4.975   3.521   6.538 -0.2050  0.2210 -0.2254
  191POPC   H3R22030   4.926   3.621   6.546  0.3281  0.3933  1.1257
  191POPC   H3S22031   5.082   3.529   6.508 -0.0397  0.7414  0.4816
  191POPC   C2422032   4.984   3.455   6.671  0.8923 -0.2471  0.4788
  191POPC   H4R22033   4.996   3.349   6.641 -1.5838  0.2058 -2.5867
  191POPC   H4S22034   4.891   3.467   6.731  0.8893 -0.2347  0.4716
  191POPC   C2522035   5.100   3.510   6.755 -0.3674  0.3314  0.1793
  191POPC   H5R22036   5.084   3.618   6.773 -0.6563  0.4480 -0.6953
  191POPC   H5S22037   5.192   3.489   6.697 -1.3976 -3.0027 -0.4832
  191POPC   C2622038   5.109   3.437   6.891 -0.4749  0.5449  0.2023
  191POPC   H6R22039   5.146   3.333   6.887 -0.9297  0.4279 -1.3448
  191POPC   H6S22040   5.003   3.427   6.924 -0.7553 -0.4272 -0.9456
  191POPC   C2722041   5.186   3.518   6.991 -0.0370 -0.3697 -0.0298
  191POPC   H7R22042   5.155   3.624   6.981 -0.5858 -0.4997  0.2327
  191POPC   H7S22043   5.294   3.527   6.971 -0.2830  0.2616 -1.1392
  191POPC   C2822044   5.161   3.487   7.140 -0.2773  0.1608 -0.6940
  191POPC   H8R22045   5.053   3.466   7.157 -0.3079 -0.7127 -1.8085
  191POPC   H8S22046   5.186   3.578   7.198  0.7089 -0.0258 -0.8216
  191POPC   C2922047   5.237   3.368   7.188  0.1845 -0.2097 -0.1839
  191POPC   H9122048   5.239   3.298   7.103  1.2948  2.2181 -2.3022
  191POPC  C21022049   5.285   3.343   7.308  0.3916 -0.3856  0.0113
  191POPC  H10122050   5.340   3.249   7.317 -0.3000 -0.7322  0.6879
  191POPC  C21122051   5.266   3.433   7.438 -0.3263  0.2339  0.5626
  191POPC  H11R22052   5.170   3.489   7.436 -0.2502  0.5699  2.9964
  191POPC  H11S22053   5.351   3.504   7.445 -1.2848  1.3918  0.7159
  191POPC  C21222054   5.252   3.346   7.561 -0.0062 -0.1965  0.3497
  191POPC  H12R22055   5.159   3.290   7.540  0.7468 -1.4031  0.1058
  191POPC  H12S22056   5.226   3.420   7.639 -0.4376  1.8639 -1.6373
  191POPC  C21322057   5.368   3.253   7.598 -0.2912  0.4569  0.6874
  191POPC  H13R22058   5.457   3.319   7.601 -0.1134  0.4414 -2.0053
  191POPC  H13S22059   5.374   3.177   7.517 -1.5684  2.9667 -1.9098
  191POPC  C21422060   5.351   3.170   7.732 -0.0989  0.8262  0.0316
  191POPC  H14R22061   5.427   3.089   7.744 -0.4210  0.7304  1.7397
  191POPC  H14S22062   5.250   3.123   7.736 -0.7969  2.1243 -1.5652
  191POPC  C21522063   5.361   3.264   7.852  0.0026  0.2154  0.0756
  191POPC  H15R22064   5.337   3.369   7.824  0.2262  0.4233  0.6441
  191POPC  H15S22065   5.465   3.257   7.889 -0.4427 -3.7799  0.9602
  191POPC  C21622066   5.287   3.239   7.972  0.2502 -0.3448 -0.1031
  191POPC  H16R22067   5.313   3.315   8.049 -2.3005  1.0035 -0.4644
  191POPC  H16S22068   5.319   3.137   8.001 -0.0737 -0.2390  0.6674
  191POPC  C21722069   5.133   3.252   7.962  0.6855  0.8023  0.2534
  191POPC  H17R22070   5.080   3.213   8.051 -3.2077 -0.0604 -2.2146
  191POPC  H17S22071   5.107   3.190   7.874  0.0650 -1.1556  1.7614
  191POPC  C21822072   5.083   3.396   7.932  0.2124 -0.2146  0.1718
  191POPC  H18R22073   4.976   3.409   7.909  0.8202  1.4899 -2.1022
  191POPC  H18S22074   5.125   3.432   7.835  0.2155  2.6190  1.1484
  191POPC  H18T22075   5.126   3.460   8.011  1.5657 -0.8597 -0.0086
  191POPC   C3322076   4.184   3.161   6.865  0.5194 -0.1527  0.3053
  191POPC   H3X22077   4.267   3.204   6.925  1.4181  0.0773 -1.0579
  191POPC   H3Y22078   4.146   3.083   6.934 -0.3718  0.5542  0.6270
  191POPC   C3422079   4.073   3.265   6.831  0.0057  0.3517 -0.0207
  191POPC   H4X22080   3.996   3.217   6.766 -0.0157  0.6937 -0.2497
  191POPC   H4Y22081   4.115   3.339   6.759 -1.3269 -0.3147 -1.5586
  191POPC   C3522082   4.037   3.348   6.946  0.1912 -0.0549  0.0491
  191POPC   H5X22083   4.127   3.389   6.996 -0.9130 -0.0244  2.0775
  191POPC   H5Y22084   3.979   3.284   7.015  0.3312 -1.5799 -1.1837
  191POPC   C3622085   3.944   3.464   6.903 -0.1658  0.1339 -0.8842
  191POPC   H6X22086   3.858   3.409   6.858  0.0495 -2.1955  1.2901
  191POPC   H6Y22087   3.989   3.528   6.824  0.7449 -1.3738 -1.6267
  191POPC   C3722088   3.891   3.544   7.022 -0.1989  0.0720 -0.3976
  191POPC   H7X22089   3.889   3.486   7.117 -3.0964 -0.3967 -0.6477
  191POPC   H7Y22090   3.783   3.558   6.999  0.0143 -0.9151 -2.2009
  191POPC   C3822091   3.970   3.676   7.042 -0.7810  0.3119 -0.4995
  191POPC   H8X22092   3.915   3.748   7.106  1.1486 -1.7662  3.9948
  191POPC   H8Y22093   3.973   3.727   6.944  0.6859  2.3768  0.5534
  191POPC   C3922094   4.114   3.657   7.086 -0.0176  0.6566  0.5177
  191POPC   H9X22095   4.176   3.604   7.011 -2.0940  0.4420 -1.1570
  191POPC   H9Y22096   4.117   3.589   7.174 -2.2284 -0.3632 -0.1183
  191POPC  C31022097   4.186   3.792   7.106 -0.3287  0.2478 -0.3687
  191POPC  H10X22098   4.112   3.875   7.100  1.6978  2.1281 -0.9530
  191POPC  H10Y22099   4.249   3.821   7.019  0.3663  0.5325  0.2224
  191POPC  C31122100   4.258   3.803   7.241  0.7356  0.6980 -0.7858
  191POPC  H11X22101   4.318   3.710   7.250 -1.7323 -0.8941  0.3345
  191POPC  H11Y22102   4.189   3.798   7.328 -0.0708  1.6794 -1.3365
  191POPC  C31222103   4.356   3.923   7.264  0.6410  0.0041 -0.8268
  191POPC  H12X22104   4.413   3.900   7.357 -1.8466  0.7530  0.9753
  191POPC  H12Y22105   4.305   4.021   7.279  3.8981  1.8427 -0.8075
  191POPC  C31322106   4.443   3.931   7.135 -0.3672 -0.1356 -1.1049
  191POPC  H13X22107   4.373   3.978   7.063 -0.8449  0.8490 -0.0211
  191POPC  H13Y22108   4.472   3.830   7.098  0.2927 -0.1128 -0.6509
  191POPC  C31422109   4.560   4.031   7.139  0.3253  0.2798  0.4529
  191POPC  H14X22110   4.609   4.047   7.041  1.9236 -0.8158  1.0251
  191POPC  H14Y22111   4.647   3.987   7.192  2.0581  0.7202 -1.9197
  191POPC  C31522112   4.529   4.157   7.216 -0.7725  0.2582 -0.1040
  191POPC  H15X22113   4.562   4.129   7.319 -2.7242 -1.1682  0.1818
  191POPC  H15Y22114   4.421   4.181   7.207 -1.6369 -2.8798  0.7875
  191POPC  C31622115   4.602   4.283   7.162  0.3976  0.3177  0.8646
  191POPC  H16X22116   4.709   4.255   7.149  0.2755 -0.5487  1.6215
  191POPC  H16Y22117   4.586   4.377   7.220 -2.8896  1.3587 -1.4736
  191POPC  H16Z22118   4.549   4.296   7.066 -2.4220 -2.4668  1.8829
  192POPC     N22119   4.099   4.394   6.007 -0.3828 -0.1842 -0.2772
  192POPC   C1222120   4.224   4.447   5.943 -0.5383  0.2942 -0.6590
  192POPC  H12A22121   4.228   4.423   5.838  4.0330 -0.7693 -0.4487
  192POPC  H12B22122   4.311   4.400   5.986  1.8199  2.7261 -2.4556
  192POPC   C1322123   4.087   4.437   6.153 -1.0510  0.4015 -0.7126
  192POPC  H13A22124   4.164   4.404   6.221 -2.2237  1.7536  1.3716
  192POPC  H13B22125   4.112   4.542   6.156  5.6600 -0.6885 -1.2964
  192POPC  H13C22126   3.988   4.424   6.192 -0.3641 -1.2471  0.6139
  192POPC   C1422127   3.975   4.440   5.942 -0.2797  0.7470  0.1361
  192POPC  H14A22128   3.978   4.423   5.836  1.5301  1.6092  0.0005
  192POPC  H14B22129   3.888   4.390   5.981  0.2462 -0.1009  0.2376
  192POPC  H14C22130   3.966   4.547   5.957  1.6818  0.6905  2.4250
  192POPC   C1522131   4.106   4.243   6.006  0.5295 -0.2325  0.5145
  192POPC  H15A22132   4.092   4.198   5.909  1.8032  2.0497 -0.8334
  192POPC  H15B22133   4.044   4.200   6.083 -0.0173  2.2348  1.5396
  192POPC  H15C22134   4.205   4.224   6.046  0.0389  0.4590  2.1195
  192POPC   C1122135   4.241   4.602   5.943  1.0737  0.3643 -0.1624
  192POPC  H11A22136   4.164   4.642   5.873 -0.5636 -0.9494  0.7862
  192POPC  H11B22137   4.333   4.612   5.882  2.0022 -2.5794  0.5923
  192POPC     P22138   4.384   4.638   6.153  0.0147  0.0061 -0.0959
  192POPC   O1322139   4.493   4.710   6.079  0.5994  0.4627  1.1141
  192POPC   O1422140   4.416   4.490   6.167  0.1905 -0.8843  0.1746
  192POPC   O1222141   4.252   4.661   6.073 -0.2679 -0.5747  0.2143
  192POPC   O1122142   4.360   4.698   6.297  0.5929  0.4456  0.0121
  192POPC    C122143   4.395   4.837   6.327  0.0997 -0.2087 -0.1841
  192POPC    HA22144   4.328   4.915   6.284 -0.5887  0.1505  1.4424
  192POPC    HB22145   4.497   4.855   6.289 -0.1509  1.1743 -0.2518
  192POPC    C222146   4.401   4.870   6.484  0.7389 -0.3888 -0.1013
  192POPC    HS22147   4.477   4.949   6.498 -0.5305  1.2361 -1.7781
  192POPC   O2122148   4.420   4.752   6.556  0.1705  0.0683 -0.1217
  192POPC   C2122149   4.550   4.709   6.553 -0.4908  0.6040 -0.2439
  192POPC   O2222150   4.637   4.778   6.505  0.3653  0.2408  0.2200
  192POPC   C2222151   4.577   4.565   6.608 -0.1776 -0.1908  0.3198
  192POPC   H2R22152   4.688   4.556   6.609 -0.0302  0.9644  3.1639
  192POPC   H2S22153   4.529   4.500   6.531 -2.1900  2.3675 -0.7328
  192POPC    C322154   4.263   4.933   6.541 -0.0406  0.7398  0.6127
  192POPC    HX22155   4.182   4.861   6.519  0.9604 -0.6218  1.2076
  192POPC    HY22156   4.237   5.019   6.476  1.3036 -0.9296 -2.3602
  192POPC   O3122157   4.281   4.968   6.676  0.6067 -0.7191 -0.6498
  192POPC   C3122158   4.209   4.896   6.769  0.1003  0.0194 -0.2710
  192POPC   O3222159   4.138   4.806   6.737 -0.1235 -0.0018 -0.1308
  192POPC   C3222160   4.260   4.932   6.912  0.3847 -0.0139  0.3291
  192POPC   H2X22161   4.251   5.043   6.913  1.5535  0.0838  0.7434
  192POPC   H2Y22162   4.366   4.902   6.916  0.1236 -0.9048  1.0055
  192POPC   C2322163   4.503   4.545   6.748  0.2291 -1.1002  0.4514
  192POPC   H3R22164   4.484   4.436   6.763  3.6513 -2.2385 -2.1542
  192POPC   H3S22165   4.400   4.587   6.748  0.8401  0.4758  1.0415
  192POPC   C2422166   4.582   4.615   6.863 -0.4486  0.8764 -0.9160
  192POPC   H4R22167   4.600   4.722   6.841  1.3832  0.8182  0.0949
  192POPC   H4S22168   4.681   4.565   6.870 -0.5177  0.9047  0.7353
  192POPC   C2522169   4.509   4.613   6.994  0.2898  0.6478 -0.5501
  192POPC   H5R22170   4.484   4.506   7.011  3.5161 -0.0550  0.6680
  192POPC   H5S22171   4.413   4.666   6.980 -1.3441 -2.5284 -2.3372
  192POPC   C2622172   4.597   4.662   7.109  0.1829 -0.0665 -0.2240
  192POPC   H6R22173   4.651   4.758   7.098  0.3320 -0.0861  0.3404
  192POPC   H6S22174   4.688   4.598   7.110 -0.1086 -0.4900 -0.3392
  192POPC   C2722175   4.520   4.671   7.244 -0.1722 -0.3740  0.6343
  192POPC   H7R22176   4.472   4.579   7.283  0.4369 -1.4673 -1.1053
  192POPC   H7S22177   4.447   4.754   7.232  1.7257  1.2491 -0.2807
  192POPC   C2822178   4.613   4.703   7.355 -0.2068  0.1743  0.3075
  192POPC   H8R22179   4.685   4.620   7.374  1.4657  1.5582  0.3198
  192POPC   H8S22180   4.559   4.699   7.452  1.1313 -0.0300  1.0711
  192POPC   C2922181   4.693   4.835   7.342 -0.7875 -0.6308 -0.5299
  192POPC   H9122182   4.725   4.866   7.242  0.3150 -0.5862 -0.1837
  192POPC  C21022183   4.733   4.911   7.449 -0.1226 -0.1325 -0.3036
  192POPC  H10122184   4.795   5.000   7.428  1.6010 -0.8032  1.5380
  192POPC  C21122185   4.700   4.907   7.602  0.2598  0.1170  0.2632
  192POPC  H11R22186   4.629   4.828   7.633  0.7255  0.1723  1.5449
  192POPC  H11S22187   4.646   5.000   7.631 -0.6651 -0.8866  1.9081
  192POPC  C21222188   4.824   4.889   7.686  0.0683 -0.0345  0.1848
  192POPC  H12R22189   4.897   4.968   7.658  0.5072 -1.1693 -2.0954
  192POPC  H12S22190   4.861   4.785   7.672  0.1109  0.0844 -0.6588
  192POPC  C21322191   4.797   4.893   7.841 -0.3863 -0.1156 -0.1140
  192POPC  H13R22192   4.699   4.846   7.865  0.3233 -1.7224 -0.2192
  192POPC  H13S22193   4.805   5.001   7.866  0.6668 -0.2309  0.0993
  192POPC  C21422194   4.895   4.812   7.940  0.0725 -0.0671 -0.1494
  192POPC  H14R22195   4.985   4.876   7.938  0.7036 -0.9065  0.7062
  192POPC  H14S22196   4.912   4.715   7.888  0.4144  1.7109 -3.7122
  192POPC  C21522197   4.845   4.790   8.083  0.4469  0.7417 -0.1096
  192POPC  H15R22198   4.842   4.893   8.124  0.3392  1.0772 -0.9482
  192POPC  H15S22199   4.922   4.728   8.135 -1.5889 -0.5721  1.4888
  192POPC  C21622200   4.710   4.720   8.099  0.5264  0.3323  1.0980
  192POPC  H16R22201   4.710   4.635   8.028  1.4280  1.2544 -0.0669
  192POPC  H16S22202   4.623   4.783   8.070 -0.2090  0.0716  2.6579
  192POPC  C21722203   4.693   4.674   8.239  0.0815 -0.0254  0.2614
  192POPC  H17R22204   4.590   4.691   8.278 -1.2775 -2.8573 -1.6736
  192POPC  H17S22205   4.776   4.713   8.300  1.0381 -1.6719  0.0609
  192POPC  C21822206   4.708   4.529   8.249  0.0761 -0.2302  0.4432
  192POPC  H18R22207   4.612   4.481   8.222  0.9718 -1.0980 -1.4266
  192POPC  H18S22208   4.750   4.497   8.347  1.4749  0.6452  0.1683
  192POPC  H18T22209   4.768   4.487   8.165 -0.1911  0.7613 -0.2529
  192POPC   C3322210   4.177   4.870   7.020  1.0764 -0.2338 -0.2017
  192POPC   H3X22211   4.186   4.759   7.023  0.8233 -0.2536 -0.1221
  192POPC   H3Y22212   4.070   4.890   6.996 -0.0957 -3.1511  1.9887
  192POPC   C3422213   4.209   4.929   7.161  0.0115 -0.0071  0.5429
  192POPC   H4X22214   4.199   5.039   7.164  1.4344  0.1601  0.2188
  192POPC   H4Y22215   4.313   4.899   7.188 -1.4717 -2.7311  3.9521
  192POPC   C3522216   4.106   4.879   7.261  0.6462  0.9322  0.4738
  192POPC   H5X22217   4.114   4.769   7.265 -1.7823  0.5640 -1.5630
  192POPC   H5Y22218   4.005   4.895   7.216  0.5894 -2.5916 -0.9512
  192POPC   C3622219   4.124   4.938   7.406  0.8692  0.3907 -1.2101
  192POPC   H6X22220   4.023   4.931   7.453  2.0630  0.6102  1.5715
  192POPC   H6Y22221   4.157   5.044   7.397 -1.3475  1.3284  0.4160
  192POPC   C3722222   4.226   4.865   7.475 -0.6377 -0.7887 -0.4828
  192POPC   H7X22223   4.327   4.894   7.437 -0.5472  0.4685  0.6796
  192POPC   H7Y22224   4.224   4.755   7.458 -0.3612 -0.8421 -0.1747
  192POPC   C3822225   4.218   4.899   7.626  0.1755 -0.1338  1.0191
  192POPC   H8X22226   4.112   4.908   7.656 -0.6506 -1.1535 -1.3303
  192POPC   H8Y22227   4.274   4.993   7.643  1.2170 -0.3595 -0.8502
  192POPC   C3922228   4.278   4.783   7.707  0.4382 -0.0827 -0.0344
  192POPC   H9X22229   4.387   4.768   7.692  0.4169  0.6180 -0.9813
  192POPC   H9Y22230   4.235   4.690   7.664 -0.7048 -0.1513  1.2188
  192POPC  C31022231   4.249   4.784   7.865 -0.5952  0.3166 -0.0623
  192POPC  H10X22232   4.282   4.693   7.919 -1.0994  0.9153  1.3125
  192POPC  H10Y22233   4.141   4.805   7.885 -1.1218 -1.3404 -0.9376
  192POPC  C31122234   4.324   4.899   7.933  0.0407  0.6352  0.7975
  192POPC  H11X22235   4.288   5.001   7.908 -0.4596  0.6905  1.6813
  192POPC  H11Y22236   4.428   4.880   7.900 -0.4092  0.3856 -0.5379
  192POPC  C31222237   4.314   4.881   8.089  0.1000  0.3652 -0.1497
  192POPC  H12X22238   4.348   4.780   8.121  0.3355  0.4070 -0.2687
  192POPC  H12Y22239   4.206   4.881   8.114  0.4652  0.9171  1.5146
  192POPC  C31322240   4.380   4.994   8.168 -1.0903  0.4206 -0.3018
  192POPC  H13X22241   4.312   5.080   8.152  0.0749  1.2890 -0.6326
  192POPC  H13Y22242   4.483   5.010   8.131 -0.4222 -0.3036  1.1593
  192POPC  C31422243   4.365   4.978   8.321 -0.1789  0.8930 -0.8056
  192POPC  H14X22244   4.467   4.997   8.361 -0.3102 -1.8512  1.1410
  192POPC  H14Y22245   4.330   4.874   8.338 -0.3607  0.7547 -1.9456
  192POPC  C31522246   4.287   5.080   8.397  0.0406 -0.1793  0.0553
  192POPC  H15X22247   4.193   5.109   8.347 -0.2265  1.4986  1.4390
  192POPC  H15Y22248   4.359   5.164   8.391  2.2375 -1.8976  0.7910
  192POPC  C31622249   4.272   5.060   8.547  0.0986 -0.6107 -0.6897
  192POPC  H16X22250   4.202   4.979   8.576 -2.7706  2.5474  2.1742
  192POPC  H16Y22251   4.226   5.151   8.592 -2.0114 -1.6386 -0.6275
  192POPC  H16Z22252   4.369   5.043   8.598  0.9346  2.8028 -0.9224
  193SOD    SOD22253   3.949   6.247  13.475 -0.0153  0.7525  0.1076
  194SOD    SOD22254   1.278   4.152   3.336  0.4433 -0.1424 -0.2320
  195SOD    SOD22255   2.857   6.776  15.156  0.1768 -0.4839 -0.2789
  196SOD    SOD22256   3.966   6.271  16.637 -0.1290  0.1589  0.3941
  197SOD    SOD22257   6.104   2.045   5.752  0.6013 -0.0742 -0.1657
  198SOD    SOD22258   0.718   1.181   1.967  0.2771  0.4011 -0.1122
  199SOD    SOD22259   3.911   4.749   1.612 -0.5238  0.3113  0.0735
  200SOD    SOD22260   5.233   6.207   5.329 -0.4034 -0.5569 -0.3947
  201SOD    SOD22261   4.738   6.439   3.847 -0.4870 -0.3571  0.3200
  202SOD    SOD22262   5.141   3.469   4.463  0.1033 -0.1131  0.2608
  203SOD    SOD22263   2.312   0.144   4.766 -0.0705 -0.0013 -0.1338
  204SOD    SOD22264   3.890   5.585  10.704  0.0511  0.1098 -0.3702
  205SOD    SOD22265   2.010   0.192   5.727 -0.4132 -0.0458  0.1004
  206SOD    SOD22266   2.480   6.727   0.912  0.1427  0.6459  0.2125
  207SOD    SOD22267   0.040   3.624  15.019 -0.4279 -0.2171 -0.1023
  208SOD    SOD22268   5.353   6.718  12.220 -0.2930 -0.3243  0.1634
  209SOD    SOD22269   2.241   5.969  10.673  0.6462 -0.0580 -0.1636
  210SOD    SOD22270   4.534   3.935  10.839 -0.1828 -0.2829 -0.3855
  211SOD    SOD22271   1.914   5.812  15.519 -0.3226  0.0591 -0.2049
  212SOD    SOD22272   0.674   2.959  14.669 -0.0428 -0.0498 -0.5306
  213SOD    SOD22273   3.964   3.754   0.966 -0.4067  0.0322  0.1969
  214SOD    SOD22274   2.804   5.008   5.918  0.1355 -0.1928  0.2640
  215SOD    SOD22275   4.492   2.624   3.797  0.1922  0.2444  0.0302
  216SOD    SOD22276   1.999   3.571   0.071 -0.1420 -0.2021 -0.9599
  217SOD    SOD22277   1.677   5.397  14.466  0.3329  0.5305 -0.2592
  218SOD    SOD22278   4.673   2.023  16.524  0.4351 -0.0738  0.2559
  219SOD    SOD22279   3.671   6.545  14.667 -0.1474 -0.0652 -0.1249
  220SOD    SOD22280   0.496   1.595   4.619  0.0766 -0.2226  0.5402
  221SOD    SOD22281   1.857   5.476   2.085  0.1564 -0.1519 -0.1209
  222SOD    SOD22282   2.022   6.171  11.165  0.0977  0.3592 -0.0552
  223SOD    SOD22283   2.184   3.310   6.487  0.4261  0.5618  0.1847
  224SOD    SOD22284   6.261   4.738  15.380  0.1890  0.3779 -0.1451
  225SOD    SOD22285   4.519   0.420   5.988  0.3998 -0.4104 -0.1422
  226SOD    SOD22286   5.744   4.293  13.201  0.1869 -0.3223 -0.1102
  227SOD    SOD22287   3.055   2.594   3.478  0.4503  0.1375 -0.4560
  228SOD    SOD22288   6.190   2.268   6.334  0.3260 -0.1785 -0.1550
  229SOD    SOD22289   5.667   0.331  10.788  0.2275 -0.1572 -0.3658
  230SOD    SOD22290   3.045   5.801   6.059  0.7298  0.2394 -0.0921
  231SOD    SOD22291   5.459   3.901  14.286 -0.3604  0.4608 -0.2826
  232SOD    SOD22292   3.841   2.072   2.990  0.3221 -0.1304  0.4229
  233SOD    SOD22293   4.675   0.675   4.862 -0.4570  0.5619  0.0484
  234SOD    SOD22294   6.477   4.606   5.870  0.2085 -0.0785  0.2982
  235SOD    SOD22295   4.336   4.202   3.637  0.2531 -0.1256  0.5217
  236SOD    SOD22296   0.761   5.973   5.104 -0.8377  0.5982 -0.4236
  237SOD    SOD22297   2.677   0.557  16.988 -0.4502  0.3082 -0.7435
  238SOD    SOD22298   2.347   2.900   5.276 -0.0826  0.2613  0.2636
  239SOD    SOD22299   2.910   5.160  11.298 -0.0152  0.2241 -0.4218
  240SOD    SOD22300   3.023   3.884   2.217  0.0271  0.3246 -0.0469
  241SOD    SOD22301   6.785   4.059  11.545 -0.4398 -0.2280 -0.1853
  242SOD    SOD22302   2.013   4.114  11.284 -0.2590  0.2928 -0.1833
  243SOD    SOD22303   5.558   1.366  10.640  0.0421  0.0150  0.7476
  244SOD    SOD22304   4.415   4.008   5.890 -0.4484  0.3347  0.0368
  245SOD    SOD22305   4.984   3.237   0.898 -0.0824 -0.3012  0.1100
  246SOD    SOD22306   4.918   2.027   0.935 -0.1201 -0.1353 -0.1789
  247SOD    SOD22307   5.987   5.198   0.483  0.1841  0.0033  0.1599
  248SOD    SOD22308   1.126   0.620   0.982 -0.1648  0.1168  0.0861
  249SOD    SOD22309   0.781   2.977   0.648 -0.0598  0.3879 -0.8118
  250SOD    SOD22310   1.101   2.182  10.545 -0.0766  0.2128  0.5295
  251SOD    SOD22311   5.686   1.090  12.133  0.0996  0.0197 -0.3251
  252SOD    SOD22312   0.687   4.551   4.623  0.5499 -0.4025  0.3013
  253SOD    SOD22313   0.679   5.630  12.135 -0.1801 -0.3968  0.4744
  254SOD    SOD22314   2.988   5.046   4.648  0.1711  0.0280 -0.1149
  255SOD    SOD22315   3.391   0.007  12.185 -0.4557 -0.1202  0.5814
  256SOD    SOD22316   6.140   1.560   5.194  0.5963  0.0026 -0.2384
  257SOD    SOD22317   0.473   5.445  16.956  0.0559  0.0069  0.1498
  258SOD    SOD22318   4.686   5.873  13.507  0.4170 -0.1411 -0.0935
  259SOD    SOD22319   4.381   1.481  13.564  0.0686 -0.3463 -0.0069
  260SOD    SOD22320   4.508   0.776  11.206  0.0292  0.2271 -0.2170
  261SOD    SOD22321   5.163   5.771  15.643  0.0828  0.0318 -0.3735
  262SOD    SOD22322   4.953   0.132  15.181  0.6019  0.0385  0.0650
  263SOD    SOD22323   0.072   2.588  16.097  0.6404  0.1617 -0.5700
  264SOD    SOD22324   4.567   4.613   4.859 -0.1976 -0.1856 -0.0540
  265SOD    SOD22325   0.519   2.448  15.820  0.1603 -0.3413 -0.1380
  266SOD    SOD22326   6.660   2.717  10.917 -0.2152  0.6220 -0.0005
  267SOD    SOD22327   2.878   6.706  11.538  0.0969 -0.0764 -0.5047
  268SOD    SOD22328   0.425   3.094  10.838 -0.2996 -0.0072  0.1703
  269SOD    SOD22329   2.317   1.083  13.067  0.2749 -0.0018 -0.4595
  270CLA    CLA22330   0.641   4.553   2.527  0.0410  0.5922 -0.1475
  271CLA    CLA22331   1.809   4.164   3.507  0.1753  0.0545 -0.4228
  272CLA    CLA22332   3.585   1.502   4.885  0.5549 -0.0105  0.1048
  273CLA    CLA22333   0.196   1.132  17.045 -0.2442 -0.1917  0.1626
  274CLA    CLA22334   4.856   5.155   4.548  0.0876  0.1708  0.1810
  275CLA    CLA22335   5.978   1.477  15.350 -0.3463  0.1234  0.2461
  276CLA    CLA22336   0.160   3.177   1.162  0.0359  0.0220 -0.0087
  277CLA    CLA22337   4.249   2.577   1.822 -0.5345 -0.0854  0.4530
  278CLA    CLA22338   3.809   0.127  12.454  0.1768 -0.0224  0.1498
  279CLA    CLA22339   4.597   3.600  11.626  0.1681 -0.0993  0.3371
  280CLA    CLA22340   0.926   6.137   4.622 -0.2616 -0.0881 -0.0537
  281CLA    CLA22341   5.520   6.758  12.989 -0.1334  0.1901 -0.2774
  282CLA    CLA22342   3.845   4.150   4.650  0.4981 -0.0832 -0.3238
  283CLA    CLA22343   4.317   4.410   5.634 -0.5961  0.1444  0.1133
  284CLA    CLA22344   3.742   0.088  16.362  0.0832  0.2541 -0.1802
  285CLA    CLA22345   3.843   1.076  14.922 -0.4446 -0.4989 -0.2532
  286CLA    CLA22346   6.535   6.747   5.890  0.0184 -0.2491 -0.5216
  287CLA    CLA22347   4.351   0.203  14.410  0.3079 -0.1148 -0.1872
  288CLA    CLA22348   5.572   2.361   3.501 -0.1289  0.1173  0.0324
  289CLA    CLA22349   4.407   2.029  16.947  0.1951  0.0650  0.1050
  290CLA    CLA22350   2.658   6.282  15.191 -0.0398  0.2818 -0.7153
  291CLA    CLA22351   4.734   5.295  14.084  0.0153  0.0519 -0.3741
  292CLA    CLA22352   0.233   0.448  11.566 -0.3154  0.3936 -0.1819
  293CLA    CLA22353   5.783   6.443  11.492 -0.2465  0.0503  0.4241
  294CLA    CLA22354   3.879   1.036   5.706 -0.3282 -0.4682  0.3386
  295CLA    CLA22355   4.623   6.282  13.110  0.3798 -0.2048  0.1269
  296CLA    CLA22356   6.693   5.137  15.760  0.2804 -0.1436 -0.1169
  297CLA    CLA22357   0.390   0.795   1.270 -0.2802  0.2838  0.2821
  298CLA    CLA22358   2.595   5.807   4.946  0.1361 -0.0307 -0.3959
  299CLA    CLA22359   1.744   1.288  13.346  0.0301 -0.0422 -0.0274
  300CLA    CLA22360   3.296   2.628  12.917 -0.1539 -0.0337 -0.2270
  301CLA    CLA22361   2.645   3.178   3.962 -0.1517  0.0890 -0.4573
  302CLA    CLA22362   4.550   1.473  15.807 -0.0967  0.2410  0.4745
  303CLA    CLA22363   4.523   4.854  15.508 -0.3388 -0.0877 -0.1465
  304CLA    CLA22364   0.225   3.779   3.022  0.7036  0.2500 -0.0280
  305CLA    CLA22365   6.135   2.819   2.259 -0.0964  0.0800  0.2738
  306CLA    CLA22366   2.001   4.297   4.249  0.0981  0.1103  0.0390
  307CLA    CLA22367   3.690   6.447   3.077  0.3022  0.3231 -0.3713
  308CLA    CLA22368   1.660   0.918  16.583 -0.0366  0.0218  0.0140
  309CLA    CLA22369   2.408   0.035  11.397 -0.3775  0.5867 -0.4143
  310CLA    CLA22370   6.357   4.253  12.518  0.5991 -0.4134  0.2094
  311CLA    CLA22371   3.324   1.779   0.820  0.5214 -0.0548  0.2143
  312CLA    CLA22372   2.295   5.557  10.938  0.2991  0.0813 -0.0084
  313CLA    CLA22373   5.010   6.135   4.149  0.0256 -0.4634 -0.0706
  314CLA    CLA22374   3.396   5.012   0.482 -0.2451  0.2411 -0.0608
  315CLA    CLA22375   1.132   3.072   1.974 -0.1255  0.0248  0.2472
  316CLA    CLA22376   6.778   6.537   1.318  0.0075  0.1674  0.1975
  317CLA    CLA22377   6.551   6.760  17.075 -0.1440  0.5812 -0.0674
  318CLA    CLA22378   5.079   6.389  12.606 -0.2798  0.1473 -0.2149
  319CLA    CLA22379   5.156   6.036   0.763 -0.3658 -0.0359  0.2280
  320CLA    CLA22380   5.638   4.132   3.633  0.3356 -0.3998 -0.2052
  321CLA    CLA22381   4.459   3.124   5.310 -0.3113  0.1868 -0.1048
  322CLA    CLA22382   1.832   4.900   0.230  0.0772 -0.0481  0.6305
  323TIP3   OH222383   3.679   1.069  13.092 -0.1020  0.0300 -0.1891
  323TIP3    H122384   3.623   1.050  13.167 -0.7245  0.4494 -0.5435
  323TIP3    H222385   3.623   1.053  13.015  0.5918 -0.6150 -0.5757
  324TIP3   OH222386   6.368   0.241  11.408 -0.1368  0.1781  0.1940
  324TIP3    H122387   6.404   0.212  11.325  1.9728  0.4802  0.9462
  324TIP3    H222388   6.362   0.336  11.401  0.0162  0.2015  0.3671
  325TIP3   OH222389   1.772   2.492   0.049 -0.3408  0.3461  0.1406
  325TIP3    H122390   1.787   2.477   0.142  0.6031  0.7931  0.0702
  325TIP3    H222391   1.807   2.579   0.032 -1.2325  0.6015 -0.4757
  326TIP3   OH222392   5.711   1.247  15.817 -0.1836  0.4733 -0.2279
  326TIP3    H122393   5.715   1.288  15.903  0.7596  0.3859 -0.2216
  326TIP3    H222394   5.673   1.161  15.832 -0.6455  0.7159 -0.0004
  327TIP3   OH222395   6.208   6.393   4.932  0.6875 -0.2773 -0.3896
  327TIP3    H122396   6.266   6.399   5.008 -0.5083  0.7496  0.4956
  327TIP3    H222397   6.142   6.329   4.958  0.2102  0.1616 -0.5062
  328TIP3   OH222398   1.209   4.753   2.708  0.1750 -0.0726  0.9281
  328TIP3    H122399   1.123   4.790   2.687 -0.2363 -0.7832  1.3229
  328TIP3    H222400   1.252   4.821   2.760  0.5809  1.0436 -0.7930
  329TIP3   OH222401   1.766   6.108   1.422 -0.3736 -0.6375  0.4661
  329TIP3    H122402   1.801   6.019   1.425  0.0444 -0.6046 -1.6515
  329TIP3    H222403   1.676   6.098   1.390 -1.5221 -0.4976  3.3462
  330TIP3   OH222404   3.159   2.092   5.603  0.0811  0.0692  0.2948
  330TIP3    H122405   3.163   2.187   5.601  1.2727  0.0321 -0.4412
  330TIP3    H222406   3.128   2.071   5.691  0.4201  1.1240  0.6791
  331TIP3   OH222407   5.367   3.473  15.434  0.5375  0.0093  0.2733
  331TIP3    H122408   5.276   3.444  15.425  0.4251  0.6003 -0.6362
  331TIP3    H222409   5.416   3.416  15.374  0.5075  0.8083 -0.5260
  332TIP3   OH222410   4.282   1.287   0.601 -0.0099  0.1489 -0.6923
  332TIP3    H122411   4.276   1.383   0.598  0.6759  0.1952 -0.6139
  332TIP3    H222412   4.242   1.264   0.685  0.4476  0.4206 -0.3966
  333TIP3   OH222413   0.613   5.244  13.564  0.1643 -0.2447 -0.2120
  333TIP3    H122414   0.621   5.149  13.574  0.8368 -0.2636 -0.8358
  333TIP3    H222415   0.603   5.257  13.470  0.5155  0.3307 -0.1750
  334TIP3   OH222416   4.113   2.362  15.606 -0.4029  0.2772  0.3994
  334TIP3    H122417   4.069   2.278  15.595 -1.8996  0.9503  0.8788
  334TIP3    H222418   4.206   2.341  15.608 -0.7257 -1.3036  0.0469
  335TIP3   OH222419   1.407   6.557   6.231 -0.3445 -0.1802 -0.6522
  335TIP3    H122420   1.367   6.642   6.251 -0.7330 -0.3741 -0.6025
  335TIP3    H222421   1.489   6.557   6.280  0.5573  0.9274 -2.0628
  336TIP3   OH222422   2.471   0.776   1.200 -0.1833 -0.1055 -0.1814
  336TIP3    H122423   2.382   0.741   1.210 -0.3113  0.1785 -0.2901
  336TIP3    H222424   2.461   0.870   1.215 -0.4354  0.4144 -2.9573
  337TIP3   OH222425   5.846   2.218   0.158  0.5180  0.4464 -0.0560
  337TIP3    H122426   5.890   2.282   0.102  1.3727 -0.1765 -0.1272
  337TIP3    H222427   5.802   2.271   0.225 -0.1515  1.1708 -1.0503
  338TIP3   OH222428   2.653   1.198   5.766  0.0817 -0.4473 -0.0844
  338TIP3    H122429   2.617   1.248   5.693 -0.9118 -0.3133  0.4855
  338TIP3    H222430   2.713   1.136   5.725 -1.9860 -1.7999 -1.2407
  339TIP3   OH222431   6.177   0.712   3.993  0.1220 -0.2109  0.1350
  339TIP3    H122432   6.180   0.617   4.000 -1.3409 -0.2360  0.8306
  339TIP3    H222433   6.124   0.729   3.915 -0.7339  0.0026  0.7435
  340TIP3   OH222434   4.611   5.098   5.831  0.3306  0.6069  0.8744
  340TIP3    H122435   4.664   5.039   5.884  1.6340  0.3558 -0.6347
  340TIP3    H222436   4.655   5.183   5.838  0.4585  0.5947  0.2958
  341TIP3   OH222437   4.044   6.274  17.058 -0.1609  0.6450  0.0922
  341TIP3    H122438   3.998   6.286  17.141  0.0238  0.2643  0.2519
  341TIP3    H222439   4.136   6.288  17.079 -0.2815  2.4935 -0.4407
  342TIP3   OH222440   5.708   5.193  15.232  0.2040 -0.0983  0.0181
  342TIP3    H122441   5.717   5.134  15.306 -0.1165 -0.4801 -0.2408
  342TIP3    H222442   5.740   5.277  15.264  0.9740 -0.4862  0.2929
  343TIP3   OH222443   0.763   1.018   3.220  0.0266 -0.7354  0.3052
  343TIP3    H122444   0.778   0.944   3.161 -2.8485 -1.7802  0.7513
  343TIP3    H222445   0.732   1.088   3.162  2.7771  0.2863 -0.1217
  344TIP3   OH222446   6.674   0.367  13.941  0.1612 -0.2551  0.1911
  344TIP3    H122447   6.732   0.292  13.932  0.3198 -0.4221  2.1063
  344TIP3    H222448   6.587   0.333  13.920  0.1287 -1.2003  1.6928
  345TIP3   OH222449   2.166   5.121  16.925  0.1919 -0.4662 -0.2565
  345TIP3    H122450   2.198   5.088  16.841 -2.1257 -1.0759 -0.9814
  345TIP3    H222451   2.084   5.164  16.904 -0.7338 -1.1157  1.7513
  346TIP3   OH222452   4.296   3.156  11.287  0.0907  0.3178  0.4194
  346TIP3    H122453   4.302   3.103  11.207 -0.2929 -0.0528  0.6337
  346TIP3    H222454   4.387   3.183  11.304  0.3111 -0.3568  0.3613
  347TIP3   OH222455   1.948   3.875   1.361  0.2522 -0.2057  0.3123
  347TIP3    H122456   1.935   3.879   1.455 -0.3021 -1.5625  0.3186
  347TIP3    H222457   1.886   3.808   1.331 -2.0621  2.4988 -1.4724
  348TIP3   OH222458   4.857   2.170   5.121  0.4268 -0.0556 -0.0494
  348TIP3    H122459   4.858   2.086   5.075 -0.6055  0.7209 -1.6047
  348TIP3    H222460   4.766   2.199   5.117  0.6375  0.8379  1.0521
  349TIP3   OH222461   1.923   2.709  13.706 -0.4486 -0.1906 -0.4589
  349TIP3    H122462   1.973   2.628  13.714  2.1516  1.3574  0.5762
  349TIP3    H222463   1.875   2.716  13.788  0.6283  0.0338  0.1843
  350TIP3   OH222464   0.627   5.111   4.369 -0.3917 -0.1427  0.0066
  350TIP3    H122465   0.569   5.098   4.444 -0.8778  1.9755  0.0654
  350TIP3    H222466   0.712   5.075   4.397 -0.2520  1.6141  2.0429
  351TIP3   OH222467   2.934   1.981   1.961  0.4452 -0.2901 -0.3052
  351TIP3    H122468   2.848   1.977   2.004  0.6201 -3.0339 -0.0510
  351TIP3    H222469   2.917   2.029   1.880 -1.4219 -1.0573 -0.4328
  352TIP3   OH222470   2.519   0.820   5.428  0.0342  0.0368 -0.4137
  352TIP3    H122471   2.541   0.729   5.446 -3.3166 -0.9271 -0.5586
  352TIP3    H222472   2.495   0.857   5.513  2.3051  1.1608 -0.1922
  353TIP3   OH222473   3.045   2.585   0.469  0.0834 -0.1343 -1.0473
  353TIP3    H122474   3.037   2.514   0.533 -1.1089  1.4476  0.6816
  353TIP3    H222475   3.136   2.580   0.439  0.3236 -1.7074 -0.1648
  354TIP3   OH222476   6.188   3.779  12.752  0.1955  0.0563 -0.2419
  354TIP3    H122477   6.240   3.793  12.673  1.7483 -2.6976  0.1822
  354TIP3    H222478   6.107   3.739  12.720 -0.9987  2.6510 -0.7222
  355TIP3   OH222479   4.721   4.559  16.014  0.2329  0.4055  0.2527
  355TIP3    H122480   4.785   4.617  16.056  2.7765 -1.3157 -0.9790
  355TIP3    H222481   4.671   4.522  16.087  0.9134  1.4946  1.3192
  356TIP3   OH222482   2.689   2.470  13.934 -0.2530  0.2159  0.2649
  356TIP3    H122483   2.711   2.476  13.842 -0.6808  1.0207  0.2074
  356TIP3    H222484   2.744   2.536  13.977 -0.0607 -0.1467  0.5843
  357TIP3   OH222485   2.910   2.057  13.460 -0.1236 -0.0207  0.5884
  357TIP3    H122486   2.968   2.008  13.518  2.0960  1.5480 -0.1782
  357TIP3    H222487   2.926   2.019  13.373 -0.6671  0.0566  0.4537
  358TIP3   OH222488   6.119   4.162  13.782  0.0049 -0.1785  0.1258
  358TIP3    H122489   6.169   4.128  13.709  0.4039  0.1170  0.2542
  358TIP3    H222490   6.132   4.098  13.853  0.5168  0.0879  0.2775
  359TIP3   OH222491   1.669   2.116   0.230 -0.3544 -0.0693  0.0315
  359TIP3    H122492   1.609   2.058   0.277  1.3994 -1.1154  1.1013
  359TIP3    H222493   1.647   2.103   0.137 -2.4382  0.3883  0.4118
  360TIP3   OH222494   0.049   5.634   1.502  0.2119  0.2562  0.1509
  360TIP3    H122495   0.134   5.662   1.468 -1.0041  0.5865 -3.0443
  360TIP3    H222496   0.055   5.538   1.503  1.2464  0.3087  1.9287
  361TIP3   OH222497   4.305   4.560   3.986  0.2924  0.5789 -0.2710
  361TIP3    H122498   4.244   4.520   3.924 -1.1404  0.7292  0.9627
  361TIP3    H222499   4.251   4.623   4.034  1.6565  1.3688  0.2578
  362TIP3   OH222500   6.354   6.202   5.223  0.3775 -0.6120  0.5378
  362TIP3    H122501   6.389   6.117   5.248  4.9149  1.3040  1.7215
  362TIP3    H222502   6.420   6.239   5.164 -0.1089  2.9595  1.9819
  363TIP3   OH222503   2.927   2.357   2.345  0.0509 -0.2655  0.4588
  363TIP3    H122504   2.885   2.282   2.305 -0.1105 -0.0121  0.1483
  363TIP3    H222505   2.990   2.388   2.280  1.3239 -1.1410  1.2429
  364TIP3   OH222506   0.295   0.311   4.938  0.8606 -0.2037  0.1228
  364TIP3    H122507   0.370   0.288   4.994  0.0757 -0.7312  0.9869
  364TIP3    H222508   0.270   0.399   4.967  1.2485  0.0504 -0.2952
  365TIP3   OH222509   1.047   5.548  14.189 -0.4826 -0.2550  0.0469
  365TIP3    H122510   1.126   5.582  14.230 -0.7712  1.5228 -0.7622
  365TIP3    H222511   0.988   5.623  14.184 -2.4687 -1.6415  1.1035
  366TIP3   OH222512   6.481   0.641  16.805 -0.0104  0.1408  0.0647
  366TIP3    H122513   6.572   0.625  16.827 -0.2569 -1.0963  0.3076
  366TIP3    H222514   6.432   0.580  16.861 -0.8768 -0.3627 -1.1751
  367TIP3   OH222515   4.638   2.831  16.234  0.5206  0.3274 -0.3429
  367TIP3    H122516   4.579   2.783  16.176 -1.3024  1.4231  0.4886
  367TIP3    H222517   4.651   2.771  16.308 -0.6217  0.5473  0.0580
  368TIP3   OH222518   1.872   2.683  12.597 -0.0539 -0.2591  0.7528
  368TIP3    H122519   1.853   2.760  12.651 -1.8066  1.8161 -2.4852
  368TIP3    H222520   1.959   2.654  12.626  0.3615  2.4716  2.6423
  369TIP3   OH222521   1.024   2.015   2.452  0.2206  0.0795 -0.6915
  369TIP3    H122522   1.004   2.069   2.375 -0.4776  0.1284 -0.4779
  369TIP3    H222523   1.112   2.043   2.478 -1.0612  2.9702  0.9455
  370TIP3   OH222524   5.030   6.353   5.326  0.1939 -0.3123 -0.2336
  370TIP3    H122525   4.979   6.330   5.404 -1.0993 -1.1847 -1.2917
  370TIP3    H222526   5.015   6.447   5.315  1.3859  0.0853  1.2279
  371TIP3   OH222527   6.124   6.480  17.096  0.3052 -0.3926  0.2859
  371TIP3    H122528   6.124   6.575  17.087  1.9243 -0.2152  1.7257
  371TIP3    H222529   6.205   6.452  17.054 -0.5181 -1.2440 -0.7900
  372TIP3   OH222530   6.704   4.120   2.764 -0.2177 -0.2831  0.4835
  372TIP3    H122531   6.744   4.056   2.823  2.3316  2.0138  1.4848
  372TIP3    H222532   6.704   4.202   2.814 -0.7144  1.1243 -1.6712
  373TIP3   OH222533   2.022   0.591   0.858 -0.4253  0.6202  0.3333
  373TIP3    H122534   2.007   0.559   0.947  1.0530 -0.8724  0.0904
  373TIP3    H222535   2.114   0.616   0.857 -0.2919  0.1480 -0.9046
  374TIP3   OH222536   4.560   0.760  11.424  0.5636 -0.4074  0.5138
  374TIP3    H122537   4.649   0.783  11.453 -0.0879  0.7540  1.6929
  374TIP3    H222538   4.504   0.780  11.499 -0.8176 -0.2710 -0.5152
  375TIP3   OH222539   6.222   3.627  11.917  0.2167  0.1377  0.6414
  375TIP3    H122540   6.289   3.684  11.955  0.3035  0.7432 -0.3765
  375TIP3    H222541   6.147   3.637  11.975  0.1531  1.4866  0.3634
  376TIP3   OH222542   0.856   0.272   3.488 -0.3306  0.2714  0.6110
  376TIP3    H122543   0.884   0.263   3.397 -1.3315 -0.5612  0.3671
  376TIP3    H222544   0.935   0.298   3.535  0.6531 -1.1278 -0.1852
  377TIP3   OH222545   6.351   5.722  11.141  0.1694  0.2244  0.2405
  377TIP3    H122546   6.411   5.648  11.129  0.2334  0.3071  0.0533
  377TIP3    H222547   6.384   5.766  11.220  0.0283 -0.0443  0.4507
  378TIP3   OH222548   6.314   1.388  17.119 -0.2182  0.1945 -0.1108
  378TIP3    H122549   6.358   1.470  17.142 -0.4238  0.8431 -1.8701
  378TIP3    H222550   6.380   1.338  17.071 -0.2739 -0.4525  0.4569
  379TIP3   OH222551   3.479   5.318   0.575 -0.8604 -0.0529 -0.3419
  379TIP3    H122552   3.431   5.354   0.501 -1.3172  0.7653  0.3353
  379TIP3    H222553   3.457   5.225   0.575 -0.8968 -0.0496 -1.1937
  380TIP3   OH222554   4.586   2.464   5.403  0.7008 -0.7342  0.1923
  380TIP3    H122555   4.546   2.452   5.489  0.9656 -1.2072  0.2530
  380TIP3    H222556   4.679   2.478   5.422  0.3854  2.0164  0.1773
  381TIP3   OH222557   6.355   6.098   2.949  0.8796  0.7820  0.3951
  381TIP3    H122558   6.287   6.136   2.893 -0.8427 -0.5312  1.4920
  381TIP3    H222559   6.419   6.168   2.959 -0.3530  2.1336 -0.5865
  382TIP3   OH222560   1.155   5.892  13.242  0.2348 -0.0976  0.2776
  382TIP3    H122561   1.245   5.887  13.209  0.6026  1.0897  1.0220
  382TIP3    H222562   1.137   5.986  13.248 -1.0247 -0.3267  0.2388
  383TIP3   OH222563   0.466   3.011  15.289  0.3354 -0.0039  0.3962
  383TIP3    H122564   0.384   2.964  15.280  0.6757 -1.1132  2.5072
  383TIP3    H222565   0.463   3.048  15.377  2.0626 -0.0329  0.5047
  384TIP3   OH222566   4.755   5.334   1.471  0.0514  0.3662 -0.3592
  384TIP3    H122567   4.773   5.428   1.484 -1.6652  0.7782 -0.6555
  384TIP3    H222568   4.661   5.331   1.452 -0.0146 -1.4716  0.1119
  385TIP3   OH222569   3.518   0.937   2.452  0.2697  0.0720  0.2680
  385TIP3    H122570   3.587   0.975   2.506  1.2563  0.2427 -1.0417
  385TIP3    H222571   3.503   1.002   2.383 -1.8205  0.4114  0.9641
  386TIP3   OH222572   3.934   4.173  15.525  0.3244 -0.9202  0.0815
  386TIP3    H122573   3.980   4.151  15.444 -0.7798 -0.6428 -0.6581
  386TIP3    H222574   3.900   4.090  15.557 -0.2259 -0.8824 -0.3874
  387TIP3   OH222575   1.222   2.710   4.625  0.2581 -0.5811  0.3857
  387TIP3    H122576   1.284   2.688   4.556 -0.1785 -0.9166  0.0988
  387TIP3    H222577   1.263   2.783   4.671  0.4775 -0.2409 -0.3353
  388TIP3   OH222578   5.025   1.565  16.598  0.3057  0.1191 -0.1763
  388TIP3    H122579   5.070   1.487  16.629 -2.9810 -1.6575  0.5658
  388TIP3    H222580   4.995   1.609  16.678  0.5784  1.1956 -0.6442
  389TIP3   OH222581   5.026   4.500   0.222 -0.2863  0.4797 -0.8610
  389TIP3    H122582   5.119   4.483   0.204 -0.1640  0.3267 -0.1482
  389TIP3    H222583   4.985   4.414   0.218  0.1756  0.0441  1.8858
  390TIP3   OH222584   0.363   6.426  15.299  0.5197  0.1734  0.3756
  390TIP3    H122585   0.304   6.397  15.369  0.3053  2.9579  1.4688
  390TIP3    H222586   0.305   6.454  15.228  0.6208  0.3859  0.3763
  391TIP3   OH222587   1.148   4.907  13.634 -0.6065 -0.3895  0.0773
  391TIP3    H122588   1.091   4.983  13.644  1.1110  1.1752 -1.3792
  391TIP3    H222589   1.224   4.927  13.688  0.4977 -0.3472 -1.4245
  392TIP3   OH222590   4.660   4.702  13.598 -0.2297 -0.0692 -0.0612
  392TIP3    H122591   4.586   4.759  13.613  0.3724  0.5463  0.6257
  392TIP3    H222592   4.684   4.670  13.685  1.7930  1.6450  0.0962
  393TIP3   OH222593   4.626   3.962  12.357  0.0177 -0.0962  0.3308
  393TIP3    H122594   4.662   3.874  12.347  1.6074  0.5893 -0.2715
  393TIP3    H222595   4.702   4.019  12.358 -1.0162  1.3323  0.1751
  394TIP3   OH222596   0.999   5.923  12.302  0.5135  0.0017 -0.5075
  394TIP3    H122597   0.971   6.010  12.328  2.9776  0.7496 -0.1175
  394TIP3    H222598   0.993   5.924  12.206  0.9391  0.7678 -0.5366
  395TIP3   OH222599   3.626   0.035  12.142 -0.1186 -0.1436 -0.7108
  395TIP3    H122600   3.705   0.053  12.193  0.9335  0.9643 -2.6274
  395TIP3    H222601   3.628   0.099  12.071 -1.6660 -1.4252 -1.9850
  396TIP3   OH222602   5.343   2.467  14.731  0.2739  0.5116  0.3470
  396TIP3    H122603   5.402   2.442  14.659  1.4297  1.4154  0.9273
  396TIP3    H222604   5.278   2.523  14.689  0.9410  1.0358 -0.0301
  397TIP3   OH222605   5.101   5.705   1.100  0.7158  0.1880 -0.1610
  397TIP3    H122606   5.059   5.678   1.182 -1.5221  0.0287 -1.2659
  397TIP3    H222607   5.113   5.799   1.110  0.6762  0.1348  0.4399
  398TIP3   OH222608   4.662   5.723  15.682 -0.1981 -0.7656 -0.2690
  398TIP3    H122609   4.696   5.752  15.766 -1.3002  0.2345 -0.1333
  398TIP3    H222610   4.697   5.635  15.670 -1.8611 -1.9056  2.3323
  399TIP3   OH222611   2.996   2.517  15.703  0.4197  0.0084 -0.2529
  399TIP3    H122612   2.986   2.451  15.772 -1.6996  0.8234  0.2991
  399TIP3    H222613   3.072   2.568  15.730  0.1541 -0.2379  1.0461
  400TIP3   OH222614   4.204   1.680  16.494  0.1276 -1.0195 -0.0593
  400TIP3    H122615   4.188   1.748  16.428 -0.0102 -1.0902 -0.0993
  400TIP3    H222616   4.230   1.729  16.572  1.6581 -0.9942 -0.5502
  401TIP3   OH222617   0.972   3.350  12.578  0.2299 -0.2222  0.1447
  401TIP3    H122618   1.041   3.401  12.620  2.5205 -4.0725  1.5658
  401TIP3    H222619   0.897   3.358  12.637  1.7169 -1.2814  2.3317
  402TIP3   OH222620   6.183   1.597   6.560  0.2618  0.5858  0.0678
  402TIP3    H122621   6.116   1.621   6.625 -0.6322  4.3591 -1.9887
  402TIP3    H222622   6.135   1.549   6.493  0.2649  0.5914  0.0615
  403TIP3   OH222623   2.698   4.669  16.353 -0.8266 -0.1736  0.0998
  403TIP3    H122624   2.730   4.642  16.267 -2.1964  0.3730 -0.5997
  403TIP3    H222625   2.708   4.765  16.354 -2.5802  0.0456 -0.2292
  404TIP3   OH222626   1.848   1.032  12.175 -0.4195  0.2051  0.0337
  404TIP3    H122627   1.852   1.116  12.130 -0.4626 -0.1291 -0.6110
  404TIP3    H222628   1.756   1.021  12.197 -0.5959 -0.1645 -0.8522
  405TIP3   OH222629   3.496   3.188  15.678 -0.4082 -0.1612  0.0158
  405TIP3    H122630   3.587   3.168  15.698 -0.1850  1.5381  0.8603
  405TIP3    H222631   3.497   3.218  15.587  0.2011  1.6312  0.5883
  406TIP3   OH222632   4.586   1.932  15.461  0.0474 -0.1631  0.2717
  406TIP3    H122633   4.665   1.982  15.484  0.1702 -0.6561  0.9378
  406TIP3    H222634   4.592   1.853  15.514 -1.1306  0.0082  0.6728
  407TIP3   OH222635   5.866   5.327   4.944  0.1527  0.0238  0.0729
  407TIP3    H122636   5.956   5.298   4.957  0.8046  0.4255 -2.8522
  407TIP3    H222637   5.867   5.420   4.967  0.3139 -0.1088  0.6241
  408TIP3   OH222638   2.631   4.126   1.460 -1.0800 -0.0959  0.1631
  408TIP3    H122639   2.664   4.038   1.478  2.4419  1.0232 -0.2477
  408TIP3    H222640   2.652   4.142   1.368  3.6646  3.0276  1.4332
  409TIP3   OH222641   2.952   3.152  13.979 -1.0242 -0.2751 -0.0001
  409TIP3    H122642   2.993   3.199  13.906 -1.1999  1.7207  1.1233
  409TIP3    H222643   2.866   3.128  13.947 -0.3256 -1.3281 -1.1606
  410TIP3   OH222644   6.390   1.639  13.941  0.4617  0.5282 -0.4855
  410TIP3    H122645   6.398   1.564  14.000  0.2896  1.5895  0.9363
  410TIP3    H222646   6.476   1.646  13.900  0.6809 -0.0579 -0.1369
  411TIP3   OH222647   1.923   6.281   3.468 -0.7167 -0.1085 -0.2605
  411TIP3    H122648   1.839   6.276   3.421 -1.1310  1.9062  0.1395
  411TIP3    H222649   1.898   6.297   3.559  0.0778  0.8024 -0.1866
  412TIP3   OH222650   5.769   5.850  11.846  0.2420 -0.4943 -0.3473
  412TIP3    H122651   5.678   5.860  11.817 -0.1929 -2.3728  0.2453
  412TIP3    H222652   5.798   5.768  11.807  1.7162  0.0683 -0.5109
  413TIP3   OH222653   5.855   0.491   4.699  0.1308  0.2776  0.0068
  413TIP3    H122654   5.803   0.452   4.629 -0.5615 -0.3791  0.8671
  413TIP3    H222655   5.886   0.416   4.750 -1.7668  0.8202  2.0968
  414TIP3   OH222656   2.522   4.299  13.014  0.1676  0.4434  0.3771
  414TIP3    H122657   2.465   4.231  13.051  1.6535 -1.8001 -1.1589
  414TIP3    H222658   2.468   4.340  12.946  0.6691 -2.9071 -2.3787
  415TIP3   OH222659   4.704   3.378   0.444 -0.1161 -0.0533  0.0855
  415TIP3    H122660   4.797   3.358   0.453  0.0294 -0.0313 -1.1249
  415TIP3    H222661   4.689   3.379   0.349 -0.8548  2.1929  0.1633
  416TIP3   OH222662   6.574   5.529  13.976 -0.4411 -0.7724 -0.6512
  416TIP3    H122663   6.563   5.573  14.060  1.7167 -0.7759 -0.3201
  416TIP3    H222664   6.495   5.476  13.966 -2.1307  1.4780 -0.0652
  417TIP3   OH222665   0.495   1.133   3.129  0.0303 -0.0733 -0.4576
  417TIP3    H122666   0.498   1.209   3.186  1.8421 -1.0956  0.9041
  417TIP3    H222667   0.441   1.161   3.054 -1.1904  1.7696  1.0254
  418TIP3   OH222668   2.256   0.317  14.145 -0.0760  0.5233  0.1474
  418TIP3    H122669   2.332   0.351  14.191 -0.1678 -0.0458  0.7347
  418TIP3    H222670   2.227   0.389  14.090  0.0718  1.2027  0.9428
  419TIP3   OH222671   5.283   3.092   4.121  0.0288 -0.2882  0.1852
  419TIP3    H122672   5.353   3.081   4.186  1.3631 -0.5238 -1.2157
  419TIP3    H222673   5.299   3.023   4.057 -0.7047  0.4653 -0.8450
  420TIP3   OH222674   0.538   1.496  12.259  0.3900 -0.3028  0.1069
  420TIP3    H122675   0.587   1.481  12.340 -0.0185 -0.4786  0.3264
  420TIP3    H222676   0.447   1.481  12.283 -0.1252  2.6307  0.3991
  421TIP3   OH222677   0.554   0.078   4.065  0.2409  0.1488 -0.0031
  421TIP3    H122678   0.592  -0.010   4.068  0.3505  0.1786 -0.3961
  421TIP3    H222679   0.461   0.064   4.046  0.0280  0.0713  1.0443
  422TIP3   OH222680   4.773   3.415   5.241 -0.5428  0.2463 -0.3875
  422TIP3    H122681   4.808   3.330   5.268  0.8620  0.5808 -1.0283
  422TIP3    H222682   4.683   3.416   5.274 -0.8581 -1.7940 -1.0534
  423TIP3   OH222683   5.008   1.752   4.035  0.1016  0.1888 -0.1158
  423TIP3    H122684   5.094   1.749   4.076 -0.5192 -1.1485  1.1828
  423TIP3    H222685   5.010   1.683   3.969 -0.0468  0.0028  0.0733
  424TIP3   OH222686   3.151   6.760  10.983 -0.2378  0.3330 -0.2273
  424TIP3    H122687   3.228   6.714  10.948  0.3155  0.7343  0.4383
  424TIP3    H222688   3.186   6.816  11.052 -1.3608 -0.7857  1.3092
  425TIP3   OH222689   2.479   1.822  14.863 -0.4293 -0.2047 -0.0086
  425TIP3    H122690   2.546   1.756  14.879 -0.8227 -0.6780 -0.2873
  425TIP3    H222691   2.458   1.813  14.770 -1.2993 -0.4661  0.2012
  426TIP3   OH222692   3.762   3.935   6.156 -0.0607  0.1124  0.4652
  426TIP3    H122693   3.740   3.946   6.248 -0.6459  2.5239  0.0968
  426TIP3    H222694   3.678   3.925   6.112  0.2722 -2.6837  0.2942
  427TIP3   OH222695   2.997   2.056   4.946 -0.0997 -0.1956  0.2296
  427TIP3    H122696   3.044   2.130   4.909 -1.6758 -0.0039 -1.5257
  427TIP3    H222697   2.997   1.990   4.877 -0.9765 -0.8001  0.7817
  428TIP3   OH222698   0.894   4.876  17.069 -0.2369 -0.6989 -0.5745
  428TIP3    H122699   0.958   4.947  17.063 -1.4964  0.3991 -1.4545
  428TIP3    H222700   0.938   4.801  17.030  2.3137 -1.3950  3.0782
  429TIP3   OH222701   5.862   3.334  12.040  0.5042  0.0326 -0.1829
  429TIP3    H122702   5.895   3.396  12.106 -1.3258 -0.0145  0.8512
  429TIP3    H222703   5.886   3.373  11.956 -3.2928  4.0248  0.2172
  430TIP3   OH222704   1.489   1.545  15.775 -0.0675  0.3530 -0.1781
  430TIP3    H122705   1.435   1.495  15.837  1.3414 -0.8852  0.1207
  430TIP3    H222706   1.431   1.561  15.701 -0.3449 -2.7511 -0.7950
  431TIP3   OH222707   3.024   0.609  16.620 -0.3722  0.5583 -0.1243
  431TIP3    H122708   3.096   0.546  16.609 -0.4646  0.4156  0.0855
  431TIP3    H222709   3.058   0.674  16.681 -0.0228  1.1002 -0.8896
  432TIP3   OH222710   0.786   1.473   1.993 -0.0784 -0.3271  0.1823
  432TIP3    H122711   0.872   1.455   2.031  0.5618 -0.8352 -1.4423
  432TIP3    H222712   0.767   1.563   2.018  0.4517 -0.5363  1.4209
  433TIP3   OH222713   1.758   0.287   5.360  0.3502 -0.0838  0.1803
  433TIP3    H122714   1.768   0.236   5.279  0.6730 -0.1206  0.2413
  433TIP3    H222715   1.833   0.346   5.360 -0.7173  1.3307 -0.5454
  434TIP3   OH222716   6.079   2.996  10.363 -0.2725  0.1232  0.6617
  434TIP3    H122717   6.006   2.949  10.324 -0.2138  0.7428 -0.2157
  434TIP3    H222718   6.157   2.951  10.330 -0.2309 -0.4779  1.5208
  435TIP3   OH222719   2.991   1.746  12.150  0.1190 -0.1602 -0.4729
  435TIP3    H122720   2.909   1.711  12.185  0.9196 -2.4901 -0.7594
  435TIP3    H222721   2.980   1.841  12.153 -2.1554 -0.3977  0.4871
  436TIP3   OH222722   2.202   2.358   2.143 -0.4434 -0.1492 -0.4158
  436TIP3    H122723   2.234   2.303   2.215 -1.9162  0.6391  0.9018
  436TIP3    H222724   2.235   2.445   2.164 -0.4286 -0.0136 -1.0079
  437TIP3   OH222725   1.524   4.640  12.391  0.2186  0.2066 -0.3491
  437TIP3    H122726   1.558   4.554  12.367  2.2269  0.7310  0.4695
  437TIP3    H222727   1.565   4.700  12.329 -0.3511  0.7091 -0.2508
  438TIP3   OH222728   5.655   5.893   2.908 -0.0107  0.1609  0.1922
  438TIP3    H122729   5.739   5.900   2.953 -1.2386  0.6031  2.5544
  438TIP3    H222730   5.643   5.977   2.864  1.2236 -0.2877 -1.0505
  439TIP3   OH222731   3.629   1.744  15.505 -0.0379  0.4263 -0.6527
  439TIP3    H122732   3.629   1.688  15.427 -0.4899  1.1440 -1.1896
  439TIP3    H222733   3.719   1.740  15.538 -0.5763 -2.4465  0.7185
  440TIP3   OH222734   0.636   6.314  15.613  0.0123 -0.3174 -0.7197
  440TIP3    H122735   0.650   6.311  15.519 -2.4876 -0.0212 -1.1896
  440TIP3    H222736   0.592   6.231  15.634 -0.2653 -0.0051  0.0031
  441TIP3   OH222737   1.491   2.827  14.222  0.1472 -0.4628 -0.7894
  441TIP3    H122738   1.398   2.804  14.215 -0.0415 -0.1937  0.4963
  441TIP3    H222739   1.525   2.766  14.288  0.5479  0.3463 -0.2292
  442TIP3   OH222740   1.961   6.514   3.212 -0.2303  0.3731 -0.1153
  442TIP3    H122741   1.907   6.465   3.150 -0.9680  1.1426 -0.1089
  442TIP3    H222742   1.904   6.526   3.289  1.7028 -3.5078  2.2484
  443TIP3   OH222743   0.039   5.445  14.252  0.0507  0.9976  0.2363
  443TIP3    H122744  -0.048   5.482  14.262  0.5151  1.9549  0.9103
  443TIP3    H222745   0.076   5.490  14.176  0.2294  1.1451  0.4091
  444TIP3   OH222746   6.222   6.678  16.543  0.4090  0.4394  0.3496
  444TIP3    H122747   6.234   6.772  16.532 -1.0367  0.7047  0.8906
  444TIP3    H222748   6.175   6.651  16.464 -0.7857  0.5121  1.0180
  445TIP3   OH222749   3.174   1.014  14.186  0.5293  0.4194  0.3393
  445TIP3    H122750   3.137   1.097  14.216  1.2546 -0.2976  3.6128
  445TIP3    H222751   3.105   0.950  14.202 -0.1442  0.3255 -2.4638
  446TIP3   OH222752   5.111   5.007   5.294 -0.2332  0.0642 -0.6762
  446TIP3    H122753   5.068   5.050   5.368  0.9865 -1.3726  0.9558
  446TIP3    H222754   5.059   5.032   5.217 -1.1192  2.2097  0.5378
  447TIP3   OH222755   3.629   4.033  16.751  0.4598  0.1994  0.1081
  447TIP3    H122756   3.647   4.044  16.844  1.6158  1.5854 -0.2396
  447TIP3    H222757   3.704   4.073  16.707 -0.8923  1.2229 -1.4040
  448TIP3   OH222758   3.359   2.821   1.577 -0.4111  0.0396 -0.1042
  448TIP3    H122759   3.283   2.764   1.592  0.5669 -0.5679  3.7861
  448TIP3    H222760   3.424   2.763   1.537 -0.5022 -0.7555  0.8520
  449TIP3   OH222761   6.381   1.463   2.073  0.0641 -0.0993 -0.5017
  449TIP3    H122762   6.379   1.389   2.012 -1.4946  0.6656 -1.4237
  449TIP3    H222763   6.329   1.531   2.030  0.1671  0.9930  1.0342
  450TIP3   OH222764   2.586   2.685   5.835  0.1216 -0.0613 -0.3191
  450TIP3    H122765   2.500   2.685   5.791 -0.2327  1.0136  0.3174
  450TIP3    H222766   2.569   2.728   5.919  1.1324 -0.5651  0.1553
  451TIP3   OH222767   3.071   6.313  11.230  0.2827  0.4528 -0.7572
  451TIP3    H122768   3.117   6.318  11.314 -1.2096 -1.4664  0.2459
  451TIP3    H222769   3.114   6.243  11.182  0.9100  1.3162 -1.4915
  452TIP3   OH222770   4.451   5.877   4.507 -0.1219  0.4716  0.2231
  452TIP3    H122771   4.385   5.930   4.463 -0.3860 -0.7708 -0.9403
  452TIP3    H222772   4.521   5.865   4.442  0.5715  0.5563  0.9390
  453TIP3   OH222773   3.270   5.379  14.023  0.0540 -0.2234  0.1349
  453TIP3    H122774   3.189   5.396  13.975 -0.5441 -0.3627  1.0924
  453TIP3    H222775   3.246   5.383  14.115  1.5763  1.9329  0.5196
  454TIP3   OH222776   4.723   4.113   1.676  0.0183 -0.0427 -0.2982
  454TIP3    H122777   4.652   4.167   1.642  0.9139  0.5867 -1.2255
  454TIP3    H222778   4.681   4.030   1.700 -0.9559  0.1633 -1.2161
  455TIP3   OH222779   6.012   1.526   3.576 -0.2073 -0.7189  0.1626
  455TIP3    H122780   5.986   1.610   3.613  0.7250 -0.7704  0.9443
  455TIP3    H222781   5.967   1.523   3.491 -0.8844  0.2052  0.4729
  456TIP3   OH222782   3.403   2.145   0.215  0.6151 -0.3053 -0.3848
  456TIP3    H122783   3.415   2.232   0.253 -0.4559 -0.0863 -0.5116
  456TIP3    H222784   3.487   2.101   0.228  0.2220 -0.3812  2.5821
  457TIP3   OH222785   5.041   4.302  11.899  0.0292  0.7803 -0.3901
  457TIP3    H122786   5.086   4.373  11.946  1.6441 -0.8607  0.6780
  457TIP3    H222787   5.015   4.240  11.967 -1.3471  0.2991 -1.2980
  458TIP3   OH222788   5.388   0.864  13.535  0.1601 -0.1461 -0.2817
  458TIP3    H122789   5.333   0.886  13.610  0.3120 -1.6478  0.3051
  458TIP3    H222790   5.477   0.885  13.564  0.0031  1.5531 -0.9489
  459TIP3   OH222791   5.110   4.340  11.317  0.1256  0.8046 -0.5953
  459TIP3    H122792   5.101   4.364  11.409 -1.8666  1.2706 -0.8549
  459TIP3    H222793   5.068   4.412  11.270  1.4562  0.7745 -1.9202
  460TIP3   OH222794   3.009   3.843   2.458 -0.5988 -0.4384 -0.1060
  460TIP3    H122795   3.054   3.796   2.528 -1.2965  0.2958  0.8525
  460TIP3    H222796   2.920   3.857   2.490 -0.4706  1.3738 -0.4108
  461TIP3   OH222797   4.763   1.539  12.610  0.5519  0.1392  0.2210
  461TIP3    H122798   4.737   1.463  12.661 -1.9810  0.9120  0.1744
  461TIP3    H222799   4.711   1.534  12.530  2.5506  0.3506 -1.1834
  462TIP3   OH222800   5.466   1.066   3.796  0.1105 -0.4808  0.0888
  462TIP3    H122801   5.519   1.130   3.845 -0.0854 -1.0082  1.0292
  462TIP3    H222802   5.530   1.017   3.745  0.6133 -1.3241  1.4590
  463TIP3   OH222803   4.776   4.007   2.679  0.3353  0.4859 -0.1403
  463TIP3    H122804   4.767   4.045   2.766  0.1357 -0.3871  0.2392
  463TIP3    H222805   4.870   3.999   2.665  0.3814 -1.5811  1.0262
  464TIP3   OH222806   6.525   2.543  12.328  0.0929  0.1444  0.0683
  464TIP3    H122807   6.506   2.474  12.392 -1.7096  2.0058  1.6619
  464TIP3    H222808   6.608   2.581  12.358  0.8354 -0.9145 -0.5320
  465TIP3   OH222809   1.836   5.203  16.565  0.6152 -0.2592 -0.4600
  465TIP3    H122810   1.815   5.252  16.486 -0.3702  0.0770 -0.0149
  465TIP3    H222811   1.907   5.252  16.606 -1.1418  1.5404  0.5862
  466TIP3   OH222812   3.458   5.904  15.977 -0.1164 -0.4087 -0.0005
  466TIP3    H122813   3.473   5.971  16.044  0.5062  1.3507 -1.8228
  466TIP3    H222814   3.365   5.911  15.957 -0.2448 -0.7431  0.4624
  467TIP3   OH222815   6.507   3.003  12.454 -0.4799 -1.0209  0.2913
  467TIP3    H122816   6.505   3.035  12.544 -0.7989  0.9039 -0.3517
  467TIP3    H222817   6.415   2.998  12.429 -0.3819  1.0932 -0.7460
  468TIP3   OH222818   2.329   5.600  15.101  0.6605 -0.7897 -0.1295
  468TIP3    H122819   2.424   5.598  15.114  0.8572 -0.1255 -1.3268
  468TIP3    H222820   2.294   5.552  15.176  1.8726 -0.0995  0.9195
  469TIP3   OH222821   0.823   1.157   4.344 -0.4491  0.3138  0.8096
  469TIP3    H122822   0.903   1.105   4.345 -1.1494 -0.7795  1.8871
  469TIP3    H222823   0.811   1.185   4.435 -0.7319  1.3831  0.4658
  470TIP3   OH222824   3.241   1.522  15.805 -0.6642 -0.3194 -0.0686
  470TIP3    H122825   3.231   1.482  15.892 -0.7250  1.5872  0.8625
  470TIP3    H222826   3.156   1.511  15.764 -0.9126 -0.4659  0.4687
  471TIP3   OH222827   5.820   5.851  17.117 -0.0543 -0.2035  0.0612
  471TIP3    H122828   5.783   5.767  17.145  1.4028 -1.2304 -0.9911
  471TIP3    H222829   5.790   5.862  17.027  0.5652 -0.0821 -0.1364
  472TIP3   OH222830   0.062   0.866  16.709 -0.3925  0.2388 -0.2556
  472TIP3    H122831   0.055   0.945  16.655 -1.1465 -0.4331 -1.1733
  472TIP3    H222832   0.152   0.837  16.698 -0.6678 -0.1700 -1.5953
  473TIP3   OH222833   4.672   6.304   1.894  0.4540  0.3667  0.6374
  473TIP3    H122834   4.710   6.245   1.960  0.5973 -0.5180 -0.2002
  473TIP3    H222835   4.592   6.259   1.866  0.5264  0.6078  0.0380
  474TIP3   OH222836   0.199   1.073  10.904  0.1189 -0.3608  0.7351
  474TIP3    H122837   0.286   1.104  10.927 -0.7000  1.7415  1.2144
  474TIP3    H222838   0.158   1.148  10.859 -1.5658 -1.1614  0.8627
  475TIP3   OH222839   4.800   4.729  11.076  0.8933  0.6315  0.2530
  475TIP3    H122840   4.777   4.699  10.989  2.0597  0.1456  0.0961
  475TIP3    H222841   4.837   4.817  11.062 -0.2916  1.1697  0.4369
  476TIP3   OH222842   3.808   5.047  14.559 -0.5421  0.0702 -0.0386
  476TIP3    H122843   3.791   4.970  14.614 -0.9916  0.5536  0.5156
  476TIP3    H222844   3.885   5.088  14.598  1.0963 -1.2923 -1.6604
  477TIP3   OH222845   3.080   2.737   4.785  0.0148  0.2342 -0.4275
  477TIP3    H122846   3.174   2.745   4.801 -0.2682  1.1196  0.9524
  477TIP3    H222847   3.061   2.805   4.720  0.2341  0.4935 -0.2248
  478TIP3   OH222848   4.175   2.763  13.083  0.0475 -0.2705 -0.0780
  478TIP3    H122849   4.263   2.792  13.058  0.4152 -0.3739  1.0407
  478TIP3    H222850   4.183   2.669  13.098  0.1667 -0.0033  1.6841
  479TIP3   OH222851   6.529   6.779   2.116  0.4583  0.2816  0.3276
  479TIP3    H122852   6.498   6.870   2.119  1.8620  0.8201 -0.5930
  479TIP3    H222853   6.624   6.786   2.118  0.5981 -1.1378 -0.2676
  480TIP3   OH222854   2.767   1.201   2.865 -0.4510  0.3048  0.5048
  480TIP3    H122855   2.783   1.243   2.949  0.6350  0.9715 -0.0171
  480TIP3    H222856   2.672   1.205   2.854 -0.6547 -0.2897  1.9395
  481TIP3   OH222857   0.581   0.481   0.366  0.0939  0.1438 -0.0503
  481TIP3    H122858   0.518   0.409   0.358 -1.5440  1.1090  2.5673
  481TIP3    H222859   0.538   0.555   0.322  0.8795  0.0435 -1.0135
  482TIP3   OH222860   3.877   6.053   2.332 -0.0554  0.0078 -0.3477
  482TIP3    H122861   3.925   6.135   2.342 -0.4441  0.1024  0.8435
  482TIP3    H222862   3.911   5.997   2.402 -0.3189 -0.6052 -0.6978
  483TIP3   OH222863   3.485   4.041   3.339 -0.0962  0.1180  0.0906
  483TIP3    H122864   3.427   4.017   3.412  2.0189 -1.3080  1.4227
  483TIP3    H222865   3.526   3.958   3.313  1.3840  1.0672 -0.7442
  484TIP3   OH222866   2.520   4.672   2.721  0.0211  0.3869 -0.5551
  484TIP3    H122867   2.590   4.711   2.670  0.3038  0.1445 -0.3519
  484TIP3    H222868   2.480   4.745   2.768  0.3764  0.4710 -0.3839
  485TIP3   OH222869   5.173   5.148  15.777 -0.0371  0.0034 -0.5417
  485TIP3    H122870   5.158   5.232  15.820 -0.0787 -0.1997 -0.1505
  485TIP3    H222871   5.098   5.135  15.720  1.8094  2.1376 -3.7701
  486TIP3   OH222872   2.269   3.780  15.012 -0.4812 -0.0269  0.3026
  486TIP3    H122873   2.340   3.834  14.976  0.1617 -0.6742  0.5729
  486TIP3    H222874   2.189   3.826  14.987  0.0713  1.4141  1.1024
  487TIP3   OH222875   0.112   2.265  13.614 -0.2208 -0.2402 -0.1473
  487TIP3    H122876   0.058   2.214  13.675 -1.9074 -0.0663 -1.3982
  487TIP3    H222877   0.167   2.201  13.570 -0.9099 -0.7224 -0.3163
  488TIP3   OH222878   6.425   3.276   3.838 -0.7476  0.2161  0.1717
  488TIP3    H122879   6.521   3.280   3.844 -0.6592 -0.3400 -0.7378
  488TIP3    H222880   6.402   3.197   3.888 -0.9224  1.3685  2.0315
  489TIP3   OH222881   0.699   1.297  12.596  0.6412  0.0829 -0.2068
  489TIP3    H122882   0.766   1.319  12.532 -0.3512  0.8145 -1.0372
  489TIP3    H222883   0.740   1.234  12.655  2.4291  1.4097  0.0391
  490TIP3   OH222884   4.054   1.288  14.292 -0.0298  0.4283 -0.0256
  490TIP3    H122885   4.080   1.300  14.383 -0.3422  0.7209  0.0247
  490TIP3    H222886   3.974   1.341  14.282 -0.6934 -0.5746 -0.1420
  491TIP3   OH222887   4.166   5.509  12.657 -0.0660  0.0353  0.7247
  491TIP3    H122888   4.091   5.485  12.712  0.4183 -2.5157  0.3822
  491TIP3    H222889   4.240   5.465  12.698  1.3435  2.5724  1.1033
  492TIP3   OH222890   2.147   5.248  12.123  0.1643 -0.0462  0.2444
  492TIP3    H122891   2.143   5.158  12.093  0.0273 -0.1819  0.6684
  492TIP3    H222892   2.236   5.258  12.158  0.0791 -0.1001  0.4706
  493TIP3   OH222893   3.195   0.691  15.586  0.0557 -0.4577  0.3824
  493TIP3    H122894   3.185   0.652  15.672  0.3893  0.6060  0.9231
  493TIP3    H222895   3.184   0.785  15.600  1.1109 -0.1649 -0.5479
  494TIP3   OH222896   1.655   3.777   5.092 -0.1962  0.2969 -0.5826
  494TIP3    H122897   1.577   3.829   5.075 -0.1778  1.2756  1.9011
  494TIP3    H222898   1.699   3.823   5.164 -1.3845 -4.2125  3.5388
  495TIP3   OH222899   3.022   4.924  13.943 -0.3220 -0.4180  0.2213
  495TIP3    H122900   3.057   4.836  13.927 -2.6628 -1.1807 -1.1699
  495TIP3    H222901   2.995   4.955  13.857 -1.4565  0.8029  0.9879
  496TIP3   OH222902   5.446   5.340   4.242  0.1137  0.5099  0.0201
  496TIP3    H122903   5.478   5.255   4.272 -0.9486 -0.2531 -0.9049
  496TIP3    H222904   5.389   5.371   4.312 -0.5214 -0.1657 -0.1846
  497TIP3   OH222905   4.159   3.056   1.359  0.5699 -0.1062 -0.6338
  497TIP3    H122906   4.149   2.964   1.334 -4.7837 -0.0701  0.1469
  497TIP3    H222907   4.209   3.053   1.441 -0.8337 -2.6104  0.2480
  498TIP3   OH222908   2.150   5.499   2.593  0.3979 -0.0956  0.1824
  498TIP3    H122909   2.179   5.552   2.519  0.3197  0.1418  0.3227
  498TIP3    H222910   2.172   5.551   2.670  1.5388 -0.8482  0.3801
  499TIP3   OH222911   5.809   1.512   4.951  0.1123  0.3138  0.0369
  499TIP3    H122912   5.772   1.465   4.876  1.2504 -1.8226  0.7557
  499TIP3    H222913   5.890   1.550   4.918 -1.2759  2.7447 -0.8124
  500TIP3   OH222914   2.394   0.873  14.415  0.2252 -0.8315 -0.0249
  500TIP3    H122915   2.375   0.801  14.476 -1.7142 -0.8471 -0.5970
  500TIP3    H222916   2.406   0.949  14.471 -0.3922 -1.0725  0.4424
  501TIP3   OH222917   2.762   1.741   5.968 -0.0580  0.2020 -0.4902
  501TIP3    H122918   2.705   1.697   6.032 -0.3570 -0.2668 -1.0736
  501TIP3    H222919   2.842   1.689   5.969 -0.3314 -0.2390 -1.0210
  502TIP3   OH222920   1.726   5.324   2.254 -0.4890  1.0913 -0.8175
  502TIP3    H122921   1.781   5.307   2.331 -0.9841  3.7675  0.2431
  502TIP3    H222922   1.667   5.249   2.250  0.0291  0.5306  0.9863
  503TIP3   OH222923   4.508   5.878   2.860 -0.0786  0.4775 -0.1013
  503TIP3    H122924   4.454   5.799   2.860  0.0111  0.3994  0.7209
  503TIP3    H222925   4.598   5.846   2.860  0.0021  0.6089 -1.7998
  504TIP3   OH222926   4.604   1.939  14.346  0.2258  0.2281  0.3588
  504TIP3    H122927   4.580   1.917  14.256  1.7589 -0.6021  0.1131
  504TIP3    H222928   4.555   1.877  14.400 -0.1832  0.2905  0.0664
  505TIP3   OH222929   4.772   1.901  15.726 -0.0226  0.7486 -0.0288
  505TIP3    H122930   4.860   1.877  15.697  0.5424  2.2762  0.3266
  505TIP3    H222931   4.734   1.820  15.759  1.5961  0.2444  0.6623
  506TIP3   OH222932   4.070   1.991  16.678 -0.1615 -0.2026  0.0520
  506TIP3    H122933   4.029   2.074  16.704 -1.4842 -0.4314 -1.1862
  506TIP3    H222934   4.116   2.011  16.597  1.3094 -0.2188  0.8522
  507TIP3   OH222935   2.914   1.988  16.299  0.3551  0.3897  0.0693
  507TIP3    H122936   2.882   2.035  16.376  1.2440  0.6295  0.3102
  507TIP3    H222937   2.953   1.908  16.335  2.8307  1.5484  0.1531
  508TIP3   OH222938   2.500   2.875   6.023 -0.1877  0.1751  0.1031
  508TIP3    H122939   2.561   2.938   6.060 -0.5935  0.7443 -0.1883
  508TIP3    H222940   2.443   2.852   6.097 -1.0558  1.3827 -0.1664
  509TIP3   OH222941   3.759   0.410  11.607 -0.2345  0.0176 -0.4688
  509TIP3    H122942   3.747   0.318  11.582  0.6094 -0.4607  0.8126
  509TIP3    H222943   3.853   0.424  11.606 -0.3153  0.6727  0.0240
  510TIP3   OH222944   3.297   4.066   3.008  0.2710  0.4240 -0.0270
  510TIP3    H122945   3.260   4.037   3.092  0.9590 -0.8810 -0.1627
  510TIP3    H222946   3.311   4.160   3.020 -1.7022  0.7020  0.5384
  511TIP3   OH222947   0.242   5.049  13.259  0.2984  0.0843  0.0271
  511TIP3    H122948   0.230   5.141  13.282 -2.5970 -0.3050  0.4312
  511TIP3    H222949   0.258   5.050  13.164  0.5905  1.0049  0.0776
  512TIP3   OH222950   0.882   0.199   5.158  0.3358 -0.0245 -0.2455
  512TIP3    H122951   0.872   0.293   5.143 -0.0912  0.1421  0.9252
  512TIP3    H222952   0.813   0.177   5.221 -2.6984 -2.1054 -3.8810
  513TIP3   OH222953   3.907   6.295  15.384 -0.2033 -0.1126  0.6161
  513TIP3    H122954   3.821   6.252  15.382 -0.5367  0.5622 -0.4260
  513TIP3    H222955   3.959   6.246  15.320 -1.1371  2.0485 -1.9846
  514TIP3   OH222956   2.643   5.196   5.492  0.0801  0.1408 -0.6645
  514TIP3    H122957   2.601   5.264   5.546 -3.9153  0.2752 -3.5189
  514TIP3    H222958   2.668   5.242   5.411  0.0755 -1.2223 -1.4617
  515TIP3   OH222959   5.605   0.213  12.518 -0.1394 -0.0768 -0.1209
  515TIP3    H122960   5.669   0.161  12.470  0.3808  0.8531 -0.4555
  515TIP3    H222961   5.597   0.168  12.603  1.2498 -0.0008  0.0784
  516TIP3   OH222962   5.328   4.115   1.110  0.2529  0.1305 -0.2305
  516TIP3    H122963   5.290   4.128   1.197  1.1999  0.9935  0.0706
  516TIP3    H222964   5.340   4.203   1.076 -0.1663 -0.2036 -1.2732
  517TIP3   OH222965   3.790   1.593   6.251 -0.3373 -0.6869 -0.1461
  517TIP3    H122966   3.817   1.685   6.259  0.3700 -0.9494  0.6514
  517TIP3    H222967   3.856   1.545   6.302 -2.0318 -1.4118  1.4687
  518TIP3   OH222968   3.894   1.924   3.182 -0.0903 -0.0372  0.1067
  518TIP3    H122969   3.951   1.848   3.170 -0.4542 -0.0688 -1.6484
  518TIP3    H222970   3.913   1.953   3.272  1.0082 -1.3954  0.3635
  519TIP3   OH222971   1.610   3.295  16.726  0.2786 -0.5550 -0.0694
  519TIP3    H122972   1.655   3.222  16.686 -1.2020 -0.8903 -1.1971
  519TIP3    H222973   1.519   3.265  16.737  0.0079  0.5375  0.9256
  520TIP3   OH222974   2.319   2.061  12.849  0.5955  0.6191 -0.3997
  520TIP3    H122975   2.224   2.052  12.859  0.7285  1.2850  1.9985
  520TIP3    H222976   2.329   2.140  12.796 -0.1707  0.3568 -0.9633
  521TIP3   OH222977   6.643   0.821  12.362  0.1437 -0.2049 -0.1340
  521TIP3    H122978   6.575   0.758  12.385  1.6855 -1.9140 -0.0374
  521TIP3    H222979   6.650   0.878  12.438 -1.7871  0.6261 -0.5156
  522TIP3   OH222980   4.356   0.521  14.810  0.8608 -0.0461 -0.1424
  522TIP3    H122981   4.413   0.560  14.877  0.7647  1.5364 -0.9147
  522TIP3    H222982   4.279   0.578  14.809 -1.2358 -2.6236  1.4838
  523TIP3   OH222983   3.245   4.316   0.558  0.8094 -0.1504 -0.2750
  523TIP3    H122984   3.174   4.260   0.589  1.5686 -1.8828 -1.4821
  523TIP3    H222985   3.296   4.336   0.635 -0.6916  0.7504  0.5440
  524TIP3   OH222986   3.964   4.192   2.246 -0.0595  0.1780  0.0495
  524TIP3    H122987   3.923   4.275   2.223  0.2352  0.4542  0.5051
  524TIP3    H222988   3.921   4.166   2.328  0.9978  0.7136  0.7957
  525TIP3   OH222989   1.864   3.463   1.161  0.4579 -0.2712  0.5205
  525TIP3    H122990   1.885   3.438   1.251 -0.9469  0.5878  1.1214
  525TIP3    H222991   1.792   3.404   1.136  0.5199 -0.1858  0.1338
  526TIP3   OH222992   4.489   3.967   2.664 -0.3111  0.4870 -0.4143
  526TIP3    H122993   4.449   4.044   2.624  0.2745  0.5365 -0.9202
  526TIP3    H222994   4.583   3.980   2.651 -0.1051  0.4410  0.8592
  527TIP3   OH222995   4.714   1.290  15.624 -0.1196 -0.4933  0.3403
  527TIP3    H122996   4.796   1.275  15.672  0.1200  0.2160  0.1725
  527TIP3    H222997   4.660   1.341  15.684 -0.7527 -1.5996  0.7392
  528TIP3   OH222998   3.130   2.467  11.541 -0.1737 -0.2807 -0.0652
  528TIP3    H122999   3.068   2.442  11.609 -0.6676  1.0512  0.0132
  528TIP3    H223000   3.156   2.385  11.500  0.4527 -1.1814  1.9778
  529TIP3   OH223001   4.908   1.683  13.126  0.4985 -0.6735  0.2749
  529TIP3    H123002   4.978   1.626  13.158 -0.5143 -1.7687  0.5987
  529TIP3    H223003   4.853   1.626  13.073 -0.7123 -0.0816  0.8570
  530TIP3   OH223004   3.586   0.494   3.874 -0.2596  0.0557 -0.6070
  530TIP3    H123005   3.509   0.439   3.856  0.4552 -1.9409  1.9230
  530TIP3    H223006   3.658   0.449   3.830  0.1108 -0.3151  0.3700
  531TIP3   OH223007   3.133   0.739  13.281  0.1364 -0.3880 -0.3366
  531TIP3    H123008   3.039   0.746  13.268  0.2141  1.3324 -0.1685
  531TIP3    H223009   3.164   0.694  13.202 -0.6520  0.4162 -1.1335
  532TIP3   OH223010   1.521   3.342  14.918  0.8040  0.0577  0.1800
  532TIP3    H123011   1.483   3.428  14.900 -0.4641 -0.4772  0.1767
  532TIP3    H223012   1.502   3.291  14.839 -0.7053 -0.9528  1.1489
  533TIP3   OH223013   1.541   2.187  10.579 -0.0805  0.7709  0.3251
  533TIP3    H123014   1.568   2.115  10.523 -0.8616  1.2664 -0.7214
  533TIP3    H223015   1.612   2.251  10.574 -0.2981  0.9645 -0.3965
  534TIP3   OH223016   4.660   0.042   5.894  0.6248 -0.3690  0.0173
  534TIP3    H123017   4.732  -0.014   5.865  0.3788  0.4431 -2.3923
  534TIP3    H223018   4.607   0.056   5.816 -0.5272  1.4394  1.0396
  535TIP3   OH223019   2.797   5.696   2.843 -0.1637  0.2685  0.2540
  535TIP3    H123020   2.829   5.668   2.757  0.8968  0.4442  0.5716
  535TIP3    H223021   2.857   5.767   2.868 -2.7793  2.9741 -0.5548
  536TIP3   OH223022   4.460   1.472  12.653  0.0774  0.3159 -0.8339
  536TIP3    H123023   4.458   1.492  12.747  0.1406 -0.2317 -0.7114
  536TIP3    H223024   4.392   1.527  12.616 -0.2318  0.2394 -0.3997
  537TIP3   OH223025   6.197   2.834   2.777  0.2467  0.2865  0.0967
  537TIP3    H123026   6.107   2.864   2.788  0.3789  0.1037  1.8385
  537TIP3    H223027   6.196   2.744   2.810  0.8574 -0.0872 -0.8562
  538TIP3   OH223028   5.090   2.040   0.000  0.0348 -0.2346  0.4293
  538TIP3    H123029   5.155   1.971   0.015  1.8371  1.2285 -0.3449
  538TIP3    H223030   5.130   2.097  -0.066 -2.4937  0.1638 -0.8588
  539TIP3   OH223031   6.276   6.011   4.869  0.0462 -0.4457  0.1992
  539TIP3    H123032   6.189   5.974   4.885 -0.5272 -0.3282 -2.2976
  539TIP3    H223033   6.307   5.967   4.790  1.3081  1.0888 -0.2059
  540TIP3   OH223034   6.115   3.270  12.436 -0.0922  0.1857  0.9679
  540TIP3    H123035   6.083   3.233  12.518 -2.4251  0.6749  0.3629
  540TIP3    H223036   6.082   3.210  12.369  1.7781 -0.2090  0.3266
  541TIP3   OH223037   2.367   2.949  16.675  0.8301  0.4386  0.0926
  541TIP3    H123038   2.328   3.010  16.612 -0.1379 -0.5824 -0.3273
  541TIP3    H223039   2.340   2.863  16.645  2.0960 -0.2118  0.7340
  542TIP3   OH223040   4.536   4.368  16.392 -0.8714  0.0277 -0.0339
  542TIP3    H123041   4.482   4.301  16.350 -0.8902  1.1932 -2.0075
  542TIP3    H223042   4.544   4.437  16.326  0.5122  1.2460  1.3265
  543TIP3   OH223043   1.574   0.474  16.811  0.3642 -0.4824  0.7407
  543TIP3    H123044   1.656   0.479  16.861  1.2452  0.7673 -0.7482
  543TIP3    H223045   1.515   0.535  16.857  1.2106  0.7664  0.2393
  544TIP3   OH223046   5.951   3.981  16.814  0.1380  0.7075 -0.1609
  544TIP3    H123047   5.924   3.960  16.725 -1.9869 -0.7426  0.7296
  544TIP3    H223048   6.029   3.928  16.829  0.1124  0.4456 -0.9295
  545TIP3   OH223049   5.066   6.142   3.327 -0.0008 -0.4671 -0.4173
  545TIP3    H123050   5.074   6.144   3.232 -2.5996  0.5829 -0.7121
  545TIP3    H223051   4.993   6.082   3.344 -0.2695  0.1658  0.8051
  546TIP3   OH223052   4.755   1.810   1.685 -0.3822 -0.0159 -0.3637
  546TIP3    H123053   4.843   1.789   1.718 -0.1024 -0.8462 -1.5657
  546TIP3    H223054   4.728   1.730   1.640 -2.2949 -0.2392  1.0573
  547TIP3   OH223055   2.368   2.558   3.463  0.3434  0.2827 -0.5402
  547TIP3    H123056   2.352   2.651   3.478  2.2253  0.9688 -2.2686
  547TIP3    H223057   2.356   2.546   3.369  1.9288 -0.7737 -0.6618
  548TIP3   OH223058   3.655   4.530   5.008  0.2164  0.0407  0.4580
  548TIP3    H123059   3.705   4.449   5.008  0.1954  0.0134 -0.4638
  548TIP3    H223060   3.683   4.576   5.087  0.6943 -0.5762  0.6534
  549TIP3   OH223061   4.704   1.771   0.662 -0.5796  0.1808  0.3848
  549TIP3    H123062   4.767   1.828   0.616  0.1261  0.1894  1.3212
  549TIP3    H223063   4.700   1.692   0.609  0.7818 -0.1038  0.6732
  550TIP3   OH223064   1.084   0.618  10.914 -0.1326  0.5336 -0.1824
  550TIP3    H123065   1.002   0.664  10.932 -2.6349 -1.9226 -3.7334
  550TIP3    H223066   1.066   0.527  10.937  1.1186 -0.2653 -2.0704
  551TIP3   OH223067   2.524   2.231  13.767  0.3982  0.0547 -0.0014
  551TIP3    H123068   2.471   2.163  13.725  0.7542 -0.5294  0.4774
  551TIP3    H223069   2.587   2.257  13.700  0.1261  0.0614 -0.2556
  552TIP3   OH223070   5.945   1.462  12.932 -0.0851 -0.0401  0.1700
  552TIP3    H123071   6.040   1.470  12.937  0.0467 -0.5803 -1.0067
  552TIP3    H223072   5.931   1.378  12.888 -1.0531  0.9268 -1.4648
  553TIP3   OH223073   5.798   0.901  15.591  0.2281 -0.5151 -0.1536
  553TIP3    H123074   5.785   0.995  15.594  0.4977 -0.4676 -0.4687
  553TIP3    H223075   5.819   0.882  15.499  1.3419 -0.7272  0.1324
  554TIP3   OH223076   4.217   0.948   2.895  0.2342 -0.4749  0.1632
  554TIP3    H123077   4.141   0.972   2.842  1.2518 -1.0615 -1.6571
  554TIP3    H223078   4.256   1.032   2.920  0.0566 -0.1839 -0.5237
  555TIP3   OH223079   5.361   3.436   2.631  0.5027 -0.7096 -0.0486
  555TIP3    H123080   5.336   3.480   2.712 -0.5531 -2.2935  0.5499
  555TIP3    H223081   5.297   3.466   2.567  0.4748 -0.5254  0.0651
  556TIP3   OH223082   6.564   0.197   5.713 -0.1352  0.0493 -0.0546
  556TIP3    H123083   6.555   0.115   5.762 -0.7194 -0.5173 -1.0671
  556TIP3    H223084   6.489   0.250   5.742 -0.9574 -0.6065 -0.9028
  557TIP3   OH223085   0.850   2.752  10.378  0.5172 -0.2224  0.1293
  557TIP3    H123086   0.855   2.662  10.345  0.2004  0.0038 -0.5486
  557TIP3    H223087   0.928   2.762  10.433 -0.3216 -1.4654  1.6323
  558TIP3   OH223088   3.087   2.960   6.526 -0.1578 -0.2760 -0.0927
  558TIP3    H123089   3.123   3.048   6.531 -0.2660 -0.2598  0.4620
  558TIP3    H223090   3.015   2.959   6.590  0.0240 -0.8439  0.1121
  559TIP3   OH223091   5.493   3.171  14.473  0.8407  0.0159 -0.6231
  559TIP3    H123092   5.504   3.215  14.388 -1.2958  0.3199 -0.7974
  559TIP3    H223093   5.398   3.163  14.483  1.1126 -2.8985  0.2975
  560TIP3   OH223094   3.932   0.762  14.194 -0.3073 -0.4725 -0.4683
  560TIP3    H123095   3.954   0.669  14.189 -0.2734 -0.4298 -1.1216
  560TIP3    H223096   4.003   0.800  14.246 -1.0985 -1.0494  1.1016
  561TIP3   OH223097   5.520   3.207  17.058 -0.1549 -0.1342 -0.3696
  561TIP3    H123098   5.472   3.139  17.105 -0.3954  0.4630  0.2631
  561TIP3    H223099   5.499   3.288  17.104  0.3373  0.3377 -0.9513
  562TIP3   OH223100   0.094   4.391  12.799  0.1377  0.2701  0.3428
  562TIP3    H123101   0.182   4.377  12.765  0.1214 -0.6358  0.6670
  562TIP3    H223102   0.046   4.430  12.725  1.3548  2.8557  0.8197
  563TIP3   OH223103   1.007   1.387  11.888 -0.2681 -0.3449 -0.5722
  563TIP3    H123104   1.087   1.421  11.847 -0.3493  0.7908  0.1786
  563TIP3    H223105   0.996   1.300  11.849 -0.3779  0.6677 -2.9844
  564TIP3   OH223106   0.081   3.868  13.702  0.0354 -0.4550  0.3481
  564TIP3    H123107   0.073   3.952  13.657 -0.6434 -0.9823 -0.5339
  564TIP3    H223108   0.034   3.881  13.785 -2.7620 -0.8464 -1.0562
  565TIP3   OH223109   4.379   2.250   5.111  0.2903  0.2589  0.0622
  565TIP3    H123110   4.312   2.244   5.179  0.0105 -0.4739 -0.2680
  565TIP3    H223111   4.383   2.344   5.090 -1.2129  0.2417 -0.4660
  566TIP3   OH223112   5.577   3.881  12.787 -0.1938 -0.5086 -0.5591
  566TIP3    H123113   5.650   3.931  12.750  1.1237 -1.1707  1.0145
  566TIP3    H223114   5.573   3.802  12.734 -0.4061 -0.0403 -1.2538
  567TIP3   OH223115   0.444   3.025   4.424 -0.8737 -0.3250 -0.1269
  567TIP3    H123116   0.453   3.010   4.518 -1.3491 -0.7123 -0.1413
  567TIP3    H223117   0.478   2.945   4.383  1.3967  0.6839 -0.3696
  568TIP3   OH223118   2.728   2.734  11.618  0.3284  0.5296  0.0457
  568TIP3    H123119   2.767   2.700  11.538  0.5751  0.4518  0.1977
  568TIP3    H223120   2.803   2.758  11.673  0.1682  1.4493 -0.1110
  569TIP3   OH223121   1.579   3.015   1.811 -0.0851 -0.2591 -0.2331
  569TIP3    H123122   1.579   3.020   1.716  0.5030  1.5407 -0.1709
  569TIP3    H223123   1.515   3.081   1.839 -0.3678 -0.8776  0.6163
  570TIP3   OH223124   0.389   2.976   1.095  0.2140  0.1891  0.0822
  570TIP3    H123125   0.303   3.018   1.099 -0.8087 -1.6837 -1.0533
  570TIP3    H223126   0.450   3.047   1.076 -1.1312  1.4694  0.4200
  571TIP3   OH223127   0.455   6.252  10.473 -0.3923 -1.1096 -0.1123
  571TIP3    H123128   0.378   6.244  10.418 -1.0905 -1.2386  0.8630
  571TIP3    H223129   0.472   6.163  10.504 -0.1210 -1.0086  0.0371
  572TIP3   OH223130   4.138   4.391   5.048 -1.1394  0.0236  0.0616
  572TIP3    H123131   4.100   4.393   5.136 -1.4785  3.0525 -0.0679
  572TIP3    H223132   4.079   4.335   4.998 -2.0289 -0.1967  1.2928
  573TIP3   OH223133   0.078   5.065   4.833 -0.4616 -0.2615 -0.3572
  573TIP3    H123134   0.161   5.044   4.876  0.1543 -0.5107 -1.6172
  573TIP3    H223135   0.097   5.142   4.779 -1.1888 -0.0064 -0.2676
  574TIP3   OH223136   0.080   4.095  15.629 -0.4894  0.1459 -0.3184
  574TIP3    H123137   0.038   4.012  15.604 -0.4620 -0.7020  2.1519
  574TIP3    H223138   0.173   4.080  15.613 -0.5841  0.0967 -0.8523
  575TIP3   OH223139   5.131   6.124  17.058  0.1511 -0.2314  0.1380
  575TIP3    H123140   5.125   6.138  17.153  0.4774 -0.8544  0.2528
  575TIP3    H223141   5.116   6.031  17.046  2.8967 -0.7218 -0.1393
  576TIP3   OH223142   0.495   2.530  11.665  0.3853  0.3479 -0.1972
  576TIP3    H123143   0.532   2.598  11.609  1.3819  0.7938  0.9652
  576TIP3    H223144   0.571   2.480  11.696 -0.0387  0.6262  1.3959
  577TIP3   OH223145   3.613   0.564   4.656 -0.3956 -0.3042 -0.4475
  577TIP3    H123146   3.646   0.603   4.576 -0.8064 -1.0764 -1.0109
  577TIP3    H223147   3.583   0.638   4.709 -0.0090  0.2170 -0.9538
  578TIP3   OH223148   4.040   4.357  14.290 -0.3369 -0.3064  0.4789
  578TIP3    H123149   3.968   4.402  14.245 -0.0380 -1.6890 -1.5128
  578TIP3    H223150   4.004   4.335  14.375 -2.1113 -0.4700 -0.2667
  579TIP3   OH223151   3.823   3.972   2.738  0.3621 -0.0482 -1.0114
  579TIP3    H123152   3.862   3.887   2.716 -1.1078 -0.7101 -1.1998
  579TIP3    H223153   3.898   4.027   2.763  1.2727 -1.6603  0.0273
  580TIP3   OH223154   3.451   2.627  10.907 -0.1203 -0.2732  0.0938
  580TIP3    H123155   3.453   2.696  10.841  0.8642  0.3952  0.7957
  580TIP3    H223156   3.363   2.590  10.900 -1.0040  1.6438  0.2819
  581TIP3   OH223157   1.587   5.756  11.791  0.1986 -0.0695 -0.3849
  581TIP3    H123158   1.605   5.720  11.704  0.2746  0.8426 -0.7493
  581TIP3    H223159   1.498   5.726  11.811  0.3997 -0.7765 -0.5182
  582TIP3   OH223160   2.970   1.124   1.197 -0.2224 -0.2358  0.4420
  582TIP3    H123161   2.902   1.058   1.181 -0.5487  0.1484  0.1972
  582TIP3    H223162   2.992   1.114   1.289 -1.7665  0.6714  0.9652
  583TIP3   OH223163   4.012   1.678   3.135  0.0976  0.0262 -0.6300
  583TIP3    H123164   4.102   1.686   3.166 -0.1111 -1.5492  0.5259
  583TIP3    H223165   4.017   1.618   3.061 -0.2138 -1.8626  0.8127
  584TIP3   OH223166   6.725   0.547   3.646 -0.2297  0.1720  0.2529
  584TIP3    H123167   6.817   0.523   3.659 -0.0562  1.5623  1.8489
  584TIP3    H223168   6.692   0.566   3.733 -1.9175  0.1795 -0.3533
  585TIP3   OH223169   4.429   2.273   1.168  0.2541 -0.2637 -0.5257
  585TIP3    H123170   4.426   2.355   1.216 -0.2864 -0.0568 -0.9142
  585TIP3    H223171   4.341   2.261   1.133 -0.3724 -2.1393  1.4033
  586TIP3   OH223172   4.974   1.912   1.413 -0.1703  0.0749 -0.2178
  586TIP3    H123173   4.970   1.887   1.506 -1.0439 -0.0529 -0.2815
  586TIP3    H223174   4.996   1.831   1.367  0.1150  0.1063 -0.1385
  587TIP3   OH223175   4.709   2.501   6.025  0.2739  0.2693 -0.1760
  587TIP3    H123176   4.765   2.489   5.949  0.4625 -0.4703  0.0652
  587TIP3    H223177   4.767   2.536   6.093  0.4598 -0.5132  0.0791
  588TIP3   OH223178   2.825   0.875  16.854 -0.6692  0.0550  0.4956
  588TIP3    H123179   2.847   0.782  16.854 -0.6597  0.0499 -0.1118
  588TIP3    H223180   2.786   0.890  16.767  0.2654  0.8328  0.1950
  589TIP3   OH223181   6.776   5.287   2.339  0.2211  0.4170 -0.0616
  589TIP3    H123182   6.711   5.347   2.374  0.2390  0.0494  0.6018
  589TIP3    H223183   6.831   5.342   2.282 -0.3494  0.8273 -0.2222
  590TIP3   OH223184   0.552   1.859   2.761  0.2708  0.5406  0.4806
  590TIP3    H123185   0.527   1.771   2.786  0.0573  0.9568  1.7985
  590TIP3    H223186   0.470   1.906   2.749  0.0228 -0.6253 -5.3404
  591TIP3   OH223187   2.803   0.644  16.049  0.2267  0.1349 -0.3301
  591TIP3    H123188   2.789   0.556  16.014  1.0272  0.1759 -0.7859
  591TIP3    H223189   2.860   0.630  16.126 -0.7991  0.1305  0.4529
  592TIP3   OH223190   0.712   2.732  13.718 -0.2693 -0.0263 -0.3765
  592TIP3    H123191   0.721   2.652  13.769  1.9006  0.7807  0.5973
  592TIP3    H223192   0.654   2.787  13.769 -1.4780 -0.7806 -0.8761
  593TIP3   OH223193   1.962   3.279   0.727  0.0419 -0.1861  0.0344
  593TIP3    H123194   1.999   3.346   0.785  0.0266  0.1523 -0.3396
  593TIP3    H223195   1.892   3.239   0.778  1.7634 -1.7628  1.2742
  594TIP3   OH223196   5.174   5.052   0.177 -0.1657  1.1704  0.1913
  594TIP3    H123197   5.239   5.102   0.227  1.0387  0.7529 -0.8780
  594TIP3    H223198   5.176   4.964   0.216  0.6993  0.8736 -0.4752
  595TIP3   OH223199   2.799   4.825  14.253  0.1633 -0.3369  0.2865
  595TIP3    H123200   2.748   4.865  14.183 -1.0854  0.2137  1.4742
  595TIP3    H223201   2.881   4.874  14.254  0.2602 -0.4534 -0.8674
  596TIP3   OH223202   6.242   1.924  10.460 -0.7022 -0.0983  0.1204
  596TIP3    H123203   6.250   2.013  10.425  0.6334 -0.0582  0.4511
  596TIP3    H223204   6.156   1.894  10.431  0.0603  0.1383 -2.7250
  597TIP3   OH223205   2.058   2.880   2.602  0.8543 -0.3873  0.1562
  597TIP3    H123206   2.069   2.975   2.599 -0.8123 -0.1856 -0.7460
  597TIP3    H223207   2.075   2.852   2.512 -0.0669 -0.7507  0.0885
  598TIP3   OH223208   0.011   6.668   2.725  0.0224  0.2182  0.4350
  598TIP3    H123209   0.010   6.687   2.631  2.9749 -4.7792 -0.9311
  598TIP3    H223210   0.091   6.710   2.757  0.8813 -0.9326 -0.1445
  599TIP3   OH223211   4.708   5.639   4.077 -0.1071  0.1958 -0.4308
  599TIP3    H123212   4.760   5.680   4.145  0.0380 -0.2931 -0.2446
  599TIP3    H223213   4.768   5.629   4.003  0.1173 -0.5178 -0.1600
  600TIP3   OH223214   3.467   4.583   0.322  0.0673  0.1701  0.1838
  600TIP3    H123215   3.509   4.588   0.408  1.7020 -1.0619 -0.5122
  600TIP3    H223216   3.539   4.580   0.260 -1.0835  1.6190 -1.3213
  601TIP3   OH223217   5.888   4.891  15.011 -0.1094  0.5699 -0.3099
  601TIP3    H123218   5.979   4.917  14.993 -0.3642  0.7077 -1.4537
  601TIP3    H223219   5.888   4.867  15.104  1.5592 -1.3044 -0.7122
  602TIP3   OH223220   0.180   2.985  15.700 -0.0555  0.5311  0.3301
  602TIP3    H123221   0.212   2.922  15.636 -1.2015  0.3881 -0.1319
  602TIP3    H223222   0.161   3.064  15.649 -1.1212  0.3649  0.4463
  603TIP3   OH223223   6.339   6.688   2.554 -0.1101  0.0369 -0.3633
  603TIP3    H123224   6.388   6.646   2.483 -0.2576  0.6741 -0.8589
  603TIP3    H223225   6.405   6.742   2.598  0.5120 -2.0290  1.4159
  604TIP3   OH223226   1.250   4.711   5.656 -0.3935  0.4441  0.2149
  604TIP3    H123227   1.273   4.738   5.745  0.1371  0.7208 -0.0020
  604TIP3    H223228   1.160   4.679   5.663 -0.3400  0.4268  0.8578
  605TIP3   OH223229   3.211   1.138   1.063  0.2647  0.4226 -0.1586
  605TIP3    H123230   3.179   1.125   0.973 -0.2935  1.8104 -0.1955
  605TIP3    H223231   3.132   1.139   1.117  0.6091 -0.5382  0.3740
  606TIP3   OH223232   4.624   4.780   3.274  0.2339 -0.5184  0.3092
  606TIP3    H123233   4.628   4.856   3.216  0.9258  0.1712  1.2254
  606TIP3    H223234   4.632   4.704   3.216 -2.7423 -0.0431 -0.8996
  607TIP3   OH223235   4.656   1.340   2.657  0.1005 -0.5647 -0.1360
  607TIP3    H123236   4.677   1.333   2.750  1.1667 -0.3135 -0.3425
  607TIP3    H223237   4.621   1.254   2.633 -0.0361 -0.6777  0.4605
  608TIP3   OH223238   4.331   3.640   4.026  0.4512  0.5468 -0.0993
  608TIP3    H123239   4.324   3.563   3.969  1.9269  1.0726 -1.0442
  608TIP3    H223240   4.379   3.608   4.103 -0.2502  0.1903  0.2040
  609TIP3   OH223241   3.077   4.114   4.235 -0.3869 -0.0805 -0.4591
  609TIP3    H123242   2.997   4.165   4.222 -0.3609  0.2880  0.7710
  609TIP3    H223243   3.048   4.023   4.225 -0.2250  0.0952 -3.7853
  610TIP3   OH223244   0.564   0.010  14.699 -0.1677  0.2872  0.6839
  610TIP3    H123245   0.571  -0.083  14.721 -0.1981 -0.3706 -1.8096
  610TIP3    H223246   0.624   0.022  14.626  0.0534  2.3267  1.1449
  611TIP3   OH223247   1.077   6.195   2.606  0.2601 -0.3176  0.3330
  611TIP3    H123248   0.997   6.144   2.621 -0.0029 -0.2761 -0.8524
  611TIP3    H223249   1.134   6.135   2.558 -0.4000  0.7477 -1.8976
  612TIP3   OH223250   1.602   1.394  13.866  0.1740  0.3728 -0.0246
  612TIP3    H123251   1.520   1.352  13.891  0.4080  0.8326  1.6595
  612TIP3    H223252   1.581   1.442  13.786 -0.9030 -0.3833 -0.2212
  613TIP3   OH223253   0.085   0.419   5.573  0.0380 -0.3918  0.0365
  613TIP3    H123254   0.001   0.458   5.551 -1.0155 -1.9290  1.1694
  613TIP3    H223255   0.073   0.383   5.661  1.4793 -1.7415 -0.2751
  614TIP3   OH223256   1.247   5.337   2.174 -0.3542 -0.7818  0.5377
  614TIP3    H123257   1.162   5.363   2.137 -0.6787 -0.7947  1.2514
  614TIP3    H223258   1.253   5.244   2.157  0.5024 -0.4070 -1.4237
  615TIP3   OH223259   2.616   0.074   1.728 -0.4632  0.9570 -0.4567
  615TIP3    H123260   2.584   0.024   1.803 -1.6161  2.0040 -0.2227
  615TIP3    H223261   2.710   0.084   1.745 -0.0377 -1.6965 -0.8778
  616TIP3   OH223262   1.189   5.417   1.359  0.3333  0.0788  0.1910
  616TIP3    H123263   1.223   5.503   1.333  0.1896 -0.2932 -1.3032
  616TIP3    H223264   1.240   5.395   1.437  1.4532  0.8451 -0.2871
  617TIP3   OH223265   2.155   0.568  12.293  0.6902 -0.3948 -0.0456
  617TIP3    H123266   2.207   0.552  12.372 -0.3496  0.0308  0.7653
  617TIP3    H223267   2.118   0.655  12.306  0.0302 -0.5595 -0.7327
  618TIP3   OH223268   1.593   5.007  12.610  0.1431  0.2416 -0.2452
  618TIP3    H123269   1.634   5.079  12.659 -0.7261 -0.3720  1.4876
  618TIP3    H223270   1.605   4.931  12.666 -0.4428 -0.6152 -1.2592
  619TIP3   OH223271   0.537   3.566  15.334 -0.1922 -0.5747 -0.2508
  619TIP3    H123272   0.451   3.604  15.351 -0.6246 -1.4880 -0.3530
  619TIP3    H223273   0.520   3.473  15.319  0.6670 -0.5452 -1.5333
  620TIP3   OH223274   4.319   5.025  14.016 -0.3605 -0.0030  0.1395
  620TIP3    H123275   4.276   5.037  13.932 -1.4241 -1.4266  0.4518
  620TIP3    H223276   4.413   5.028  13.996 -0.5945 -0.9638 -1.2038
  621TIP3   OH223277   2.227   6.376   0.645  0.6149  0.0289  0.1521
  621TIP3    H123278   2.152   6.432   0.625 -0.4209 -1.5811 -0.6775
  621TIP3    H223279   2.248   6.334   0.561  0.2012 -2.1432  1.0717
  622TIP3   OH223280   4.341   6.446  13.598 -0.0937 -0.3021  0.3172
  622TIP3    H123281   4.385   6.474  13.678 -0.3956  0.4977  0.2135
  622TIP3    H223282   4.352   6.351  13.597 -2.6104 -0.7724  2.8746
  623TIP3   OH223283   3.992   5.307   5.699 -0.0218  0.2960  0.5470
  623TIP3    H123284   3.990   5.325   5.793  2.3137 -1.6464  1.0648
  623TIP3    H223285   4.084   5.293   5.678 -0.4302  0.9046 -2.1245
  624TIP3   OH223286   6.755   5.934  11.552 -0.2264 -0.3937 -0.7333
  624TIP3    H123287   6.760   5.963  11.643  0.1321 -0.2544 -0.7958
  624TIP3    H223288   6.666   5.900  11.542 -0.7870  1.0366 -0.7600
  625TIP3   OH223289   5.160   3.548   3.902 -0.1451  0.2922  0.3269
  625TIP3    H123290   5.105   3.625   3.890  0.4687  0.6233 -0.4873
  625TIP3    H223291   5.218   3.548   3.826  0.7691 -0.2159  0.9940
  626TIP3   OH223292   0.497   1.722  15.576 -0.2714  0.7631 -0.0470
  626TIP3    H123293   0.495   1.683  15.663  0.8410 -0.1692 -0.4087
  626TIP3    H223294   0.508   1.816  15.592  1.2062  0.4780  0.8404
  627TIP3   OH223295   0.847   4.840  12.174 -0.2542 -0.7021 -0.4837
  627TIP3    H123296   0.821   4.905  12.108 -1.2982 -0.5095  0.0959
  627TIP3    H223297   0.798   4.864  12.252  0.7919 -1.0675  0.3153
  628TIP3   OH223298   2.729   2.629   2.750 -0.1297 -0.2859  0.3221
  628TIP3    H123299   2.801   2.640   2.688  0.3636 -0.2557  0.8914
  628TIP3    H223300   2.710   2.717   2.781 -0.6763 -0.2440 -0.1096
  629TIP3   OH223301   1.701   4.169  15.134  0.5000  0.2299 -0.4416
  629TIP3    H123302   1.626   4.190  15.080 -0.8030  0.4819  1.3694
  629TIP3    H223303   1.664   4.141  15.218  2.4015  1.7480  1.0236
  630TIP3   OH223304   6.577   4.815   3.197 -0.0668 -0.1867  0.0361
  630TIP3    H123305   6.534   4.741   3.153 -0.4383  1.3030 -2.2706
  630TIP3    H223306   6.670   4.796   3.189 -0.1590 -1.3462  1.2802
  631TIP3   OH223307   2.052   5.364   2.174 -0.0350  0.1612 -0.0859
  631TIP3    H123308   2.021   5.298   2.236 -1.7322 -0.2264 -1.2594
  631TIP3    H223309   2.124   5.322   2.127  1.4290  0.5435  1.7172
  632TIP3   OH223310   2.411   1.094  14.554  0.1962  0.0952  0.0828
  632TIP3    H123311   2.421   1.182  14.518 -1.9022  1.7956  3.1867
  632TIP3    H223312   2.494   1.076  14.598  0.3523  0.8854  0.1306
  633TIP3   OH223313   3.691   5.324   3.014 -0.3562 -0.4194 -0.0865
  633TIP3    H123314   3.639   5.257   3.058 -0.8115  1.0736  1.7321
  633TIP3    H223315   3.697   5.396   3.076  2.9987 -0.0630 -0.6101
  634TIP3   OH223316   3.051   1.938   4.664  0.2834 -0.1064  0.2255
  634TIP3    H123317   3.002   2.006   4.618 -0.1127 -0.8321 -0.4469
  634TIP3    H223318   3.142   1.953   4.638  0.1435 -0.1084 -0.2668
  635TIP3   OH223319   2.463   6.445  12.711 -0.3204 -0.2494  0.1982
  635TIP3    H123320   2.487   6.484  12.627  0.0944  1.1577  0.9403
  635TIP3    H223321   2.467   6.517  12.774  1.0076 -1.5738  1.7547
  636TIP3   OH223322   0.657   2.330   3.231 -0.2273  0.1451 -0.0230
  636TIP3    H123323   0.749   2.345   3.254 -0.6184 -0.0423  1.8020
  636TIP3    H223324   0.656   2.247   3.185  0.5042  0.0904  0.0553
  637TIP3   OH223325   6.653   6.170  11.429  0.0983 -0.5906 -0.2820
  637TIP3    H123326   6.668   6.079  11.458  0.2449 -0.3920  0.2732
  637TIP3    H223327   6.612   6.161  11.344 -0.3677 -1.1940 -0.0014
  638TIP3   OH223328   5.353   3.853  11.848 -0.0054 -0.1645  0.1381
  638TIP3    H123329   5.325   3.849  11.940  0.3193 -1.5723  0.1923
  638TIP3    H223330   5.411   3.778  11.837  1.8984  1.3410 -0.6097
  639TIP3   OH223331   0.645   2.486  13.482 -0.3928  0.3458 -0.6462
  639TIP3    H123332   0.643   2.418  13.550  1.9029  1.3806  0.5647
  639TIP3    H223333   0.570   2.541  13.501 -1.3471 -0.9051 -0.6484
  640TIP3   OH223334   3.859   3.568   0.056  0.5446  0.1120  0.2795
  640TIP3    H123335   3.763   3.572   0.061  0.5603  1.1382 -0.0005
  640TIP3    H223336   3.888   3.577   0.146  0.3916  0.5760  0.2856
  641TIP3   OH223337   5.318   2.992   2.424 -0.0308 -0.2945  0.5369
  641TIP3    H123338   5.312   3.087   2.422 -0.5219 -0.1715 -4.0564
  641TIP3    H223339   5.410   2.973   2.403 -0.2569 -0.7424 -0.1008
  642TIP3   OH223340   6.502   5.557  14.488  0.4852 -0.1277 -0.5305
  642TIP3    H123341   6.504   5.628  14.553 -0.9117 -0.9213  0.4410
  642TIP3    H223342   6.562   5.491  14.522 -0.5012 -0.6898  0.1735
  643TIP3   OH223343   0.750   4.973  14.657  0.0694 -0.2679  0.0891
  643TIP3    H123344   0.706   5.036  14.713 -1.5023 -0.6018 -0.6969
  643TIP3    H223345   0.760   5.018  14.573  2.3268  0.2019  0.5395
  644TIP3   OH223346   5.694   3.722   1.447  0.2346  0.2312 -0.1361
  644TIP3    H123347   5.667   3.656   1.511 -0.3910  1.2666  0.7012
  644TIP3    H223348   5.620   3.728   1.387  0.2638  0.2151 -0.1739
  645TIP3   OH223349   3.235   3.109  15.268 -0.0599  0.1719 -0.0965
  645TIP3    H123350   3.299   3.065  15.325  0.0140 -0.5810 -0.7420
  645TIP3    H223351   3.168   3.042  15.252  0.5935 -0.0870 -1.9528
  646TIP3   OH223352   0.775   4.631  11.182 -0.2576  0.1262  0.0375
  646TIP3    H123353   0.845   4.567  11.195 -0.1541  0.0702 -0.7614
  646TIP3    H223354   0.737   4.642  11.269 -1.4998 -2.4205 -0.0797
  647TIP3   OH223355   0.233   6.476   1.925 -0.5100  0.0193 -0.1912
  647TIP3    H123356   0.212   6.467   2.018 -0.0640  1.6248  0.1005
  647TIP3    H223357   0.148   6.471   1.881 -0.7266 -0.7196  0.2912
  648TIP3   OH223358   6.533   2.285  10.943 -0.0693  0.6114 -0.0278
  648TIP3    H123359   6.531   2.196  10.907 -0.1016  0.4121  0.4518
  648TIP3    H223360   6.529   2.272  11.038  1.3484  1.0692  0.1081
  649TIP3   OH223361   3.820   6.587  11.232  0.0552  0.4581  0.5147
  649TIP3    H123362   3.914   6.567  11.234  0.1751  0.6838 -1.2168
  649TIP3    H223363   3.812   6.667  11.284  1.5978  3.0205 -2.7958
  650TIP3   OH223364   2.784   4.392  15.792  0.1920  0.0081 -0.9573
  650TIP3    H123365   2.752   4.437  15.714  0.2734 -1.7962 -2.0994
  650TIP3    H223366   2.707   4.386  15.849  0.2020  1.5905 -0.7394
  651TIP3   OH223367   1.898   6.515   0.700 -0.6410 -0.0111 -0.3233
  651TIP3    H123368   1.869   6.595   0.657 -1.8259 -0.4649 -0.4184
  651TIP3    H223369   1.967   6.543   0.760 -1.1613  1.1165 -0.2179
  652TIP3   OH223370   2.638   4.631  11.882  0.2093 -0.4561  0.1216
  652TIP3    H123371   2.694   4.613  11.807 -0.6446  0.3923 -0.7495
  652TIP3    H223372   2.661   4.720  11.908  0.3838 -0.6863  0.7698
  653TIP3   OH223373   3.925   1.526  15.734  0.1548  0.1051  0.4299
  653TIP3    H123374   3.867   1.527  15.810 -0.6771  0.4644 -0.1981
  653TIP3    H223375   4.013   1.535  15.771 -0.2275  0.1750  1.3516
  654TIP3   OH223376   3.204   0.382  15.882 -0.3608  0.5689 -0.5354
  654TIP3    H123377   3.282   0.427  15.851 -0.0710  1.2354  1.1033
  654TIP3    H223378   3.234   0.328  15.955 -0.7078 -2.2841 -2.3007
  655TIP3   OH223379   5.107   5.492   1.882 -0.5565 -0.2841 -0.4598
  655TIP3    H123380   5.087   5.564   1.942 -0.8783  0.0428 -0.9591
  655TIP3    H223381   5.098   5.413   1.936  1.1980  0.0994  0.4740
  656TIP3   OH223382   3.768   5.495  12.087  0.2681 -0.0837  0.0557
  656TIP3    H123383   3.723   5.571  12.122  1.2697 -0.2328  1.8185
  656TIP3    H223384   3.861   5.512  12.104  0.6625 -0.9301 -1.1121
  657TIP3   OH223385   3.497   2.448   4.954 -0.4254  0.2405  0.3993
  657TIP3    H123386   3.552   2.419   4.881 -1.5757  0.6251 -0.6544
  657TIP3    H223387   3.494   2.372   5.013 -0.9006 -0.7193 -0.8193
  658TIP3   OH223388   1.635   5.085  12.328 -0.2716 -0.0894  0.6873
  658TIP3    H123389   1.603   5.051  12.411  0.8564 -2.2246  0.3241
  658TIP3    H223390   1.560   5.077  12.268 -0.4025 -0.7808  0.9361
  659TIP3   OH223391   5.506   1.957  15.617 -0.1281  0.5489  0.6584
  659TIP3    H123392   5.443   1.974  15.687  0.4127 -0.2122  1.3371
  659TIP3    H223393   5.457   1.905  15.553 -0.4307  0.6929  0.7704
  660TIP3   OH223394   6.707   3.022   6.035  0.1322  0.1200  0.3476
  660TIP3    H123395   6.692   3.084   5.964 -0.2042 -1.1476 -0.7167
  660TIP3    H223396   6.628   3.026   6.089 -1.2106 -1.5107 -1.3872
  661TIP3   OH223397   4.199   2.986   2.513 -0.9000 -0.3286  0.5623
  661TIP3    H123398   4.292   2.962   2.514 -0.7717  0.1311  0.4225
  661TIP3    H223399   4.171   2.968   2.423 -0.3324  1.6697 -0.0920
  662TIP3   OH223400   4.221   0.272  16.590 -0.1497  0.0371  0.4482
  662TIP3    H123401   4.180   0.199  16.545 -2.1603  0.2318  1.8331
  662TIP3    H223402   4.183   0.350  16.550  0.9547  0.3251 -0.0867
  663TIP3   OH223403   5.167   0.136  13.922  0.2544  0.1983 -0.3387
  663TIP3    H123404   5.212   0.209  13.963 -0.5646 -0.5215  2.0317
  663TIP3    H223405   5.097   0.176  13.871  0.0919  1.1095  0.5754
  664TIP3   OH223406   5.021   4.687  11.969  0.0854  0.1105  0.1408
  664TIP3    H123407   5.052   4.778  11.971  1.3057 -0.2705 -0.3229
  664TIP3    H223408   5.098   4.637  11.944 -0.7360 -0.9900 -0.2453
  665TIP3   OH223409   4.748   5.427  15.964  0.3286 -0.5761 -0.0325
  665TIP3    H123410   4.706   5.341  15.976 -1.3793  0.1123 -0.7403
  665TIP3    H223411   4.736   5.472  16.047  0.2744 -0.6299 -0.0121
  666TIP3   OH223412   4.429   5.463  12.109  0.4876 -0.0772  0.0856
  666TIP3    H123413   4.523   5.449  12.114  0.3324 -0.7439  2.4772
  666TIP3    H223414   4.397   5.392  12.053  1.4641  0.8959 -1.8272
  667TIP3   OH223415   6.159   5.568  12.948  0.2701 -0.1368  0.3514
  667TIP3    H123416   6.254   5.563  12.950  0.2822 -0.1151  3.0506
  667TIP3    H223417   6.140   5.660  12.930  0.8099  0.2355  1.6075
  668TIP3   OH223418   5.887   1.519   5.661  0.2485 -0.3767 -0.1215
  668TIP3    H123419   5.798   1.498   5.690  0.3834 -1.1455 -0.2429
  668TIP3    H223420   5.944   1.473   5.723  0.5489 -0.8772 -0.7612
  669TIP3   OH223421   2.906   0.015  16.540 -0.5319 -0.0141  0.0965
  669TIP3    H123422   2.951   0.084  16.589 -0.2649 -0.4397  0.4657
  669TIP3    H223423   2.892  -0.054  16.605  0.3965 -0.8564 -0.5689
  670TIP3   OH223424   3.346   5.300   0.840  0.4976  0.2413  0.0093
  670TIP3    H123425   3.427   5.309   0.790 -0.3333  1.3451 -1.2092
  670TIP3    H223426   3.289   5.247   0.784  0.0574  0.2533  0.4393
  671TIP3   OH223427   0.425   6.259   1.837  0.3021 -0.1499  0.0881
  671TIP3    H123428   0.364   6.331   1.852  1.1555  0.9590 -1.5319
  671TIP3    H223429   0.439   6.222   1.924 -1.3952  0.5995  0.7276
  672TIP3   OH223430   0.462   6.188   4.843 -0.4642 -0.0547  0.7207
  672TIP3    H123431   0.521   6.120   4.876 -0.2522 -0.3576 -0.2528
  672TIP3    H223432   0.504   6.219   4.762 -1.9281 -0.7199 -0.3505
  673TIP3   OH223433   3.415   6.557   4.517 -0.1302  0.6523 -0.0637
  673TIP3    H123434   3.346   6.610   4.558 -2.7298  0.8124 -4.1225
  673TIP3    H223435   3.495   6.608   4.530 -1.9434  3.9912 -0.8562
  674TIP3   OH223436   0.332   3.042  13.450  0.4693  0.0714 -0.7315
  674TIP3    H123437   0.364   2.973  13.392 -0.6772 -1.8459  0.7793
  674TIP3    H223438   0.409   3.069  13.501  1.1046  0.5430 -1.9121
  675TIP3   OH223439   3.493   1.129  13.363 -0.5050  0.3688 -0.7129
  675TIP3    H123440   3.453   1.043  13.360 -0.1310  0.1701 -0.1340
  675TIP3    H223441   3.429   1.187  13.323 -2.0984  0.3574  1.6672
  676TIP3   OH223442   4.176   4.813  11.259 -0.2675  0.0254  1.0663
  676TIP3    H123443   4.133   4.807  11.173  0.7495 -1.2806  0.6069
  676TIP3    H223444   4.227   4.732  11.265  0.9408  0.8491  2.2165
  677TIP3   OH223445   0.583   4.280   4.896  0.3622 -0.0171 -0.3350
  677TIP3    H123446   0.616   4.251   4.981 -0.1278  1.1573  0.2805
  677TIP3    H223447   0.659   4.316   4.851  0.3270  0.8555  0.2802
  678TIP3   OH223448   6.525   6.411   6.109  0.4076  0.1837 -0.0216
  678TIP3    H123449   6.528   6.320   6.139  1.4877 -0.0949 -0.9147
  678TIP3    H223450   6.436   6.440   6.129 -0.1841 -1.3094 -0.4009
  679TIP3   OH223451   6.740   2.428  16.234  0.1868  0.3349  0.3862
  679TIP3    H123452   6.694   2.345  16.225 -0.3828  0.5763  1.0029
  679TIP3    H223453   6.691   2.476  16.301 -0.5134  1.8640 -1.1534
  680TIP3   OH223454   4.656   0.537  12.916  0.1003 -0.1514  0.3575
  680TIP3    H123455   4.599   0.612  12.932 -1.0054 -0.7593 -0.6310
  680TIP3    H223456   4.744   0.574  12.917 -0.4182  1.1517 -0.0518
  681TIP3   OH223457   4.542   3.707   1.130 -0.1543  0.7629 -0.6018
  681TIP3    H123458   4.578   3.790   1.162  1.7763 -0.0870 -0.4200
  681TIP3    H223459   4.490   3.674   1.203  3.2645 -0.6068  1.4305
  682TIP3   OH223460   3.886   2.026   1.123 -0.0083 -0.0542 -0.1206
  682TIP3    H123461   3.939   1.970   1.179  1.8884  1.8397  0.0834
  682TIP3    H223462   3.842   2.086   1.183 -1.1782 -0.5829 -0.4151
  683TIP3   OH223463   0.238   0.066   4.819  0.5862 -0.4227 -0.6294
  683TIP3    H123464   0.273   0.032   4.901 -0.8229 -2.0488 -0.6428
  683TIP3    H223465   0.240   0.161   4.829  3.0619 -0.4816  0.1270
  684TIP3   OH223466   6.203   3.270   2.949 -0.0146 -0.2191 -0.0260
  684TIP3    H123467   6.211   3.359   2.914 -1.2169 -0.3758 -0.7569
  684TIP3    H223468   6.262   3.269   3.024  2.2680  0.3043 -1.6743
  685TIP3   OH223469   3.468   1.419   1.419 -0.3230 -0.3402 -0.1490
  685TIP3    H123470   3.475   1.324   1.413  0.8737 -0.3819  1.4010
  685TIP3    H223471   3.423   1.444   1.338 -0.4843 -2.1852 -0.6888
  686TIP3   OH223472   1.122   2.744   4.095 -0.3735 -0.0317  0.2252
  686TIP3    H123473   1.115   2.817   4.156 -0.9580 -0.8287  1.1543
  686TIP3    H223474   1.032   2.727   4.067 -0.1222  0.2675 -0.8138
  687TIP3   OH223475   1.868   5.454  13.649 -0.0084  0.1364 -0.3302
  687TIP3    H123476   1.810   5.528  13.636  2.1872  2.0859  0.2859
  687TIP3    H223477   1.901   5.464  13.739  1.2112 -0.9121 -0.6205
  688TIP3   OH223478   0.050   1.330   2.021  0.0346  0.2098  0.4431
  688TIP3    H123479   0.110   1.303   2.091 -0.7594 -0.2892  0.9473
  688TIP3    H223480  -0.037   1.307   2.053 -0.5570  1.9437  0.2003
  689TIP3   OH223481   4.877   2.877  16.927  0.0060  0.3207  0.5175
  689TIP3    H123482   4.957   2.851  16.881  0.2683  1.0012  0.5676
  689TIP3    H223483   4.814   2.808  16.907 -0.0297  0.8349 -1.2556
  690TIP3   OH223484   4.083   5.750   5.916 -0.1218 -0.2315 -0.3633
  690TIP3    H123485   4.059   5.729   6.006 -0.4444 -3.1013 -1.0358
  690TIP3    H223486   4.178   5.757   5.917 -0.2691  2.5244  0.6591
  691TIP3   OH223487   3.807   4.372  15.167  0.0040 -0.5281 -0.1281
  691TIP3    H123488   3.823   4.389  15.260 -0.1055  0.6110 -0.3041
  691TIP3    H223489   3.740   4.304  15.166  0.5568 -1.0994  0.6188
  692TIP3   OH223490   0.472   3.036  11.523 -0.3754 -0.5900  0.0102
  692TIP3    H123491   0.405   2.994  11.469 -0.6312  0.8231 -0.8158
  692TIP3    H223492   0.502   2.966  11.582 -2.4241 -1.3162  0.2765
  693TIP3   OH223493   1.937   1.061  16.256 -0.0071  0.2650  0.6264
  693TIP3    H123494   1.919   0.977  16.213  2.4431  0.3292 -0.7612
  693TIP3    H223495   1.981   1.037  16.337 -1.0902  0.2098  1.2131
  694TIP3   OH223496   3.445   0.336   2.493  0.3876 -0.2384 -0.4063
  694TIP3    H123497   3.386   0.274   2.538  1.1970 -0.7553 -0.0285
  694TIP3    H223498   3.428   0.321   2.400 -3.2388  2.6752 -0.4466
  695TIP3   OH223499   5.531   5.480   2.309 -0.1685  0.3712 -0.0209
  695TIP3    H123500   5.450   5.430   2.313  0.8388 -1.2767  1.0311
  695TIP3    H223501   5.534   5.514   2.220 -1.8553  0.2315 -0.1625
  696TIP3   OH223502   2.079   5.995  13.701 -0.6939  0.0093 -0.4407
  696TIP3    H123503   2.097   5.931  13.632 -0.3178 -1.2010  0.7453
  696TIP3    H223504   2.148   5.980  13.766 -1.2337  0.8907  0.3621
  697TIP3   OH223505   2.144   2.533   0.274  0.6571 -0.8786  0.0079
  697TIP3    H123506   2.158   2.454   0.222  0.9905 -1.2999  0.7267
  697TIP3    H223507   2.218   2.590   0.253  0.5694 -0.8704 -0.2868
  698TIP3   OH223508   1.127   1.950   4.680 -0.1989 -0.2203 -0.6094
  698TIP3    H123509   1.161   1.998   4.605  0.9596  0.1163  0.1052
  698TIP3    H223510   1.113   2.016   4.748 -0.2919 -0.6499 -0.2015
  699TIP3   OH223511   5.822   6.231   0.914  0.2715  0.2801  0.3179
  699TIP3    H123512   5.891   6.234   0.848 -0.4242 -0.5042 -0.4726
  699TIP3    H223513   5.743   6.257   0.867 -0.5022 -1.6877  0.4372
  700TIP3   OH223514   1.081   1.211   4.669  0.1809  0.4987  0.2683
  700TIP3    H123515   1.023   1.257   4.609 -0.7174  0.1739  0.8552
  700TIP3    H223516   1.030   1.136   4.699  1.0433  0.0015  0.5286
  701TIP3   OH223517   5.527   4.514  15.807  0.3953 -0.5983  0.1831
  701TIP3    H123518   5.540   4.604  15.835 -1.5816  0.3625 -1.7077
  701TIP3    H223519   5.506   4.466  15.887  1.3353  0.6349  1.1901
  702TIP3   OH223520   4.175   5.967  10.817 -0.1819 -0.3643  0.6393
  702TIP3    H123521   4.218   6.033  10.764  0.2745 -2.2438 -1.4753
  702TIP3    H223522   4.238   5.895  10.822 -0.7834 -0.8161  2.5798
  703TIP3   OH223523   1.491   2.511   4.231  0.1401 -0.0519 -0.1196
  703TIP3    H123524   1.548   2.585   4.211  0.3860  0.1840  1.3713
  703TIP3    H223525   1.403   2.544   4.218  0.2884 -0.2699 -1.9408
  704TIP3   OH223526   3.150   0.732  15.179 -0.0014 -0.6393 -0.4922
  704TIP3    H123527   3.158   0.651  15.230  3.5904  0.0099  0.2805
  704TIP3    H223528   3.185   0.709  15.093  2.0713  0.2374  0.0567
  705TIP3   OH223529   4.552   6.399  11.246 -0.8091 -0.1828  0.0219
  705TIP3    H123530   4.627   6.443  11.206 -1.0852 -0.7929 -1.2011
  705TIP3    H223531   4.588   6.318  11.282 -0.7460 -0.1084  0.1278
  706TIP3   OH223532   4.367   5.998  15.691  0.2757  0.2542  0.1498
  706TIP3    H123533   4.373   6.093  15.677  0.3062  0.0654 -1.3139
  706TIP3    H223534   4.436   5.962  15.635  0.3080 -0.6295  0.7480
  707TIP3   OH223535   5.049   1.910   4.826 -0.9176  0.4350 -0.2994
  707TIP3    H123536   4.961   1.930   4.857 -0.6732  0.0878  0.6392
  707TIP3    H223537   5.047   1.816   4.807  0.2109 -0.4725  3.2392
  708TIP3   OH223538   1.621   0.940   3.722 -0.1066  0.4643  0.0409
  708TIP3    H123539   1.539   0.903   3.756  1.0561 -2.0398  0.3960
  708TIP3    H223540   1.656   0.992   3.794  0.1689 -1.1625  1.1418
  709TIP3   OH223541   6.745   6.771  14.831  0.1764 -0.4320  0.4900
  709TIP3    H123542   6.738   6.796  14.739  1.1191 -0.0617  0.5041
  709TIP3    H223543   6.791   6.687  14.830  0.0003 -0.5317  0.6157
  710TIP3   OH223544   0.643   6.019  16.636  0.3134  0.5115 -0.1662
  710TIP3    H123545   0.631   6.080  16.563 -0.1329  0.3892 -0.2004
  710TIP3    H223546   0.698   6.067  16.698 -0.4083  1.1328  0.0114
  711TIP3   OH223547   6.707   2.654   2.271 -0.5208 -0.0931 -1.1567
  711TIP3    H123548   6.619   2.686   2.293 -0.2979 -0.6161  0.5825
  711TIP3    H223549   6.691   2.581   2.211 -1.2623  0.0017 -1.0895
  712TIP3   OH223550   1.975   2.956   2.866  0.1947  0.0229 -0.1823
  712TIP3    H123551   1.935   2.879   2.906 -0.5860  0.8629  0.7119
  712TIP3    H223552   1.971   2.939   2.772 -0.8911 -0.5931 -0.0441
  713TIP3   OH223553   4.772   5.767   3.151  0.0206 -0.1939 -0.3227
  713TIP3    H123554   4.867   5.771   3.150  0.1380 -1.6631  1.0297
  713TIP3    H223555   4.744   5.858   3.164  1.3283  0.0120  1.4713
  714TIP3   OH223556   6.425   3.782  16.430 -0.7668  0.2998 -0.6819
  714TIP3    H123557   6.332   3.781  16.449 -0.3776 -0.6462  1.4750
  714TIP3    H223558   6.441   3.701  16.382 -0.6401 -1.0692  1.5462
  715TIP3   OH223559   0.997   1.968  11.471  0.6221 -0.1765 -0.2441
  715TIP3    H123560   0.922   1.947  11.416 -0.1185  1.8742 -0.0964
  715TIP3    H223561   0.986   2.060  11.494  1.7950 -0.4911  1.9472
  716TIP3   OH223562   0.250   2.892   5.478 -0.1663  0.5502 -0.4697
  716TIP3    H123563   0.210   2.870   5.394 -0.9276  1.5176 -0.3868
  716TIP3    H223564   0.274   2.985   5.470 -1.2638  0.9839  0.7204
  717TIP3   OH223565   3.615   3.922   3.634  0.3536  0.1298  0.2401
  717TIP3    H123566   3.702   3.890   3.611 -0.7209 -2.5044 -0.6303
  717TIP3    H223567   3.609   3.909   3.728  0.2458 -1.6378  0.0232
  718TIP3   OH223568   3.358   0.469   1.184 -0.1740 -0.1760  0.2269
  718TIP3    H123569   3.359   0.563   1.168 -0.9612  0.0229  1.2507
  718TIP3    H223570   3.438   0.452   1.234 -0.2564  0.0269  0.4303
  719TIP3   OH223571   2.453   0.712   4.609 -0.6577 -0.4320 -0.1893
  719TIP3    H123572   2.532   0.705   4.663 -1.0647  1.1998  0.6837
  719TIP3    H223573   2.480   0.684   4.522  0.7759 -0.2788  0.1930
  720TIP3   OH223574   2.375   5.482   4.677  0.0328  0.2836  0.0987
  720TIP3    H123575   2.309   5.508   4.612  1.3682 -2.5411 -2.7009
  720TIP3    H223576   2.333   5.413   4.729 -0.2671  0.8244  0.5740
  721TIP3   OH223577   2.115   4.981  11.874  0.2376  0.0081  0.0519
  721TIP3    H123578   2.102   4.892  11.841  1.4713  0.2833 -1.2954
  721TIP3    H223579   2.091   5.037  11.801 -0.6397  0.8092  0.9312
  722TIP3   OH223580   5.367   5.397  16.896  0.2198  0.0888 -0.1405
  722TIP3    H123581   5.432   5.435  16.837  0.1348 -0.8154 -0.8407
  722TIP3    H223582   5.378   5.303  16.885 -1.3490 -0.0794 -0.4307
  723TIP3   OH223583   2.388   5.788  15.992  0.2538  0.0583  0.0834
  723TIP3    H123584   2.444   5.725  16.038  0.0981 -1.2734 -1.4715
  723TIP3    H223585   2.299   5.758  16.009  0.1691 -0.0187 -0.4774
  724TIP3   OH223586   1.932   5.869   0.290  0.8500 -0.3451 -0.1133
  724TIP3    H123587   1.857   5.833   0.243  1.3946 -1.7775  0.0704
  724TIP3    H223588   1.894   5.911   0.367  0.1770 -0.3424 -0.4396
  725TIP3   OH223589   0.291   1.801   3.343 -0.0685  0.4330 -0.4701
  725TIP3    H123590   0.307   1.848   3.262  0.9637  0.7418 -0.1097
  725TIP3    H223591   0.323   1.860   3.412  0.9157 -0.6163  0.0115
  726TIP3   OH223592   1.069   1.472  15.564 -0.4637 -0.6605  0.2512
  726TIP3    H123593   1.060   1.425  15.481 -0.6427 -0.3431  0.0912
  726TIP3    H223594   0.989   1.524  15.571  0.3199  0.6370 -0.2096
  727TIP3   OH223595   1.143   0.111   0.385 -0.0131 -0.5820  0.1169
  727TIP3    H123596   1.199   0.078   0.314 -0.3513 -0.1682 -0.3517
  727TIP3    H223597   1.064   0.141   0.340 -1.2431 -2.4894  0.9099
  728TIP3   OH223598   6.059   5.302   3.875 -0.3219 -0.4015  0.3853
  728TIP3    H123599   6.113   5.269   3.804 -0.2391  1.1517 -0.3191
  728TIP3    H223600   6.074   5.241   3.948  0.5202 -1.3279 -0.5451
  729TIP3   OH223601   2.934   5.370   4.984 -0.7167 -0.4034 -0.6156
  729TIP3    H123602   2.887   5.335   5.059 -0.4577  1.9168  0.7331
  729TIP3    H223603   2.880   5.444   4.955  0.5832  0.4412 -0.9512
  730TIP3   OH223604   5.809   4.444   4.593  0.1534 -0.2576  0.3611
  730TIP3    H123605   5.740   4.458   4.528  0.8906 -0.5001 -0.4784
  730TIP3    H223606   5.798   4.516   4.655 -0.1131  0.3832 -0.4148
  731TIP3   OH223607   3.145   5.550  11.468 -0.0012 -0.2192  0.4931
  731TIP3    H123608   3.130   5.590  11.382  1.4512  1.0560  0.7870
  731TIP3    H223609   3.202   5.476  11.451  0.0250 -0.1601  0.3215
  732TIP3   OH223610   4.323   0.505   0.408  0.2476 -0.0714 -0.0537
  732TIP3    H123611   4.242   0.462   0.435  0.6419 -1.8552 -1.5203
  732TIP3    H223612   4.372   0.516   0.490 -0.7090 -0.6264  0.6229
  733TIP3   OH223613   5.924   3.652   3.885  0.3447  0.0084 -0.2315
  733TIP3    H123614   5.952   3.645   3.794  0.3632 -0.8036 -0.1704
  733TIP3    H223615   5.843   3.703   3.881 -0.1377 -0.7773 -0.8097
  734TIP3   OH223616   5.971   3.560  15.372  0.2177  0.0193  0.1647
  734TIP3    H123617   5.902   3.624  15.356 -0.0817  0.0360  1.4101
  734TIP3    H223618   5.950   3.487  15.314 -0.2072  0.4873 -0.2814
  735TIP3   OH223619   6.015   3.714   5.846 -0.0063 -0.3900 -0.3992
  735TIP3    H123620   5.983   3.804   5.843  1.3104  0.1636  0.8394
  735TIP3    H223621   6.045   3.696   5.757 -1.5474 -0.1067 -0.9964
  736TIP3   OH223622   2.050   2.190  16.007 -0.2998 -0.3804 -0.2729
  736TIP3    H123623   2.038   2.138  15.927 -1.1162  0.2427 -0.5652
  736TIP3    H223624   1.979   2.161  16.065 -0.8383  0.4663 -0.4834
  737TIP3   OH223625   5.286   1.470   1.788 -0.5656  0.2540  0.4933
  737TIP3    H123626   5.358   1.411   1.764  0.8800  2.1889 -0.2439
  737TIP3    H223627   5.243   1.427   1.862 -0.7285 -2.5370 -1.0809
  738TIP3   OH223628   6.101   3.493  13.956  0.2912  0.1250 -1.2148
  738TIP3    H123629   6.174   3.530  14.005 -1.5168  0.1195  1.7647
  738TIP3    H223630   6.058   3.569  13.916  1.6957  0.1464 -2.8057
  739TIP3   OH223631   1.993   6.377  15.032  0.3252 -0.2943  0.0504
  739TIP3    H123632   1.978   6.453  15.090  0.8907  0.0887 -0.2955
  739TIP3    H223633   1.986   6.413  14.944 -2.1039 -1.1680 -0.2052
  740TIP3   OH223634   2.542   6.527   5.377 -0.4479 -0.0094 -0.2193
  740TIP3    H123635   2.602   6.522   5.302 -0.6150  0.1842 -0.3662
  740TIP3    H223636   2.596   6.504   5.453 -0.3717 -0.5941 -0.4477
  741TIP3   OH223637   0.490   3.708  15.796 -0.5978 -0.1522 -0.2140
  741TIP3    H123638   0.572   3.755  15.788  0.5494 -2.0709 -0.4619
  741TIP3    H223639   0.499   3.658  15.877 -1.1546 -0.9929 -0.6472
  742TIP3   OH223640   1.726   0.566  10.619 -0.4710  0.5082  0.1704
  742TIP3    H123641   1.763   0.591  10.704  0.3669 -1.0888  0.3161
  742TIP3    H223642   1.717   0.648  10.572 -3.6451  1.8933  2.7746
  743TIP3   OH223643   0.703   4.307   4.085  0.2150  0.0594  0.1174
  743TIP3    H123644   0.696   4.397   4.119 -0.9099 -0.0972  0.3242
  743TIP3    H223645   0.797   4.289   4.086  0.4792  1.3019 -0.1078
  744TIP3   OH223646   1.133   6.500   3.642  0.0934  0.0942  0.6153
  744TIP3    H123647   1.072   6.545   3.700 -1.3566  0.0632 -0.7980
  744TIP3    H223648   1.122   6.407   3.662  0.1596  0.1324  0.8243
  745TIP3   OH223649   6.256   1.149  12.029 -0.1372 -0.1257 -0.1875
  745TIP3    H123650   6.197   1.224  12.032 -0.0160 -0.0351 -0.1225
  745TIP3    H223651   6.343   1.186  12.021 -0.0997 -0.2629 -0.4623
  746TIP3   OH223652   1.875   0.184   0.737  0.3284 -0.3289  0.2413
  746TIP3    H123653   1.901   0.250   0.673  0.9934  0.1415  0.9728
  746TIP3    H223654   1.833   0.234   0.807 -1.7154 -0.9799 -0.4622
  747TIP3   OH223655   3.855   5.092   2.065  0.0069 -0.1150  0.4791
  747TIP3    H123656   3.917   5.157   2.098  0.4033  0.0604 -0.5659
  747TIP3    H223657   3.813   5.057   2.144  0.5965  0.5928  1.1306
  748TIP3   OH223658   1.903   0.318  13.463  0.6018  0.1659 -0.4257
  748TIP3    H123659   1.973   0.252  13.468  0.4239  0.0279  0.5200
  748TIP3    H223660   1.836   0.278  13.408  0.4433 -0.5081  0.2348
  749TIP3   OH223661   6.528   5.236   2.537  0.1655 -0.2784  0.1707
  749TIP3    H123662   6.478   5.172   2.589 -1.7442  0.6894 -0.4013
  749TIP3    H223663   6.487   5.235   2.451  0.2512  1.5421  0.0736
  750TIP3   OH223664   5.713   3.733  17.155 -0.1182  0.0619  0.8069
  750TIP3    H123665   5.729   3.823  17.183  1.0163  0.7313 -1.6973
  750TIP3    H223666   5.786   3.712  17.098 -0.9869 -2.0434  0.3585
  751TIP3   OH223667   5.637   5.125   3.938  0.1969  0.0002  0.0602
  751TIP3    H123668   5.699   5.062   3.974 -0.7192  1.4390  4.8744
  751TIP3    H223669   5.565   5.071   3.905  0.8824 -1.5397  0.9796
  752TIP3   OH223670   0.311   1.394  16.051 -0.6909  0.2776  0.0015
  752TIP3    H123671   0.313   1.308  16.092 -1.4919  0.1250 -0.2594
  752TIP3    H223672   0.241   1.441  16.096 -0.7892  0.5124 -0.3893
  753TIP3   OH223673   4.151   3.953   0.105  0.0668 -0.0097 -0.4933
  753TIP3    H123674   4.243   3.929   0.112  0.2427  0.6608 -0.4061
  753TIP3    H223675   4.142   3.990   0.017  0.1543  1.0108 -0.0898
  754TIP3   OH223676   1.294   0.060   1.387  0.8836 -0.0046  0.2143
  754TIP3    H123677   1.357   0.056   1.316  1.7815  1.3693  0.8960
  754TIP3    H223678   1.340   0.103   1.459 -0.4292 -0.1042  1.1664
  755TIP3   OH223679   0.210   4.376   3.596 -0.9496  0.5122 -0.1678
  755TIP3    H123680   0.289   4.430   3.601  0.2049 -1.0496 -0.9221
  755TIP3    H223681   0.169   4.385   3.682  0.3417  0.9122  0.4268
  756TIP3   OH223682   5.370   0.145   1.946  0.5440 -0.2500  0.4131
  756TIP3    H123683   5.368   0.050   1.958  3.0678 -0.4463 -0.2633
  756TIP3    H223684   5.398   0.157   1.855  0.7310  1.1497  0.6336
  757TIP3   OH223685   1.165   5.604   3.657  0.2040 -0.5393 -0.3902
  757TIP3    H123686   1.152   5.567   3.744 -0.5429  0.0445 -0.2403
  757TIP3    H223687   1.258   5.594   3.640  0.4189 -0.3631  0.6186
  758TIP3   OH223688   0.337   2.282  12.783 -0.8026  0.2326 -0.6092
  758TIP3    H123689   0.317   2.207  12.726 -1.1715  0.2945 -0.5660
  758TIP3    H223690   0.267   2.281  12.849 -0.6510  0.4494 -0.4458
  759TIP3   OH223691   6.538   1.903  11.421 -0.6189  0.1418  0.2685
  759TIP3    H123692   6.616   1.957  11.436 -0.5542  0.1728 -0.1557
  759TIP3    H223693   6.569   1.813  11.433 -0.3051  0.1018 -0.7278
  760TIP3   OH223694   5.767   2.848   5.262  0.7257 -0.1692  0.2553
  760TIP3    H123695   5.752   2.819   5.352 -0.2648  0.2996  0.2606
  760TIP3    H223696   5.843   2.906   5.267  1.1595 -0.7619  0.6513
  761TIP3   OH223697   6.081   4.928  13.831  0.0644  0.4637  0.1282
  761TIP3    H123698   6.029   4.855  13.799  0.2373  0.4477 -0.1172
  761TIP3    H223699   6.090   4.913  13.925  0.8356 -0.2917 -0.0560
  762TIP3   OH223700   5.661   5.289  16.763  0.5934 -0.4148 -0.2898
  762TIP3    H123701   5.631   5.346  16.692  0.0371  1.7584  1.5755
  762TIP3    H223702   5.755   5.304  16.768  0.3811  0.7290  0.4872
  763TIP3   OH223703   6.372   1.255   1.903 -0.8071 -0.3531 -0.1790
  763TIP3    H123704   6.396   1.273   1.812 -2.4196  1.9203 -0.2264
  763TIP3    H223705   6.334   1.167   1.901  1.1182 -1.2019 -1.2717
  764TIP3   OH223706   4.292   4.549   5.298 -0.0900 -0.2323  0.3653
  764TIP3    H123707   4.217   4.497   5.325 -0.7210 -0.7373 -2.1001
  764TIP3    H223708   4.267   4.640   5.316 -1.3537 -0.3910 -0.5167
  765TIP3   OH223709   4.211   6.789   5.223  0.0419  0.3727 -0.4982
  765TIP3    H123710   4.178   6.865   5.270 -0.9497 -0.1034 -0.3864
  765TIP3    H223711   4.251   6.824   5.144  1.2598  1.1417  0.4327
  766TIP3   OH223712   1.964   0.779   4.863  0.0269 -0.0540  0.1588
  766TIP3    H123713   2.026   0.840   4.903 -0.4160 -1.0411  2.5542
  766TIP3    H223714   1.974   0.698   4.914 -2.9319 -0.3766  0.3932
  767TIP3   OH223715   0.272   2.408   3.306 -0.2418  0.7331 -0.0634
  767TIP3    H123716   0.337   2.421   3.375 -0.2690  0.4067  0.0225
  767TIP3    H223717   0.193   2.383   3.352  0.1488 -1.0594 -0.3031
  768TIP3   OH223718   1.285   2.836  13.081  0.0880 -0.0107  0.5739
  768TIP3    H123719   1.314   2.822  12.991 -0.2584 -0.7917  0.5751
  768TIP3    H223720   1.191   2.848  13.074  0.0944  0.1794  0.8063
  769TIP3   OH223721   5.806   2.535   5.216 -0.2760 -0.5080 -0.2823
  769TIP3    H123722   5.884   2.571   5.174 -0.5218 -0.7056 -0.9237
  769TIP3    H223723   5.759   2.491   5.145 -0.5748 -1.0708  0.2566
  770TIP3   OH223724   6.015   5.966   5.212  0.6676  0.4052 -0.1225
  770TIP3    H123725   5.920   5.958   5.223  0.8544 -0.8619  0.7537
  770TIP3    H223726   6.032   5.932   5.124  0.4969 -1.3455  0.4724
  771TIP3   OH223727   4.542   4.803   3.553  0.0586 -0.4262 -0.4270
  771TIP3    H123728   4.627   4.831   3.587 -0.5064  2.0804 -0.8679
  771TIP3    H223729   4.563   4.755   3.473  1.1237 -1.4748  0.4524
  772TIP3   OH223730   5.456   3.183  11.729  0.1660 -0.1442 -0.2456
  772TIP3    H123731   5.476   3.159  11.819 -0.7881 -1.0628 -0.2538
  772TIP3    H223732   5.542   3.196  11.688  0.6726 -1.2516  0.3964
  773TIP3   OH223733   4.994   2.798   3.143  0.3952 -0.1281 -0.2295
  773TIP3    H123734   5.051   2.728   3.111  0.0292 -0.4846 -0.1136
  773TIP3    H223735   4.909   2.755   3.156  0.4338  0.1074  0.8195
  774TIP3   OH223736   0.045   4.762   3.139 -0.1303  0.0505 -0.5619
  774TIP3    H123737   0.057   4.684   3.085  0.1439 -1.1351  1.1266
  774TIP3    H223738   0.133   4.799   3.148 -0.2292  0.4537 -1.1912
  775TIP3   OH223739   1.612   3.562  16.312 -0.1464  0.3498  1.1068
  775TIP3    H123740   1.638   3.472  16.294 -1.7198 -0.4015  2.3603
  775TIP3    H223741   1.685   3.599  16.362  0.2530 -0.4034  1.0886
  776TIP3   OH223742   6.648   2.174   2.131  0.0749  0.6253  0.1186
  776TIP3    H123743   6.619   2.238   2.067  1.3934 -0.1799 -1.3425
  776TIP3    H223744   6.588   2.100   2.121 -0.8549  1.2147  1.1381
  777TIP3   OH223745   3.568   5.073   6.303 -0.0057 -0.1911  0.2671
  777TIP3    H123746   3.603   5.158   6.276  1.0649 -0.8008 -0.3516
  777TIP3    H223747   3.492   5.094   6.357  0.4551  1.1610  0.4231
  778TIP3   OH223748   4.490   2.877   2.530  0.0464  0.5496 -0.0123
  778TIP3    H123749   4.538   2.876   2.447 -0.0569  1.2569 -0.0872
  778TIP3    H223750   4.551   2.918   2.591 -0.6350  1.9273 -0.2261
  779TIP3   OH223751   6.783   5.715  13.500  0.3853  0.5699 -0.2022
  779TIP3    H123752   6.774   5.623  13.474  0.1733  0.2415  0.9434
  779TIP3    H223753   6.707   5.730  13.557  1.5669  0.8081  1.3573
  780TIP3   OH223754   2.199   5.801   0.288 -0.2098 -0.3741 -0.2107
  780TIP3    H123755   2.210   5.830   0.197 -0.2259 -2.2094 -0.8431
  780TIP3    H223756   2.106   5.810   0.305 -0.3360 -0.7600 -0.6647
  781TIP3   OH223757   1.600   2.471   6.525 -0.0205  0.1637 -0.3267
  781TIP3    H123758   1.543   2.522   6.582 -1.0385 -1.1718 -0.0906
  781TIP3    H223759   1.553   2.389   6.512  0.6007  0.0984 -2.4075
  782TIP3   OH223760   3.651   5.057   1.259 -0.9275  0.3133  0.2919
  782TIP3    H123761   3.738   5.076   1.223 -0.6540  0.4288  1.0055
  782TIP3    H223762   3.627   4.973   1.219  0.4859 -0.8505  1.7700
  783TIP3   OH223763   0.968   2.818   4.772 -0.3609  0.1041 -0.3655
  783TIP3    H123764   0.890   2.821   4.828 -0.3122 -0.2179 -0.2792
  783TIP3    H223765   0.943   2.867   4.694 -0.0805  1.4740  0.3700
  784TIP3   OH223766   0.426   6.475  11.442  0.0612  0.3746 -0.2296
  784TIP3    H123767   0.481   6.509  11.371  1.7935  0.9082  1.2854
  784TIP3    H223768   0.374   6.549  11.470 -0.9982  0.0397 -1.2118
  785TIP3   OH223769   3.838   4.660   2.264 -0.9614  0.6812 -0.0950
  785TIP3    H123770   3.766   4.709   2.303 -0.5109  1.2859  0.0024
  785TIP3    H223771   3.916   4.691   2.311 -0.6295  0.0861 -0.2392
  786TIP3   OH223772   2.847   2.208  12.552 -0.3017  0.0270  0.2757
  786TIP3    H123773   2.831   2.118  12.524  1.6342  0.2305 -1.6780
  786TIP3    H223774   2.942   2.215  12.560 -0.3917  1.9184  0.3001
  787TIP3   OH223775   1.863   6.348  10.525 -0.2682 -0.2271  0.2807
  787TIP3    H123776   1.929   6.366  10.591  2.0298 -1.1986 -1.6285
  787TIP3    H223777   1.784   6.328  10.575  1.2358 -0.5068  2.6903
  788TIP3   OH223778   1.671   4.556  11.250 -0.2493  0.1733  0.0572
  788TIP3    H123779   1.673   4.533  11.158  1.2028  0.9645 -0.1386
  788TIP3    H223780   1.652   4.650  11.251 -0.8383  0.0599  0.6040
  789TIP3   OH223781   0.085   0.838  15.645  0.0028 -0.1914 -0.3917
  789TIP3    H123782  -0.005   0.871  15.640  0.0105 -0.0286  0.4214
  789TIP3    H223783   0.139   0.916  15.642  0.0581 -0.1879  0.5947
  790TIP3   OH223784   2.831   2.902   1.236  0.6581  0.4481 -0.3444
  790TIP3    H123785   2.789   2.962   1.298 -1.2403  0.4331 -1.5416
  790TIP3    H223786   2.827   2.948   1.152 -0.1176 -0.9985 -1.1369
  791TIP3   OH223787   2.877   0.223   4.052 -0.2448 -0.0209 -0.4476
  791TIP3    H123788   2.836   0.150   4.098 -0.7916 -0.4765 -1.6264
  791TIP3    H223789   2.954   0.184   4.009 -0.7087  0.0051 -1.3323
  792TIP3   OH223790   1.557   0.622   3.408  0.4203 -0.2174  0.1087
  792TIP3    H123791   1.587   0.626   3.499 -1.0416 -0.3081  0.6382
  792TIP3    H223792   1.608   0.551   3.369 -0.1881 -1.4125  1.3983
  793TIP3   OH223793   1.972   5.003   4.506 -0.2875 -0.4752 -0.2364
  793TIP3    H123794   2.013   5.041   4.583 -0.8029 -0.0983 -0.1471
  793TIP3    H223795   2.038   5.013   4.437 -0.2877  0.2875 -0.1361
  794TIP3   OH223796   1.765   5.497   4.705  0.2098  0.0673  0.4381
  794TIP3    H123797   1.716   5.577   4.687  0.5316 -0.0594 -1.1439
  794TIP3    H223798   1.814   5.516   4.785  1.1120  1.8699 -0.4683
  795TIP3   OH223799   6.148   4.784  16.280  0.1630  0.1628  0.6654
  795TIP3    H123800   6.142   4.688  16.282  2.0136  0.0187  0.6169
  795TIP3    H223801   6.060   4.813  16.303 -0.0106 -1.5490  2.4462
  796TIP3   OH223802   2.498   1.287  16.939 -0.5155 -0.5284  0.1182
  796TIP3    H123803   2.544   1.361  16.899  1.6781 -2.1380 -0.4903
  796TIP3    H223804   2.560   1.215  16.936 -2.4240 -2.3248  1.0885
  797TIP3   OH223805   4.848   1.234  14.146 -0.1094  0.0644 -0.3507
  797TIP3    H123806   4.825   1.166  14.084  0.0699 -1.9296  1.6403
  797TIP3    H223807   4.806   1.208  14.228 -0.4349  2.6249  0.4059
  798TIP3   OH223808   2.322   4.706  14.609 -0.1532  0.1920  0.3037
  798TIP3    H123809   2.371   4.658  14.675  0.8692 -0.4509 -0.8826
  798TIP3    H223810   2.257   4.756  14.659  1.6291  1.0016  1.9194
  799TIP3   OH223811   6.177   0.797  13.639 -0.1914  0.2398 -0.1193
  799TIP3    H123812   6.160   0.798  13.545 -1.1741 -1.3836  0.0039
  799TIP3    H223813   6.180   0.704  13.662  3.0321  0.4835  0.9577
  800TIP3   OH223814   5.441   2.267   4.683 -0.2985  0.3484  0.4611
  800TIP3    H123815   5.369   2.208   4.706 -1.1047  1.1517  0.0465
  800TIP3    H223816   5.511   2.209   4.653 -0.2852 -0.5312  2.1076
  801TIP3   OH223817   3.786   3.531   5.038  0.2312 -0.0772 -0.2935
  801TIP3    H123818   3.812   3.511   4.948 -0.7108  0.2329 -0.6430
  801TIP3    H223819   3.695   3.560   5.032  0.6814  1.6431  0.5249
  802TIP3   OH223820   6.654   4.145   6.094 -0.1030 -0.5688 -0.5270
  802TIP3    H123821   6.578   4.138   6.153  0.6753  0.9073  0.7128
  802TIP3    H223822   6.725   4.177   6.150  0.8247  0.3125 -2.1400
  803TIP3   OH223823   5.028   5.211  14.012 -0.6376 -0.2423 -0.3641
  803TIP3    H123824   5.041   5.235  13.920  0.2376 -1.3304 -0.5331
  803TIP3    H223825   4.933   5.206  14.021 -0.7421  0.0071 -1.1705
  804TIP3   OH223826   0.932   5.092  10.555 -0.4429 -0.8015 -0.3363
  804TIP3    H123827   1.027   5.081  10.545 -0.1984  0.3471  0.4550
  804TIP3    H223828   0.907   5.025  10.619  0.4343  0.8588  1.9137
  805TIP3   OH223829   1.348   0.666   3.245 -0.1042  0.7582 -0.3839
  805TIP3    H123830   1.271   0.620   3.278  0.2464 -0.9183 -1.7641
  805TIP3    H223831   1.419   0.641   3.305  0.0024 -0.2554 -0.9065
  806TIP3   OH223832   4.665   1.487   4.771 -0.4514 -0.4917  0.0099
  806TIP3    H123833   4.608   1.536   4.831  1.2566 -1.1908  2.3475
  806TIP3    H223834   4.684   1.549   4.701 -2.1737  0.5374  0.3837
  807TIP3   OH223835   4.133   3.498   4.597 -0.0465 -0.1900 -0.1156
  807TIP3    H123836   4.057   3.554   4.581 -0.3043 -0.4188  0.2902
  807TIP3    H223837   4.111   3.415   4.555  0.3228 -0.0034 -0.6920
  808TIP3   OH223838   2.775   4.936   2.209 -0.1432 -0.5185  0.2229
  808TIP3    H123839   2.807   4.876   2.142  0.5675  0.0187  0.0719
  808TIP3    H223840   2.743   5.012   2.160 -0.1359 -0.3605  0.4606
  809TIP3   OH223841   6.669   5.819  15.742  0.6936 -0.3898  0.6143
  809TIP3    H123842   6.600   5.846  15.802  1.0793 -0.0045  0.8937
  809TIP3    H223843   6.658   5.724  15.734  1.6526 -0.7151  2.6064
  810TIP3   OH223844   5.265   1.653   4.020 -0.0728 -0.2825 -0.1880
  810TIP3    H123845   5.340   1.593   4.024  0.1990  0.0687  0.1021
  810TIP3    H223846   5.250   1.666   3.926  1.6274  1.3504 -0.2801
  811TIP3   OH223847   4.375   3.598   0.885  0.0664  0.1534 -0.5349
  811TIP3    H123848   4.310   3.653   0.928 -0.2936 -0.6046 -0.0896
  811TIP3    H223849   4.377   3.630   0.794 -1.1947 -0.0485 -0.6482
  812TIP3   OH223850   4.161   0.276  14.186 -0.0113  0.1421 -0.0844
  812TIP3    H123851   4.237   0.236  14.227  0.4990  1.5908  0.4740
  812TIP3    H223852   4.098   0.287  14.257  0.7048  2.2622  0.2950
  813TIP3   OH223853   1.362   2.302   1.124 -0.1849  0.2512  0.0655
  813TIP3    H123854   1.407   2.228   1.165 -0.3833 -0.1330 -0.4051
  813TIP3    H223855   1.332   2.355   1.198  1.1101  0.5648  0.3839
  814TIP3   OH223856   0.142   4.583  14.502 -0.5430 -0.2507 -0.1537
  814TIP3    H123857   0.167   4.672  14.526 -0.2163 -0.7695  1.5334
  814TIP3    H223858   0.172   4.574  14.411 -2.2860  1.9554 -1.0516
  815TIP3   OH223859   5.349   5.399  12.015  0.1967 -0.4088 -0.4375
  815TIP3    H123860   5.400   5.403  12.096 -0.0449  0.6705 -0.3122
  815TIP3    H223861   5.315   5.488  12.004 -0.6776 -0.8101 -1.1468
  816TIP3   OH223862   1.385   2.274  16.440  0.1822  0.4202 -0.2634
  816TIP3    H123863   1.409   2.188  16.474 -0.0515  0.3584 -0.2536
  816TIP3    H223864   1.325   2.255  16.368 -0.6351  0.5995  0.3530
  817TIP3   OH223865   3.695   0.577  10.824  0.0009  0.3470 -0.0331
  817TIP3    H123866   3.704   0.491  10.864  0.3152  0.8631  1.0398
  817TIP3    H223867   3.756   0.576  10.751 -1.4673 -1.0450 -1.3113
  818TIP3   OH223868   4.363   1.953   2.007 -0.4872  0.6512 -0.1344
  818TIP3    H123869   4.411   1.886   1.958  0.6355  1.8481 -0.7254
  818TIP3    H223870   4.404   1.953   2.094 -0.7077  0.3563 -0.0283
  819TIP3   OH223871   4.140   2.659   3.165 -0.1483 -0.4248  0.2110
  819TIP3    H123872   4.104   2.578   3.130 -0.4253  0.4860 -1.7804
  819TIP3    H223873   4.231   2.659   3.135  0.1216 -0.4439  1.0269
  820TIP3   OH223874   2.409   5.332  16.494  0.5882 -0.1221  0.4182
  820TIP3    H123875   2.395   5.275  16.569 -0.9286 -0.2079  0.1171
  820TIP3    H223876   2.403   5.421  16.529  1.2495 -0.1567  0.6168
  821TIP3   OH223877   2.520   4.677   1.268  0.1058 -0.1624  0.1706
  821TIP3    H123878   2.503   4.754   1.322  0.8432  0.2660 -0.1970
  821TIP3    H223879   2.593   4.703   1.211 -0.7762 -0.5467 -1.1608
  822TIP3   OH223880   5.500   0.487   6.400 -0.7516 -0.7398 -0.5211
  822TIP3    H123881   5.471   0.400   6.371 -1.9884  0.1606 -2.1334
  822TIP3    H223882   5.432   0.547   6.369  0.4950  0.9152 -0.2084
  823TIP3   OH223883   0.278   5.078  17.020  0.4911 -0.1611 -0.2284
  823TIP3    H123884   0.246   5.064  17.109  1.0906 -2.4188 -0.3159
  823TIP3    H223885   0.218   5.030  16.964 -0.1234  1.5846 -1.1321
  824TIP3   OH223886   2.564   4.259   3.622  0.6584  0.0717  0.0797
  824TIP3    H123887   2.613   4.179   3.641  0.9956  0.3728  0.5212
  824TIP3    H223888   2.489   4.256   3.681  0.0534 -0.4574 -0.6954
  825TIP3   OH223889   3.121   1.258  16.417 -0.1014  0.2516  0.8221
  825TIP3    H123890   3.040   1.304  16.438 -0.9633  0.5728 -2.6090
  825TIP3    H223891   3.102   1.166  16.437 -1.1705  0.3705  0.4028
  826TIP3   OH223892   6.304   4.310   0.787 -0.2123  0.5962  0.4491
  826TIP3    H123893   6.399   4.310   0.796  0.0154 -1.2822 -1.3426
  826TIP3    H223894   6.273   4.255   0.859 -0.0644  1.9531  1.5955
  827TIP3   OH223895   4.579   3.384   3.222 -0.1946  0.0494 -0.2391
  827TIP3    H123896   4.584   3.338   3.139  0.6338  1.4498 -1.0091
  827TIP3    H223897   4.632   3.331   3.282  1.1937  0.2443 -1.2404
  828TIP3   OH223898   1.160   1.767   2.457  0.6689  0.3429  0.0461
  828TIP3    H123899   1.248   1.730   2.464  0.1555 -0.6566  4.8349
  828TIP3    H223900   1.172   1.860   2.474  0.8506  0.2800  0.2728
  829TIP3   OH223901   0.545   4.294   1.221  0.5152 -0.2984  0.8097
  829TIP3    H123902   0.553   4.323   1.312  1.8100 -0.6604  0.8396
  829TIP3    H223903   0.511   4.370   1.174 -1.3280 -0.4676  1.7672
  830TIP3   OH223904   6.068   2.981   1.328  0.2022 -0.3119 -0.8291
  830TIP3    H123905   5.991   3.037   1.333  0.2855 -0.2725  0.4481
  830TIP3    H223906   6.110   2.991   1.414  0.3983 -2.0629 -0.6852
  831TIP3   OH223907   2.601   4.048  12.701 -0.1056  0.3924 -0.1549
  831TIP3    H123908   2.674   4.052  12.764 -0.5456  0.2140  0.3716
  831TIP3    H223909   2.592   4.138  12.670  0.0227  0.5091  0.1390
  832TIP3   OH223910   3.268   3.928  15.502  0.0385 -0.0690 -0.0339
  832TIP3    H123911   3.173   3.942  15.499 -0.0345 -0.6264 -0.5252
  832TIP3    H223912   3.278   3.833  15.508  0.5713 -0.0469 -0.4781
  833TIP3   OH223913   5.658   5.588  12.092  0.1303  0.0623 -0.2112
  833TIP3    H123914   5.578   5.579  12.144 -0.5259  1.4305 -0.9388
  833TIP3    H223915   5.713   5.648  12.142  0.2730 -0.0698 -0.2085
  834TIP3   OH223916   6.646   6.176   5.587 -0.5052  0.5901 -0.4225
  834TIP3    H123917   6.637   6.218   5.673 -1.1927 -0.2159 -0.0856
  834TIP3    H223918   6.670   6.247   5.528  0.0559  1.1488  0.4469
  835TIP3   OH223919   1.465   2.175  12.946 -0.3029  0.2948 -0.1818
  835TIP3    H123920   1.528   2.147  13.013  1.5712  1.0921 -1.5383
  835TIP3    H223921   1.502   2.257  12.912 -2.6838  1.3979 -0.2660
  836TIP3   OH223922   0.841   2.539   4.971  0.4598 -0.1325  0.5804
  836TIP3    H123923   0.760   2.557   4.923  0.2171 -0.0069  1.0254
  836TIP3    H223924   0.819   2.558   5.062  1.5640  1.9434  0.4801
  837TIP3   OH223925   5.993   5.114   2.487  0.6332  0.0358 -0.4108
  837TIP3    H123926   5.979   5.076   2.574  0.1135  1.2412  0.0541
  837TIP3    H223927   5.905   5.135   2.455  0.9134  1.2685 -0.4373
  838TIP3   OH223928   3.771   4.817  14.729  0.4053 -0.4140  0.7670
  838TIP3    H123929   3.714   4.740  14.721  0.6690 -0.7903  2.2302
  838TIP3    H223930   3.852   4.783  14.768  1.0475  0.3857  0.1732
  839TIP3   OH223931   3.573   2.535  11.791 -0.5615 -0.1226 -0.0936
  839TIP3    H123932   3.566   2.510  11.884 -1.1436  0.6751  0.0929
  839TIP3    H223933   3.555   2.454  11.744 -1.2515 -0.3313  0.4963
  840TIP3   OH223934   6.537   6.636   3.955 -0.0474  0.2721  0.4539
  840TIP3    H123935   6.612   6.695   3.941  0.4460 -0.1853  1.1067
  840TIP3    H223936   6.479   6.653   3.881 -0.6815  2.7268  1.4017
  841TIP3   OH223937   2.635   2.633   4.063  0.1922 -0.3574  0.2697
  841TIP3    H123938   2.590   2.717   4.053  0.8402  0.1426  1.3532
  841TIP3    H223939   2.583   2.571   4.012 -1.4888  0.2662  1.1562
  842TIP3   OH223940   6.136   0.693   2.252  0.1910 -0.2598 -0.0252
  842TIP3    H123941   6.144   0.598   2.262 -1.7470 -0.3201  1.5596
  842TIP3    H223942   6.226   0.725   2.257  0.8224 -1.9544  0.2420
  843TIP3   OH223943   0.969   5.721   2.845  0.1912 -0.5560  0.0945
  843TIP3    H123944   0.980   5.808   2.807  1.2517 -0.3088  0.9355
  843TIP3    H223945   0.943   5.666   2.772 -1.4174  0.6351 -0.2902
  844TIP3   OH223946   0.775   5.924  11.378 -0.2413  0.6945  0.5933
  844TIP3    H123947   0.758   5.965  11.293  1.1050 -0.6666 -0.3935
  844TIP3    H223948   0.689   5.894  11.408 -0.5592 -0.1431 -1.0441
  845TIP3   OH223949   2.165   6.471  13.493 -0.0251  0.5168  0.3807
  845TIP3    H123950   2.155   6.400  13.555  0.1712  0.9256  0.8878
  845TIP3    H223951   2.253   6.505  13.508  0.2548  0.2345 -0.5370
  846TIP3   OH223952   2.000   6.134  12.886  0.5866 -0.2196  0.3661
  846TIP3    H123953   2.087   6.123  12.848  0.6526  0.0873  0.4279
  846TIP3    H223954   1.940   6.101  12.819  0.6525  0.9986 -0.3232
  847TIP3   OH223955   1.974   4.088  17.167  0.1012  0.5630  0.0085
  847TIP3    H123956   2.000   4.013  17.220  0.3768  0.5226 -0.1808
  847TIP3    H223957   2.055   4.137  17.152  0.4530 -0.5141 -2.0812
  848TIP3   OH223958   5.072   0.038   0.627  0.0123  0.5910 -0.4782
  848TIP3    H123959   5.138  -0.024   0.658 -1.4410  0.1947  2.1776
  848TIP3    H223960   5.041   0.001   0.545  2.2089  0.1573 -1.1763
  849TIP3   OH223961   2.682   4.530  14.737 -0.1614 -0.1389  0.2225
  849TIP3    H123962   2.682   4.551  14.643 -0.5699  1.5654  0.5663
  849TIP3    H223963   2.698   4.614  14.780 -0.6959 -0.7736  1.7115
  850TIP3   OH223964   4.827   6.269  15.237  0.9182 -0.0188  0.2010
  850TIP3    H123965   4.793   6.200  15.180  2.3683  0.0166 -0.7669
  850TIP3    H223966   4.874   6.328  15.178  2.2869  0.1486  1.3990
  851TIP3   OH223967   6.115   0.092   4.094 -0.0514 -0.5599  0.4857
  851TIP3    H123968   6.185   0.153   4.071 -1.8734  1.3889 -0.2113
  851TIP3    H223969   6.122   0.084   4.190  0.6305  0.2546  0.5199
  852TIP3   OH223970   6.094   0.674  12.063 -0.3396 -0.2138 -0.2927
  852TIP3    H123971   6.067   0.692  12.153 -1.7234  1.0043 -0.8835
  852TIP3    H223972   6.122   0.760  12.029  0.9122 -0.8016 -0.8047
  853TIP3   OH223973   5.482   2.752   0.796 -0.3415 -0.0326  0.0020
  853TIP3    H123974   5.463   2.662   0.772  1.9480 -0.2387 -1.2503
  853TIP3    H223975   5.522   2.747   0.882 -0.9185 -0.1167  0.2700
  854TIP3   OH223976   0.897   5.925  16.395 -0.0016 -0.2838  0.3094
  854TIP3    H123977   0.956   5.860  16.357 -1.1165 -0.2155 -1.6893
  854TIP3    H223978   0.810   5.898  16.365 -0.9043  0.1457  2.3830
  855TIP3   OH223979   4.773   5.636  11.967  0.4899 -0.5239 -0.4176
  855TIP3    H123980   4.806   5.720  11.997  1.1306 -1.1598  0.7261
  855TIP3    H223981   4.777   5.641  11.871 -0.6370  1.1783 -0.4204
  856TIP3   OH223982   5.442   4.852   4.338  0.1238 -0.1400 -0.6812
  856TIP3    H123983   5.408   4.764   4.351  2.9947 -1.1555  0.6315
  856TIP3    H223984   5.532   4.840   4.308  0.9537  2.3165  0.5391
  857TIP3   OH223985   5.591   4.404  12.401  0.2635  0.1887  0.4750
  857TIP3    H123986   5.670   4.448  12.432  1.4370 -0.0633 -1.9645
  857TIP3    H223987   5.622   4.319  12.369 -1.5041 -1.2261  2.2138
  858TIP3   OH223988   6.500   0.438   0.822  0.2334 -0.2535 -0.4112
  858TIP3    H123989   6.580   0.481   0.852 -0.7705  2.6056 -1.4420
  858TIP3    H223990   6.444   0.434   0.899  0.6098 -0.2972 -0.1435
  859TIP3   OH223991   0.228   4.068  14.078  0.0826  0.3499  0.2033
  859TIP3    H123992   0.239   3.984  14.122  0.0260 -1.9574 -3.7425
  859TIP3    H223993   0.312   4.085  14.036 -0.6809  0.8490 -1.1958
  860TIP3   OH223994   6.325   4.474   2.850 -0.5363  0.0698 -0.3668
  860TIP3    H123995   6.256   4.434   2.796  1.2058 -0.3938 -2.3907
  860TIP3    H223996   6.367   4.400   2.894  0.4388  0.0036 -1.3663
  861TIP3   OH223997   6.727   4.865   0.203 -0.3625 -0.6405  0.2151
  861TIP3    H123998   6.760   4.839   0.289 -0.8968  0.7656  0.8838
  861TIP3    H223999   6.662   4.932   0.222 -0.5242 -0.3339 -1.2931
  862TIP3   OH224000   1.276   5.492   5.455  0.0468 -0.5337 -0.3786
  862TIP3    H124001   1.257   5.437   5.379  2.2446 -0.5044 -1.0202
  862TIP3    H224002   1.369   5.477   5.472  0.1913  1.3855  0.7411
  863TIP3   OH224003   6.047   6.340   4.281  0.4726 -0.3249  0.4949
  863TIP3    H124004   6.058   6.347   4.376  1.0794  0.5292  0.3742
  863TIP3    H224005   6.100   6.412   4.245 -0.3208 -0.1861 -0.4576
  864TIP3   OH224006   1.589   3.479  10.886  0.5680  0.5064 -0.0191
  864TIP3    H124007   1.501   3.508  10.860  0.3720  1.6152  1.7284
  864TIP3    H224008   1.584   3.469  10.981  1.1989 -3.4853 -0.2270
  865TIP3   OH224009   3.877   0.209  12.992 -0.8868  0.3389  0.0382
  865TIP3    H124010   3.807   0.269  12.969 -0.8489  0.2827 -0.2336
  865TIP3    H224011   3.957   0.255  12.966 -0.7839  0.6368  0.8628
  866TIP3   OH224012   0.775   5.695   6.378 -0.0226 -0.1570 -0.7124
  866TIP3    H124013   0.767   5.788   6.398  0.8255 -0.1266 -0.4925
  866TIP3    H224014   0.839   5.662   6.441 -0.2199 -0.8654 -0.8684
  867TIP3   OH224015   1.975   3.257  14.562 -0.5966  0.2014  0.2344
  867TIP3    H124016   1.993   3.330  14.622 -1.1955 -0.8268  1.7371
  867TIP3    H224017   1.941   3.299  14.483  1.6955  1.7134 -0.0483
  868TIP3   OH224018   0.385   0.344  15.634  0.0704 -0.1251 -0.1260
  868TIP3    H124019   0.303   0.335  15.586 -1.5382 -0.2168  2.4523
  868TIP3    H224020   0.443   0.279  15.594 -1.4389 -0.7968 -1.3524
  869TIP3   OH224021   5.332   4.532  13.160  0.4180  0.1259  0.2823
  869TIP3    H124022   5.311   4.476  13.084 -0.4834  0.8355 -0.0033
  869TIP3    H224023   5.403   4.588  13.129  0.0961  0.3700 -0.0191
  870TIP3   OH224024   6.551   2.043  14.001 -0.0806 -0.3077 -0.1963
  870TIP3    H124025   6.457   2.036  14.021  0.0559  1.9655  1.8946
  870TIP3    H224026   6.587   1.958  14.025 -1.3393 -0.5579  0.9757
  871TIP3   OH224027   4.554   3.715  15.519  0.5936  0.0790 -0.5212
  871TIP3    H124028   4.549   3.657  15.443  1.6480 -0.3029 -0.3095
  871TIP3    H224029   4.546   3.657  15.594 -0.5058  0.4631 -0.3166
  872TIP3   OH224030   3.160   1.855   5.359  0.0678  0.3080  0.0587
  872TIP3    H124031   3.100   1.807   5.416 -1.1234  0.1984 -1.2243
  872TIP3    H224032   3.113   1.936   5.337 -0.0664 -0.2097 -1.7385
  873TIP3   OH224033   4.300   4.459   3.640  0.3439 -0.1674  0.0208
  873TIP3    H124034   4.218   4.496   3.673  0.1624 -0.9214  0.4446
  873TIP3    H224035   4.293   4.466   3.545  1.0975  2.5166  0.0951
  874TIP3   OH224036   0.858   5.257  16.606  0.1521  0.4601  0.5340
  874TIP3    H124037   0.878   5.199  16.680  1.2787  0.8532  0.5570
  874TIP3    H224038   0.943   5.280  16.570 -0.3014  1.6118  0.1444
  875TIP3   OH224039   3.756   0.524   0.080 -0.1896 -0.0704 -0.3362
  875TIP3    H124040   3.814   0.453   0.051  1.3537  1.6169 -1.6007
  875TIP3    H224041   3.804   0.567   0.151 -0.0790  1.0061 -1.0320
  876TIP3   OH224042   6.111   6.631  16.020  0.4703 -0.5209 -0.7444
  876TIP3    H124043   6.145   6.591  16.100  0.2012  0.6934  0.0104
  876TIP3    H224044   6.137   6.571  15.950  2.4038 -0.6569  0.0191
  877TIP3   OH224045   5.177   0.384  16.225 -0.3997  0.3507  0.1338
  877TIP3    H124046   5.163   0.310  16.284  0.8995 -1.3626 -1.5870
  877TIP3    H224047   5.222   0.347  16.149 -0.5726  2.7437 -1.2585
  878TIP3   OH224048   3.504   4.327  11.646 -0.2657  0.0147 -0.1792
  878TIP3    H124049   3.494   4.262  11.576  1.1865  1.4713 -1.8587
  878TIP3    H224050   3.509   4.411  11.600 -1.9959  1.3670  1.8911
  879TIP3   OH224051   3.298   6.320  11.709  0.2889  0.2368  0.3494
  879TIP3    H124052   3.218   6.281  11.745 -0.1827  1.6848  0.9420
  879TIP3    H224053   3.369   6.266  11.744 -0.2920  0.3852  1.8102
  880TIP3   OH224054   2.697   2.795  12.420 -0.9356 -0.5497 -0.2012
  880TIP3    H124055   2.779   2.844  12.419 -0.6175 -0.8569  2.7841
  880TIP3    H224056   2.629   2.862  12.410 -0.4234 -0.2319 -2.0281
  881TIP3   OH224057   1.228   3.615   5.697  0.5073  0.1871  1.0573
  881TIP3    H124058   1.227   3.669   5.617  3.5510 -0.7694  0.2356
  881TIP3    H224059   1.246   3.527   5.665  4.9533  0.2274  2.8213
  882TIP3   OH224060   1.031   6.477  11.479  0.3125  0.2520  0.3054
  882TIP3    H124061   1.103   6.518  11.431  0.0365  0.4360  0.0455
  882TIP3    H224062   1.054   6.384  11.483  1.1392  0.4768  1.2327
  883TIP3   OH224063   5.101   3.993  11.731  0.5745 -0.0978 -0.0101
  883TIP3    H124064   5.051   4.011  11.811  0.7528  0.1799  0.0384
  883TIP3    H224065   5.171   3.934  11.760  0.0079 -0.8606 -0.1649
  884TIP3   OH224066   0.706   0.587   4.457  0.4535 -0.6499  0.9094
  884TIP3    H124067   0.779   0.595   4.519 -0.7374  1.9244  2.1192
  884TIP3    H224068   0.644   0.654   4.485 -2.5387 -2.9017  0.0893
  885TIP3   OH224069   3.127   3.937   1.747  0.1767  0.2233  0.4378
  885TIP3    H124070   3.168   3.918   1.663  1.1843  2.3738  0.3821
  885TIP3    H224071   3.131   3.854   1.795  1.7060 -0.4508 -0.7790
  886TIP3   OH224072   5.093   4.715   2.094 -0.4061  0.2613 -0.6855
  886TIP3    H124073   5.130   4.770   2.025  2.7533 -2.6276 -1.5633
  886TIP3    H224074   5.159   4.716   2.164 -1.6900 -0.0239  0.5765
  887TIP3   OH224075   3.323   3.774  11.774 -0.6316 -0.2737  0.2007
  887TIP3    H124076   3.357   3.862  11.791 -0.7975  0.0158 -0.8875
  887TIP3    H224077   3.323   3.732  11.860  1.8134 -0.0740  0.3805
  888TIP3   OH224078   6.775   2.423  15.931 -0.1477  0.1722  0.1109
  888TIP3    H124079   6.763   2.351  15.994  0.5719  0.5403  0.6776
  888TIP3    H224080   6.686   2.442  15.900 -0.3085 -1.3103 -0.4590
  889TIP3   OH224081   6.559   0.638  13.889  0.1914 -0.4538  0.1867
  889TIP3    H124082   6.595   0.551  13.876  0.8520 -0.1626  0.0308
  889TIP3    H224083   6.545   0.672  13.801  2.1469  0.4851  0.1742
  890TIP3   OH224084   0.568   0.837   3.059  0.3977 -0.3219  0.1629
  890TIP3    H124085   0.519   0.911   3.094  0.4187 -0.2102 -0.0461
  890TIP3    H224086   0.517   0.806   2.985  1.0258  0.2777 -0.5336
  891TIP3   OH224087   4.985   2.332  12.671  0.1330 -0.3639 -0.0155
  891TIP3    H124088   4.995   2.237  12.667  0.7161 -0.4066  1.7747
  891TIP3    H224089   4.895   2.346  12.700  0.1865 -0.3794  0.1571
  892TIP3   OH224090   1.726   5.577   5.924  0.6186  0.0123  0.0998
  892TIP3    H124091   1.734   5.635   5.999  1.6665  1.7650 -1.2729
  892TIP3    H224092   1.813   5.577   5.884  0.5546 -2.2670 -0.1792
  893TIP3   OH224093   4.577   3.213  11.309  0.1152 -0.3883 -0.5273
  893TIP3    H124094   4.584   3.254  11.223 -1.7285  0.2298 -0.4298
  893TIP3    H224095   4.607   3.280  11.370  0.1637 -0.3490 -0.5947
  894TIP3   OH224096   2.856   4.636   6.117 -0.3310  0.4020  0.2117
  894TIP3    H124097   2.942   4.673   6.139  0.0861  0.4978 -1.4125
  894TIP3    H224098   2.873   4.543   6.105 -0.8259  0.1146  1.5711
  895TIP3   OH224099   4.004   5.343   2.030 -0.0607 -0.3813 -0.5921
  895TIP3    H124100   4.028   5.432   2.057  2.7048 -0.8937 -1.1608
  895TIP3    H224101   4.015   5.343   1.934 -1.3286 -1.0014 -0.7616
  896TIP3   OH224102   1.726   3.867   5.748 -0.1920 -0.0106 -1.0588
  896TIP3    H124103   1.715   3.808   5.823  0.5242  1.2401  0.0640
  896TIP3    H224104   1.637   3.897   5.728 -0.2372  0.8430  0.3103
  897TIP3   OH224105   4.644   3.343   3.769  0.2706 -0.4814 -0.6301
  897TIP3    H124106   4.569   3.301   3.727  0.4308 -1.5512  0.1218
  897TIP3    H224107   4.611   3.429   3.795 -0.3459 -0.4898 -1.3389
  898TIP3   OH224108   1.278   5.361   1.627 -0.8445 -0.5155  0.0848
  898TIP3    H124109   1.317   5.281   1.592  1.5884 -0.9555  3.4033
  898TIP3    H224110   1.188   5.336   1.650 -0.9320 -1.5065 -1.1939
  899TIP3   OH224111   1.349   0.610  15.774  0.1453  0.3520  0.0656
  899TIP3    H124112   1.302   0.533  15.744  2.0206 -0.6834 -0.3710
  899TIP3    H224113   1.370   0.592  15.866  2.1138 -0.5066 -0.5091
  900TIP3   OH224114   4.497   5.995  15.941 -0.2248 -0.1019 -0.4551
  900TIP3    H124115   4.460   5.983  15.854  0.6020  0.6640 -0.9222
  900TIP3    H224116   4.479   6.086  15.963  0.1163 -0.1207 -0.0864
  901TIP3   OH224117   5.193   0.232   4.910 -0.2736 -0.5901  0.2310
  901TIP3    H124118   5.273   0.190   4.880 -0.0275 -0.8900  1.2707
  901TIP3    H224119   5.221   0.320   4.937 -0.3187 -0.6303  0.4152
  902TIP3   OH224120   1.267   2.224  11.795 -0.5707 -0.2064  0.2532
  902TIP3    H124121   1.182   2.265  11.814  0.0028  2.1430 -1.7771
  902TIP3    H224122   1.330   2.283  11.835  0.1981 -0.4846 -0.5341
  903TIP3   OH224123   1.166   5.579  15.714 -0.1521 -0.4179  0.7105
  903TIP3    H124124   1.240   5.555  15.770 -0.9130 -0.0975  1.8632
  903TIP3    H224125   1.153   5.502  15.658  2.0730  0.1094 -0.6676
  904TIP3   OH224126   1.356   6.570   1.377 -0.2835 -0.3661  0.2670
  904TIP3    H124127   1.380   6.662   1.365 -0.6911  0.0374  2.2377
  904TIP3    H224128   1.383   6.528   1.295 -0.6177  1.5942 -0.9307
  905TIP3   OH224129   0.361   2.219  11.314  0.0779 -0.3647  0.4650
  905TIP3    H124130   0.281   2.227  11.262  0.7012  1.9580 -0.2627
  905TIP3    H224131   0.363   2.299  11.367  1.6077 -0.6673  0.8995
  906TIP3   OH224132   6.793   1.127  16.597 -0.1182  0.1734  0.8204
  906TIP3    H124133   6.762   1.137  16.688  0.2513  0.7858  0.8829
  906TIP3    H224134   6.733   1.063  16.559 -2.8100  2.7398  0.3486
  907TIP3   OH224135   1.609   6.712   4.618 -0.2378  0.0165 -0.2235
  907TIP3    H124136   1.647   6.786   4.570  1.3711  0.9302  2.2631
  907TIP3    H224137   1.534   6.750   4.663 -1.6722 -0.8147 -1.7685
  908TIP3   OH224138   4.352   0.878   0.604 -0.5294 -0.2211  0.0394
  908TIP3    H124139   4.357   0.798   0.657  1.1288  0.7389  1.4491
  908TIP3    H224140   4.270   0.870   0.556 -1.6901 -1.5708  2.1006
  909TIP3   OH224141   4.053   3.543   2.117 -0.1001  0.0062 -0.4275
  909TIP3    H124142   4.053   3.610   2.186  0.7321 -1.0413  0.6296
  909TIP3    H224143   4.011   3.586   2.043 -3.6175  0.3123  1.5217
  910TIP3   OH224144   4.114   1.146   6.180 -0.6801 -0.3251 -0.1121
  910TIP3    H124145   4.117   1.089   6.257  1.8895 -0.0740  0.0852
  910TIP3    H224146   4.151   1.229   6.210  0.2339 -0.1682 -1.5557
  911TIP3   OH224147   4.339   1.948  13.063 -0.3982  0.3813  0.1814
  911TIP3    H124148   4.250   1.983  13.060 -0.7591 -0.5774 -1.2696
  911TIP3    H224149   4.390   2.008  13.008 -0.3460  0.3911  0.2407
  912TIP3   OH224150   2.336   4.676  15.541  0.3955 -0.7686  0.3328
  912TIP3    H124151   2.346   4.631  15.457  2.2718 -0.1635  0.1666
  912TIP3    H224152   2.248   4.712  15.539 -0.8154 -3.4942  0.0435
  913TIP3   OH224153   5.936   0.964   1.138  0.1620  0.6352 -0.4928
  913TIP3    H124154   5.989   1.043   1.133  0.2632  0.5934 -0.1185
  913TIP3    H224155   5.997   0.892   1.124  0.4914  0.5043  1.3585
  914TIP3   OH224156   6.568   6.228  13.026  0.2245  0.4974  0.0905
  914TIP3    H124157   6.607   6.310  13.057 -0.6117  0.1684  2.1948
  914TIP3    H224158   6.500   6.255  12.965  1.0844  1.2627 -0.5539
  915TIP3   OH224159   6.392   1.908   1.079 -0.1252 -0.0831  0.4552
  915TIP3    H124160   6.349   1.841   1.026 -2.4636  0.7251  1.2119
  915TIP3    H224161   6.480   1.874   1.095  0.8352 -0.3088 -4.0128
  916TIP3   OH224162   2.802   3.626   3.213 -0.5456  0.2071 -0.2906
  916TIP3    H124163   2.884   3.584   3.188 -0.3004  0.9030 -0.6921
  916TIP3    H224164   2.812   3.717   3.185 -1.2260  0.4393  0.1820
  917TIP3   OH224165   5.490   3.922   3.500 -0.6169  0.6095 -0.4501
  917TIP3    H124166   5.513   3.830   3.511 -1.1695  0.3866 -1.0379
  917TIP3    H224167   5.563   3.970   3.538 -0.3350 -0.0711 -0.1056
  918TIP3   OH224168   4.713   6.046   4.833 -0.2646  0.0270 -0.3258
  918TIP3    H124169   4.767   6.012   4.761 -1.8258 -0.8080 -1.1695
  918TIP3    H224170   4.642   5.982   4.842  0.2506 -0.2806  2.4832
  919TIP3   OH224171   1.595   0.494  12.433 -0.0680  0.2391 -0.0526
  919TIP3    H124172   1.658   0.422  12.431 -0.7780 -0.3843 -0.1307
  919TIP3    H224173   1.587   0.521  12.342  1.6454  1.7128  0.1824
  920TIP3   OH224174   2.573   3.338  11.732  0.0696 -0.3560 -0.1877
  920TIP3    H124175   2.506   3.280  11.695 -0.1942  0.6324 -1.3189
  920TIP3    H224176   2.543   3.426  11.711  0.2041  0.2431  1.9604
  921TIP3   OH224177   6.268   2.093   1.797  0.7170 -0.7555 -0.4580
  921TIP3    H124178   6.244   2.023   1.736 -1.1198  0.9483 -1.8467
  921TIP3    H224179   6.198   2.093   1.862 -0.3831  0.9247 -1.5585
  922TIP3   OH224180   2.801   2.528   5.777 -0.1905 -0.1810 -0.9332
  922TIP3    H124181   2.864   2.566   5.714  1.0119  0.1495  0.4113
  922TIP3    H224182   2.739   2.599   5.793  2.2016  1.5351  1.7824
  923TIP3   OH224183   0.703   0.981  11.355 -0.5266 -0.3142  0.5580
  923TIP3    H124184   0.730   0.904  11.406  0.0674  0.0591  0.8100
  923TIP3    H224185   0.733   0.961  11.266 -0.7822 -0.5749  0.5275
  924TIP3   OH224186   6.195   5.694  12.132 -0.3520 -0.2614  0.4311
  924TIP3    H124187   6.125   5.635  12.160 -1.6667  0.8325 -0.3790
  924TIP3    H224188   6.192   5.766  12.195  0.7020 -0.6565  0.9475
  925TIP3   OH224189   1.767   6.695   1.430 -0.0056 -0.0156 -0.5234
  925TIP3    H124190   1.862   6.685   1.431 -0.0986 -1.1043 -0.8707
  925TIP3    H224191   1.751   6.775   1.379  0.6715 -0.8726 -2.1594
  926TIP3   OH224192   2.279   4.395   4.106  0.0419  0.3864 -0.2067
  926TIP3    H124193   2.216   4.373   4.175  1.0811  0.4030  0.7762
  926TIP3    H224194   2.299   4.311   4.064  0.7776  0.0763  0.7301
  927TIP3   OH224195   0.554   3.900  14.805 -0.3377 -0.4502 -0.0705
  927TIP3    H124196   0.627   3.865  14.855 -1.4575 -0.1750  1.8544
  927TIP3    H224197   0.582   3.988  14.780  0.4615 -0.8047 -0.4521
  928TIP3   OH224198   4.438   6.682   0.802  0.2022 -0.5814 -0.2324
  928TIP3    H124199   4.423   6.588   0.799  0.1591 -0.5595 -0.8541
  928TIP3    H224200   4.534   6.691   0.806  0.1774 -0.6641  0.9884
  929TIP3   OH224201   5.008   2.933   2.613 -0.0294 -0.5006 -0.7099
  929TIP3    H124202   5.046   2.863   2.665  0.2594 -0.0470 -0.3058
  929TIP3    H224203   4.948   2.888   2.553 -0.3532 -1.0225 -0.0012
  930TIP3   OH224204   4.748   4.866  13.234  0.3650 -0.2399 -0.1954
  930TIP3    H124205   4.809   4.795  13.250 -1.0978 -1.0692  2.1601
  930TIP3    H224206   4.683   4.829  13.174 -0.2535 -0.8357  0.8281
  931TIP3   OH224207   4.650   6.473   0.507  0.1530  0.0938  0.0649
  931TIP3    H124208   4.732   6.425   0.519  0.1450 -0.1802 -0.9368
  931TIP3    H224209   4.591   6.412   0.464  0.2260  1.0485 -1.4708
  932TIP3   OH224210   2.089   2.671   3.466  0.2151  0.4336  0.8445
  932TIP3    H124211   1.994   2.673   3.455  0.3473  0.9331 -0.3541
  932TIP3    H224212   2.102   2.634   3.553 -1.0568 -0.6369  0.6235
  933TIP3   OH224213   5.252   1.342   4.406 -0.0203  0.3080  0.4039
  933TIP3    H124214   5.282   1.430   4.380 -0.0526  0.6988  1.6440
  933TIP3    H224215   5.309   1.318   4.479 -0.8570 -0.1550  0.9202
  934TIP3   OH224216   2.890   2.851   1.581  0.3807 -0.1515  0.3737
  934TIP3    H124217   2.801   2.853   1.547  0.1828  0.0908  0.9047
  934TIP3    H224218   2.898   2.929   1.636  1.0002 -0.0324  0.1307
  935TIP3   OH224219   0.758   3.776   3.853  0.8669  0.0080  0.1318
  935TIP3    H124220   0.788   3.800   3.940  2.9247 -0.8259 -0.3004
  935TIP3    H224221   0.675   3.822   3.843  1.7969  2.1439  1.5570
  936TIP3   OH224222   2.722   4.620  15.606 -0.5806 -0.1841 -0.5266
  936TIP3    H124223   2.681   4.648  15.525 -0.2858 -0.5765 -0.8181
  936TIP3    H224224   2.812   4.653  15.600 -0.9331  0.9872  0.2671
  937TIP3   OH224225   6.054   1.281   0.044 -0.0117  0.0977  0.4984
  937TIP3    H124226   6.134   1.329   0.023 -0.4653  1.0279  0.8221
  937TIP3    H224227   6.074   1.190   0.024  2.0606 -0.1244  3.1256
  938TIP3   OH224228   0.940   3.998   5.148  0.0119  0.1625 -0.3826
  938TIP3    H124229   1.028   3.967   5.127  0.5521  0.1336  1.7290
  938TIP3    H224230   0.907   3.937   5.213 -0.7966  1.2801  0.3023
  939TIP3   OH224231   6.619   4.134  15.952 -0.3206 -0.5561 -0.2901
  939TIP3    H124232   6.558   4.091  16.013  0.4832  0.9635  1.7183
  939TIP3    H224233   6.680   4.181  16.009  0.1133  1.4891 -2.2891
  940TIP3   OH224234   5.692   2.739   2.681 -0.3008 -0.0922  0.3455
  940TIP3    H124235   5.685   2.833   2.691 -1.1568  0.2498 -2.4945
  940TIP3    H224236   5.632   2.703   2.746 -2.4541  1.4966 -0.6532
  941TIP3   OH224237   0.115   2.557  14.920  0.2144 -0.0450  0.6216
  941TIP3    H124238   0.099   2.484  14.860  0.0614  0.7985 -0.3923
  941TIP3    H224239   0.043   2.552  14.983 -0.8477  0.3192 -0.5325
  942TIP3   OH224240   3.424   5.461  13.542 -0.3369  0.4230  0.0071
  942TIP3    H124241   3.393   5.546  13.573  1.6409  1.1062  0.2152
  942TIP3    H224242   3.490   5.482  13.476  0.7282 -0.9216  0.5896
  943TIP3   OH224243   4.526   5.091  11.801 -0.1428  0.0372  0.3791
  943TIP3    H124244   4.468   5.024  11.838  0.8614 -0.3806  1.2517
  943TIP3    H224245   4.598   5.097  11.864 -0.3982  2.2397  0.5177
  944TIP3   OH224246   0.376   4.402  13.652  0.1626  0.4026  0.5444
  944TIP3    H124247   0.389   4.469  13.585  1.5980 -0.4679 -0.0928
  944TIP3    H224248   0.439   4.424  13.721  1.2274 -0.7044 -0.0333
  945TIP3   OH224249   4.381   1.350  11.048 -0.3551  0.0932 -0.5986
  945TIP3    H124250   4.475   1.328  11.046 -0.2718 -0.0065  1.7759
  945TIP3    H224251   4.346   1.310  10.969  1.4206 -0.7660 -1.0172
  946TIP3   OH224252   5.360   4.894  16.089 -0.3036  0.1929 -1.0284
  946TIP3    H124253   5.294   4.825  16.098 -0.4387  0.6160  2.9559
  946TIP3    H224254   5.310   4.975  16.087 -0.0556  0.4802  1.4409
  947TIP3   OH224255   1.337   2.862   2.130 -1.1544  0.3926 -0.3869
  947TIP3    H124256   1.386   2.836   2.052 -1.1714  0.2597 -0.3538
  947TIP3    H224257   1.275   2.927   2.098 -0.9945  0.5207 -0.4383
  948TIP3   OH224258   4.102   0.576   3.999 -0.4573  0.0119  0.4113
  948TIP3    H124259   4.125   0.529   4.079  0.8347  0.3399  0.2618
  948TIP3    H224260   4.117   0.513   3.928  0.8275  0.4627  0.2491
  949TIP3   OH224261   2.492   2.091   0.804 -0.4336 -0.8100  0.2069
  949TIP3    H124262   2.404   2.092   0.843 -0.9658 -1.7169 -0.9120
  949TIP3    H224263   2.540   2.158   0.853 -1.9195  0.1419  0.4487
  950TIP3   OH224264   3.628   0.227   1.203  0.0707 -0.1863  0.3756
  950TIP3    H124265   3.638   0.249   1.295  0.7150 -1.7953  0.7250
  950TIP3    H224266   3.697   0.163   1.185 -0.3605 -0.2912 -1.0939
  951TIP3   OH224267   5.273   0.272   2.705  0.2067  0.2615  0.7422
  951TIP3    H124268   5.194   0.218   2.702  1.1162 -1.2894  2.2883
  951TIP3    H224269   5.277   0.303   2.795  3.4490 -3.2639  2.1132
  952TIP3   OH224270   1.234   4.211   1.311 -0.2300  0.4190  0.4728
  952TIP3    H124271   1.280   4.166   1.240 -0.5278 -0.4437  0.8152
  952TIP3    H224272   1.211   4.297   1.274  0.5567  0.3916 -0.1069
  953TIP3   OH224273   2.985   0.822  12.093  0.1466  0.6285  0.0259
  953TIP3    H124274   2.892   0.801  12.088  0.1207  0.7973 -0.2004
  953TIP3    H224275   3.012   0.831  12.002  1.5137 -4.3155 -0.3737
  954TIP3   OH224276   2.624   3.998   3.703 -0.0458 -0.4242 -0.1727
  954TIP3    H124277   2.604   3.926   3.642  0.0740  0.6542 -1.5374
  954TIP3    H224278   2.577   3.975   3.783 -1.1402 -1.3545 -1.0396
  955TIP3   OH224279   2.148   6.039  14.072  0.5359  0.1175 -0.5294
  955TIP3    H124280   2.234   6.008  14.102 -0.4494  0.0435  2.4883
  955TIP3    H224281   2.094   5.960  14.070  0.3962  0.2178 -2.0983
  956TIP3   OH224282   0.213   0.539   4.000  0.2205 -0.0060  0.0402
  956TIP3    H124283   0.262   0.621   3.987 -0.5959  0.4953  0.0346
  956TIP3    H224284   0.205   0.531   4.095  0.0426  0.0725  0.0308
  957TIP3   OH224285   0.550   1.451  17.054  0.4642 -0.0450 -0.0389
  957TIP3    H124286   0.498   1.395  16.997  1.1110 -0.1508 -0.5412
  957TIP3    H224287   0.639   1.417  17.047  0.4164 -0.6394  1.7651
  958TIP3   OH224288   0.688   3.186   4.884  0.0487 -1.1827  0.0571
  958TIP3    H124289   0.734   3.107   4.913 -0.6417 -1.5962  0.0555
  958TIP3    H224290   0.735   3.258   4.926  1.4097 -1.4879 -0.8535
  959TIP3   OH224291   2.667   2.127   1.319 -0.2536  0.7435  0.0303
  959TIP3    H124292   2.606   2.159   1.385 -0.8033 -2.1950  1.1163
  959TIP3    H224293   2.731   2.076   1.368  0.4802  0.0752 -1.5350
  960TIP3   OH224294   5.608   4.548  13.495  0.4501 -0.0643  0.4449
  960TIP3    H124295   5.650   4.513  13.574  3.5471 -1.1808 -1.5159
  960TIP3    H224296   5.571   4.472  13.451  2.0934 -0.0995 -0.9783
  961TIP3   OH224297   6.168   1.132  15.120  0.8939 -0.5619  0.4743
  961TIP3    H124298   6.214   1.201  15.169 -0.4472 -0.7135  2.0104
  961TIP3    H224299   6.084   1.171  15.097  0.6183 -1.2847  0.2378
  962TIP3   OH224300   5.129   0.158  16.385  0.4999  0.1785  0.4783
  962TIP3    H124301   5.137   0.063  16.389  0.0332  0.1169 -0.0646
  962TIP3    H224302   5.048   0.177  16.432  0.0167  0.2179 -0.3652
  963TIP3   OH224303   6.524   3.646  13.405 -0.3041 -0.1633  0.5846
  963TIP3    H124304   6.601   3.600  13.438 -0.9861 -1.4587  0.4185
  963TIP3    H224305   6.466   3.655  13.481  0.4595  1.8642  0.9937
  964TIP3   OH224306   0.275   2.980  15.962  0.0978  0.2730 -0.0881
  964TIP3    H124307   0.248   2.971  15.871 -1.3113  0.7866  0.2669
  964TIP3    H224308   0.323   3.063  15.965 -1.0898  0.9866 -0.1056
  965TIP3   OH224309   6.773   4.643  13.194 -0.0470 -0.0721 -0.1187
  965TIP3    H124310   6.692   4.657  13.242 -0.7470  1.1570 -1.5797
  965TIP3    H224311   6.811   4.564  13.233 -1.2530  0.1035  1.4852
  966TIP3   OH224312   6.159   3.038   5.574  0.1264  0.1340  0.5431
  966TIP3    H124313   6.107   2.958   5.566  0.7815 -0.1715 -1.0930
  966TIP3    H224314   6.095   3.106   5.595 -0.8299 -0.4104 -0.4669
  967TIP3   OH224315   5.227   5.138  12.926 -0.2069  0.1865 -0.4217
  967TIP3    H124316   5.157   5.098  12.977 -0.4255  0.0702 -0.8118
  967TIP3    H224317   5.279   5.186  12.990 -1.8332  2.0221 -0.3822
  968TIP3   OH224318   5.081   6.254   5.959 -0.2803  0.0620  0.2955
  968TIP3    H124319   5.021   6.194   6.003 -1.3718  1.6006  1.0410
  968TIP3    H224320   5.069   6.337   6.006  0.4082  1.1174 -1.3135
  969TIP3   OH224321   5.911   1.978   3.471 -0.5669 -0.0971 -0.3451
  969TIP3    H124322   6.000   2.014   3.479 -0.0945 -1.1997 -0.4753
  969TIP3    H224323   5.885   2.000   3.382 -0.6055  0.6166 -0.1643
  970TIP3   OH224324   4.209   2.977  11.504 -0.4492  0.1874 -0.2633
  970TIP3    H124325   4.224   3.011  11.415 -1.6633  1.6131  0.0377
  970TIP3    H224326   4.285   3.006  11.554  0.7671 -1.5054 -1.0117
  971TIP3   OH224327   0.507   1.897  16.490 -0.3147 -0.0495  0.2887
  971TIP3    H124328   0.503   1.803  16.471  0.2093  0.0611 -0.4209
  971TIP3    H224329   0.437   1.912  16.553  0.0041 -1.0295  0.8972
  972TIP3   OH224330   6.006   1.849  16.034 -0.0873 -0.1767  0.3601
  972TIP3    H124331   6.015   1.918  16.100 -1.5112  0.5003 -0.1212
  972TIP3    H224332   5.975   1.894  15.956 -0.1279 -1.2319 -0.2482
  973TIP3   OH224333   1.238   0.460   4.444  0.5822 -0.1627  0.0117
  973TIP3    H124334   1.276   0.522   4.506 -1.1493 -0.4056  1.3663
  973TIP3    H224335   1.144   0.465   4.458  0.3620 -3.2301  0.3277
  974TIP3   OH224336   1.476   0.739  11.230 -0.0763  0.6236  0.2971
  974TIP3    H124337   1.419   0.815  11.228 -0.5016  0.2955 -0.2505
  974TIP3    H224338   1.422   0.667  11.197  0.7246  0.3658 -0.4909
  975TIP3   OH224339   3.169   1.025  15.000  0.2446  0.2380 -0.4830
  975TIP3    H124340   3.114   1.072  15.063  1.5033  1.4421 -0.2422
  975TIP3    H224341   3.256   1.023  15.041  0.4982 -1.2767 -1.0310
  976TIP3   OH224342   0.106   6.629   0.144 -0.4229 -0.4656 -0.4434
  976TIP3    H124343   0.157   6.558   0.105 -0.0882  0.4906 -1.7839
  976TIP3    H224344   0.064   6.588   0.220  1.1154 -1.6595 -0.1718
  977TIP3   OH224345   0.403   4.843   2.892 -0.2018  0.7541 -0.0586
  977TIP3    H124346   0.444   4.790   2.823  1.1849  1.1465  0.4302
  977TIP3    H224347   0.359   4.913   2.844 -1.2300 -0.2733 -0.6598
  978TIP3   OH224348   2.023   1.654  15.412  0.5466  0.5554  0.4485
  978TIP3    H124349   2.033   1.620  15.501 -1.7782  0.1355  0.6154
  978TIP3    H224350   1.998   1.577  15.360  0.5063  1.0524 -0.2747
  979TIP3   OH224351   3.094   4.698   0.991  0.8042 -0.2412  0.2620
  979TIP3    H124352   3.023   4.698   0.926 -0.5447 -0.0486  1.6777
  979TIP3    H224353   3.174   4.703   0.939 -0.1884 -0.8546 -1.4173
  980TIP3   OH224354   1.197   1.118  13.537 -0.3107  0.0969  0.3673
  980TIP3    H124355   1.286   1.090  13.562 -0.4827 -0.3642  0.4876
  980TIP3    H224356   1.210   1.183  13.469  0.1418  0.5313  0.8574
  981TIP3   OH224357   4.858   6.043  13.072 -0.2918 -0.4974  0.3022
  981TIP3    H124358   4.871   6.102  12.997 -0.1935 -0.9613 -0.0527
  981TIP3    H224359   4.819   6.098  13.139 -0.4216 -0.0803 -0.1077
  982TIP3   OH224360   2.362   1.821  12.644 -0.0222 -0.5221 -0.6158
  982TIP3    H124361   2.421   1.896  12.645 -0.4766 -0.1627 -0.0816
  982TIP3    H224362   2.346   1.803  12.737 -0.8691 -0.5202 -0.7562
  983TIP3   OH224363   3.690   4.542   0.170 -0.3176 -0.2119  0.1032
  983TIP3    H124364   3.700   4.513   0.079 -0.0033 -2.0215  0.6891
  983TIP3    H224365   3.747   4.619   0.176  2.8138 -2.3328 -0.2469
  984TIP3   OH224366   3.889   5.956  11.481  0.2413 -0.3505 -0.3986
  984TIP3    H124367   3.979   5.923  11.492 -0.1026 -2.4180 -2.7476
  984TIP3    H224368   3.900   6.039  11.435  0.9699  0.2101  0.7386
  985TIP3   OH224369   0.269   0.134  13.638  0.2237 -0.0478 -0.2778
  985TIP3    H124370   0.192   0.101  13.592 -0.0912 -2.1021  1.5588
  985TIP3    H224371   0.331   0.061  13.638  2.1176  1.4369 -1.4249
  986TIP3   OH224372   3.341   5.520  10.382  0.0148  0.0385  0.7264
  986TIP3    H124373   3.305   5.598  10.340 -0.0940 -0.4364 -0.0799
  986TIP3    H224374   3.434   5.522  10.359 -0.0623 -0.2691  0.3864
  987TIP3   OH224375   1.849   1.424   3.720 -0.2528  0.1236 -0.2687
  987TIP3    H124376   1.766   1.426   3.673 -0.8390 -2.4864  0.5036
  987TIP3    H224377   1.874   1.332   3.722  0.4799  0.2578  3.2240
  988TIP3   OH224378   0.973   5.536  16.639  0.0504 -0.3211 -0.2725
  988TIP3    H124379   0.915   5.562  16.567  1.0456  0.6072 -0.7618
  988TIP3    H224380   0.915   5.527  16.714 -0.4981  2.6252 -0.2397
  989TIP3   OH224381   2.323   6.239  12.336 -0.4334 -0.2708  0.2953
  989TIP3    H124382   2.283   6.313  12.290 -0.2032 -0.8073 -0.7817
  989TIP3    H224383   2.341   6.175  12.268  2.1065 -0.1405  0.7287
  990TIP3   OH224384   5.517   2.645   3.459  0.1515  0.3397 -0.6039
  990TIP3    H124385   5.595   2.690   3.491  0.9475 -1.2659 -0.1605
  990TIP3    H224386   5.537   2.552   3.469 -1.4313 -0.1378 -1.4375
  991TIP3   OH224387   3.753   6.623  12.438  0.4159 -0.0949 -0.3635
  991TIP3    H124388   3.839   6.582  12.438  0.3918 -0.1668 -1.4121
  991TIP3    H224389   3.770   6.716  12.449  0.5905 -0.1552 -0.0976
  992TIP3   OH224390   6.022   0.746   3.048  0.4927 -0.0338 -0.0892
  992TIP3    H124391   5.957   0.712   2.987 -0.5822 -0.0663  1.0419
  992TIP3    H224392   6.022   0.684   3.121  1.2583  0.3722  0.2734
  993TIP3   OH224393   3.992   5.481   2.546 -0.2139  0.6258 -0.0635
  993TIP3    H124394   3.901   5.470   2.518  0.0826 -1.8528 -0.2398
  993TIP3    H224395   4.041   5.416   2.495  1.5332  1.3377  0.6396
  994TIP3   OH224396   5.233   2.348  17.130 -0.3437  1.0644 -0.1688
  994TIP3    H124397   5.207   2.283  17.065 -0.5259  0.8012  0.1634
  994TIP3    H224398   5.162   2.413  17.128 -0.5341  0.8658  0.0244
  995TIP3   OH224399   0.536   5.619  16.339 -0.0346  0.1979  0.0870
  995TIP3    H124400   0.479   5.582  16.272  1.1336 -1.3537 -0.1013
  995TIP3    H224401   0.518   5.567  16.418  0.8566 -0.0946  0.1105
  996TIP3   OH224402   0.449   4.802   5.278 -0.1363 -0.2074  0.5609
  996TIP3    H124403   0.469   4.855   5.356  0.0725  1.6967 -0.7213
  996TIP3    H224404   0.354   4.795   5.278 -0.3808  2.1272 -0.3855
  997TIP3   OH224405   1.087   0.089   5.910 -0.2041 -0.3020 -0.3906
  997TIP3    H124406   1.058   0.170   5.867 -0.1207  1.1880  2.1467
  997TIP3    H224407   1.006   0.041   5.927 -0.4549  0.1515 -0.2733
  998TIP3   OH224408   6.574   5.397   1.907 -0.1400  0.1794 -0.5287
  998TIP3    H124409   6.539   5.308   1.905 -2.1365  0.7978  1.7742
  998TIP3    H224410   6.663   5.387   1.941 -0.4599 -0.9250  0.0490
  999TIP3   OH224411   4.257   5.250  12.210 -0.3447  0.4037 -0.2809
  999TIP3    H124412   4.175   5.231  12.257 -0.5647  1.1884 -0.3384
  999TIP3    H224413   4.300   5.316  12.264 -0.4611  1.1025 -1.0345
 1000TIP3   OH224414   3.042   2.314   3.079 -0.1265  0.1749  0.9953
 1000TIP3    H124415   2.956   2.353   3.064 -0.2967 -0.0073  1.4750
 1000TIP3    H224416   3.068   2.279   2.993 -1.6208 -1.9156  1.3141
 1001TIP3   OH224417   4.475   3.486  14.100  0.3766  0.2064  0.4319
 1001TIP3    H124418   4.501   3.494  14.192  2.1932  0.4397 -0.0647
 1001TIP3    H224419   4.440   3.572  14.077 -1.4380 -0.2688  1.2603
 1002TIP3   OH224420   2.364   4.834  13.347 -0.0553  0.1552  0.0393
 1002TIP3    H124421   2.290   4.865  13.401 -0.7233 -3.0465  1.1579
 1002TIP3    H224422   2.327   4.823  13.260 -1.2872 -2.3406  0.7973
 1003TIP3   OH224423   2.158   5.077   2.369  0.0816 -0.1300 -0.2376
 1003TIP3    H124424   2.210   5.057   2.291  1.9088 -1.5720  1.2380
 1003TIP3    H224425   2.123   4.993   2.397  0.4492  0.1327  1.1176
 1004TIP3   OH224426   3.009   6.368  16.507  0.0742  0.6065 -0.1098
 1004TIP3    H124427   3.004   6.452  16.554 -0.4015  0.7690 -0.4390
 1004TIP3    H224428   2.962   6.384  16.425 -1.5714 -0.4740  0.5617
 1005TIP3   OH224429   3.396   2.202  14.939 -0.0718 -0.1762 -0.5578
 1005TIP3    H124430   3.428   2.140  14.873 -1.0509 -0.1955 -1.0353
 1005TIP3    H224431   3.401   2.153  15.022 -0.8855 -0.9368 -0.9388
 1006TIP3   OH224432   6.152   6.141  11.748  0.1585 -0.2526 -1.0126
 1006TIP3    H124433   6.233   6.152  11.797 -0.8551  1.3004  0.4250
 1006TIP3    H224434   6.091   6.102  11.811 -0.6857  0.1314 -1.5689
 1007TIP3   OH224435   1.718   1.065   1.518 -0.1970  0.2359  0.2661
 1007TIP3    H124436   1.755   1.082   1.432  1.3003  2.0198  1.1952
 1007TIP3    H224437   1.638   1.118   1.521  0.3239  1.0207  0.3499
 1008TIP3   OH224438   4.588   6.747  13.671  0.5473 -0.7431  0.1355
 1008TIP3    H124439   4.625   6.717  13.588 -1.8308 -1.4257 -0.7673
 1008TIP3    H224440   4.662   6.749  13.732  2.1199 -1.4291 -1.6649
 1009TIP3   OH224441   3.471   2.893  11.703  0.7355 -0.0884 -0.3729
 1009TIP3    H124442   3.454   2.949  11.627  0.7981 -0.9350 -1.0317
 1009TIP3    H224443   3.567   2.889  11.708  0.7547 -1.4922 -1.3845
 1010TIP3   OH224444   6.129   6.221  13.033 -0.1413 -0.0329 -1.1976
 1010TIP3    H124445   6.112   6.290  12.969 -2.4163  0.0648 -0.5815
 1010TIP3    H224446   6.043   6.183  13.050  0.8336 -1.9855 -0.3385
 1011TIP3   OH224447   4.011   5.869  15.996  0.0273 -0.1718  0.0191
 1011TIP3    H124448   3.915   5.866  15.989 -0.0593  0.9590  0.5236
 1011TIP3    H224449   4.041   5.859  15.905 -0.5412 -0.9854 -0.0971
 1012TIP3   OH224450   3.833   2.980  16.963  0.0551  0.4013  0.3444
 1012TIP3    H124451   3.761   2.919  16.948 -0.2471  0.9490 -0.4749
 1012TIP3    H224452   3.831   3.039  16.888 -0.7499  2.4981  1.9082
 1013TIP3   OH224453   1.261   5.874  11.089 -0.1546 -0.0764  0.4983
 1013TIP3    H124454   1.318   5.882  11.012 -1.3210 -1.9366 -0.6591
 1013TIP3    H224455   1.320   5.877  11.164  0.9273  2.9033 -0.3461
 1014TIP3   OH224456   6.329   2.537   1.731 -0.9639  0.5108  0.0849
 1014TIP3    H124457   6.360   2.471   1.793 -0.3094  1.6773  1.0237
 1014TIP3    H224458   6.283   2.601   1.785 -2.0553  0.5748 -0.8810
 1015TIP3   OH224459   4.830   5.425  17.085  0.1792 -0.7043  0.2236
 1015TIP3    H124460   4.798   5.393  17.001  1.0651  1.9853 -1.2635
 1015TIP3    H224461   4.922   5.399  17.087  0.1760 -0.7077  0.3187
 1016TIP3   OH224462   3.447   2.260  13.906  0.1308  0.3282 -0.3739
 1016TIP3    H124463   3.420   2.300  13.823  0.7869  1.0033 -0.2734
 1016TIP3    H224464   3.366   2.251  13.955 -0.0891  1.2554 -0.5318
 1017TIP3   OH224465   3.592   6.603   1.578 -0.5162 -0.0688 -0.0129
 1017TIP3    H124466   3.656   6.559   1.633 -0.4894 -0.6509 -0.5041
 1017TIP3    H224467   3.644   6.657   1.518 -0.4898 -0.4666 -0.3479
 1018TIP3   OH224468   0.933   6.101  10.320 -0.3361 -0.0832 -0.2942
 1018TIP3    H124469   0.857   6.106  10.378 -0.7729  2.7135 -0.9748
 1018TIP3    H224470   0.994   6.166  10.354 -0.9188  2.2119 -3.2235
 1019TIP3   OH224471   2.560   6.499  14.241 -0.1819 -0.0134  0.2372
 1019TIP3    H124472   2.523   6.586  14.226 -0.2943  0.1155  1.1822
 1019TIP3    H224473   2.606   6.507  14.324  0.3599 -0.6873  0.0104
 1020TIP3   OH224474   5.797   5.416  15.339 -0.3711  0.1062  0.0574
 1020TIP3    H124475   5.799   5.502  15.297  0.8005 -0.1747 -0.5076
 1020TIP3    H224476   5.749   5.430  15.420 -1.3959  0.9850 -0.6669
 1021TIP3   OH224477   3.196   6.239   5.459 -0.4237 -0.0078  0.0850
 1021TIP3    H124478   3.123   6.285   5.417 -2.4131 -2.7658  0.2513
 1021TIP3    H224479   3.165   6.222   5.548  0.5628 -0.9428  0.2625
 1022TIP3   OH224480   3.558   6.504   0.130  0.0445 -0.1555 -0.4382
 1022TIP3    H124481   3.484   6.556   0.160  0.4321 -0.9267  2.0583
 1022TIP3    H224482   3.628   6.568   0.118 -0.5767  0.3786 -1.3616
 1023TIP3   OH224483   6.498   1.401  12.988  0.1509  0.4869 -0.5237
 1023TIP3    H124484   6.480   1.414  13.081 -0.4349  0.8351 -0.6791
 1023TIP3    H224485   6.587   1.367  12.985  0.8514  2.1553  0.0674
 1024TIP3   OH224486   4.219   0.047  12.255 -0.4899 -0.1080  0.0822
 1024TIP3    H124487   4.290   0.097  12.295 -0.3469  0.0259 -0.3322
 1024TIP3    H224488   4.169   0.111  12.205  0.0882 -0.4724 -1.0072
 1025TIP3   OH224489   0.131   0.862   4.922  0.1978  0.6252 -0.1003
 1025TIP3    H124490   0.045   0.820   4.915 -0.1258  1.3649 -0.6783
 1025TIP3    H224491   0.113   0.955   4.913  1.2883  0.6725 -2.9821
 1026TIP3   OH224492   5.274   4.016   2.357 -0.4393 -0.1616  0.0907
 1026TIP3    H124493   5.335   3.982   2.291 -0.4550  0.7548 -0.4031
 1026TIP3    H224494   5.195   3.962   2.347 -0.1425 -0.5644 -0.0808
 1027TIP3   OH224495   5.707   3.013   5.711 -0.0637  0.2818  0.1378
 1027TIP3    H124496   5.661   3.093   5.738 -3.0951 -1.4490  0.5262
 1027TIP3    H224497   5.702   2.956   5.787  1.4369 -0.5532 -0.3625
 1028TIP3   OH224498   4.745   4.460   3.417  0.2516 -0.1839 -0.0992
 1028TIP3    H124499   4.817   4.521   3.433  0.6630 -0.9249  1.0127
 1028TIP3    H224500   4.739   4.454   3.322  0.1076  1.6823 -0.2343
 1029TIP3   OH224501   0.529   4.836  15.229  0.4192 -0.1457 -0.1904
 1029TIP3    H124502   0.502   4.753  15.188 -1.0886 -0.5185  1.4299
 1029TIP3    H224503   0.560   4.810  15.316  0.8055  0.9145 -0.0015
 1030TIP3   OH224504   3.940   3.723   6.151  0.4417 -0.3203 -0.1840
 1030TIP3    H124505   3.889   3.802   6.134 -0.4744 -0.9598 -0.4802
 1030TIP3    H224506   3.876   3.652   6.147  1.1998 -1.0513  0.3713
 1031TIP3   OH224507   2.878   3.000  11.862  0.0688  0.1085 -0.3656
 1031TIP3    H124508   2.918   2.920  11.827  0.2984  0.7335 -1.5945
 1031TIP3    H224509   2.854   3.051  11.784 -4.6429 -0.8959  0.1479
 1032TIP3   OH224510   0.664   2.401   0.062  0.0588 -0.4541 -0.3721
 1032TIP3    H124511   0.595   2.358   0.112 -0.1357 -0.1285 -0.3576
 1032TIP3    H224512   0.653   2.368  -0.027 -0.6783  0.2594 -0.5600
 1033TIP3   OH224513   1.935   0.885  10.888  0.2136  0.5673  0.0179
 1033TIP3    H124514   2.009   0.870  10.947  0.2748 -0.3787 -0.2860
 1033TIP3    H224515   1.920   0.801  10.846  0.6412  1.3710 -1.8805
 1034TIP3   OH224516   6.351   3.072   5.058 -0.3394 -0.4364 -0.5135
 1034TIP3    H124517   6.333   3.010   5.129 -0.7815 -1.8276 -1.8014
 1034TIP3    H224518   6.271   3.074   5.007 -0.5585  1.7067 -0.1723
 1035TIP3   OH224519   2.235   3.665  14.613  0.0321 -0.2186  0.0456
 1035TIP3    H124520   2.167   3.726  14.641 -0.6539 -0.7755 -0.3851
 1035TIP3    H224521   2.278   3.709  14.539 -0.3251 -0.1608 -0.1314
 1036TIP3   OH224522   5.832   3.029   4.971 -0.4716  0.1376 -0.1049
 1036TIP3    H124523   5.758   3.006   4.914  0.3903  0.0352 -1.2322
 1036TIP3    H224524   5.841   2.954   5.030 -1.0795  0.0186 -0.1530
 1037TIP3   OH224525   2.370   1.750  11.516 -0.2930  0.4689 -0.5504
 1037TIP3    H124526   2.309   1.763  11.589  0.0571 -0.6465 -0.0327
 1037TIP3    H224527   2.317   1.763  11.437 -1.1856 -0.4357 -0.1118
 1038TIP3   OH224528   0.582   0.763   3.799  0.2021 -0.7257 -0.4980
 1038TIP3    H124529   0.491   0.788   3.789  0.8955  1.9695 -0.7143
 1038TIP3    H224530   0.617   0.763   3.710  1.0580  1.1397 -0.2012
 1039TIP3   OH224531   6.330   4.239   2.390 -0.3530  0.0448  0.2359
 1039TIP3    H124532   6.424   4.242   2.375 -0.3935 -2.1120 -0.8664
 1039TIP3    H224533   6.308   4.146   2.389 -2.5550  0.4994  0.0581
 1040TIP3   OH224534   6.048   2.595  16.647 -0.5166 -0.1346  0.2327
 1040TIP3    H124535   6.124   2.603  16.705 -1.4051  0.3964  1.3663
 1040TIP3    H224536   6.084   2.561  16.565  1.2787  2.0283  0.0200
 1041TIP3   OH224537   5.662   0.496  14.866  0.1051  0.9268  0.1233
 1041TIP3    H124538   5.667   0.420  14.925  2.5989  0.2561 -0.8308
 1041TIP3    H224539   5.629   0.567  14.921  2.2355  0.3012  2.3565
 1042TIP3   OH224540   5.814   2.353   1.222 -0.4376  0.1111  0.6892
 1042TIP3    H124541   5.814   2.291   1.149 -1.8981 -0.1132  0.8528
 1042TIP3    H224542   5.887   2.327   1.276  0.2389 -0.1643 -0.3234
 1043TIP3   OH224543   6.342   0.651  12.175 -0.2845  0.4630 -0.1086
 1043TIP3    H124544   6.423   0.640  12.126  0.3876 -2.2718  1.4441
 1043TIP3    H224545   6.273   0.625  12.113  0.3442 -0.5268 -0.4187
 1044TIP3   OH224546   4.407   1.139  12.195  0.2611 -0.4220  0.2671
 1044TIP3    H124547   4.342   1.188  12.145  1.7332  1.3593 -0.0422
 1044TIP3    H224548   4.423   1.060  12.143  0.9049  0.8313 -1.5331
 1045TIP3   OH224549   5.326   1.827   4.229  0.0605 -0.5033  0.0069
 1045TIP3    H124550   5.326   1.768   4.153 -1.3299  0.2416 -0.5976
 1045TIP3    H224551   5.306   1.913   4.193  1.6113  0.3063  0.9433
 1046TIP3   OH224552   5.133   2.277   4.356  0.0464  0.3058 -0.3600
 1046TIP3    H124553   5.073   2.319   4.295  0.9498  1.4558 -0.4979
 1046TIP3    H224554   5.157   2.195   4.314 -1.3946 -0.1781 -0.3021
 1047TIP3   OH224555   6.638   3.072  15.989 -0.0352  0.4969 -0.9091
 1047TIP3    H124556   6.643   3.002  15.923 -1.1622  1.1833 -1.7576
 1047TIP3    H224557   6.598   3.146  15.943  0.2140  1.3829  0.2461
 1048TIP3   OH224558   1.631   6.691   5.205  0.4215 -0.5588 -0.3478
 1048TIP3    H124559   1.560   6.627   5.208  1.8979 -2.2439  1.1206
 1048TIP3    H224560   1.669   6.688   5.293  1.6246  1.0963 -0.7608
 1049TIP3   OH224561   5.478   6.670   4.530  0.3065  0.2869  0.1735
 1049TIP3    H124562   5.456   6.618   4.453 -0.4619  1.4623 -0.4291
 1049TIP3    H224563   5.561   6.712   4.508  0.4892  0.0005  0.3117
 1050TIP3   OH224564   3.165   5.380  12.430  0.0467 -0.2181  0.5167
 1050TIP3    H124565   3.113   5.334  12.496  0.6678  0.5925  1.6001
 1050TIP3    H224566   3.109   5.382  12.353 -1.8360  1.2285  1.8409
 1051TIP3   OH224567   1.442   1.297   2.125  0.0647 -0.0885  0.3158
 1051TIP3    H124568   1.482   1.384   2.115 -1.7772  0.9366  1.2677
 1051TIP3    H224569   1.356   1.306   2.085 -0.0370 -1.5768  0.1729
 1052TIP3   OH224570   0.870   6.579  13.648  0.2762 -0.6044 -0.3489
 1052TIP3    H124571   0.850   6.548  13.559 -1.5413 -1.7114  0.3772
 1052TIP3    H224572   0.823   6.662  13.655  1.4511  0.1218 -0.8050
 1053TIP3   OH224573   6.443   5.803  16.721 -0.2564  0.5298 -0.7620
 1053TIP3    H124574   6.395   5.879  16.755 -1.2113  1.2198 -3.3993
 1053TIP3    H224575   6.474   5.831  16.634 -0.2993 -1.9404 -1.6579
 1054TIP3   OH224576   4.945   5.847  12.716 -0.2611  0.5257  0.3540
 1054TIP3    H124577   4.963   5.934  12.753  1.4161  0.0636  0.6852
 1054TIP3    H224578   5.004   5.788  12.763 -0.5212 -0.6147 -0.7091
 1055TIP3   OH224579   1.827   2.938   1.908 -0.6680 -0.3742  0.2840
 1055TIP3    H124580   1.743   2.949   1.863 -0.9535  2.4083  1.3700
 1055TIP3    H224581   1.805   2.936   2.001  0.5484  2.2483  0.6982
 1056TIP3   OH224582   5.897   5.542   4.489 -0.4144  0.0677 -0.1036
 1056TIP3    H124583   5.937   5.456   4.501 -1.0477 -0.7366 -3.0381
 1056TIP3    H224584   5.967   5.596   4.452 -0.7754 -0.0567 -0.9990
 1057TIP3   OH224585   1.670   2.640   1.647  0.2690  0.1992  0.4560
 1057TIP3    H124586   1.594   2.582   1.643  0.9589 -0.7695  0.9127
 1057TIP3    H224587   1.649   2.701   1.719 -0.9552  1.2852 -0.7660
 1058TIP3   OH224588   1.264   1.607  10.538 -0.5706 -0.1781 -0.1865
 1058TIP3    H124589   1.323   1.679  10.560  0.6134 -1.0328 -0.4628
 1058TIP3    H224590   1.177   1.648  10.532 -0.0070  1.1204  0.1541
 1059TIP3   OH224591   2.014   6.325   2.740 -0.1548  0.1550 -0.3009
 1059TIP3    H124592   2.011   6.351   2.648 -2.0007  1.6554  0.1181
 1059TIP3    H224593   1.954   6.385   2.783  0.3164 -0.8286  1.8268
 1060TIP3   OH224594   2.129   0.565   5.197 -0.2794  0.0651  0.3007
 1060TIP3    H124595   2.073   0.638   5.223  1.8686  2.5822 -1.5162
 1060TIP3    H224596   2.077   0.486   5.217 -3.3482  2.0746  1.0098
 1061TIP3   OH224597   0.160   4.656  11.174 -0.4324  0.1582 -0.7424
 1061TIP3    H124598   0.148   4.585  11.110 -0.4564  0.4237 -1.0361
 1061TIP3    H224599   0.255   4.669  11.177 -0.3067 -0.8825  0.4147
 1062TIP3   OH224600   4.290   1.834  16.717  0.0078  0.5517 -0.3420
 1062TIP3    H124601   4.213   1.891  16.717 -0.7317 -0.4210 -0.5625
 1062TIP3    H224602   4.327   1.844  16.805 -0.7272  0.5542 -0.0252
 1063TIP3   OH224603   4.909   2.611   0.785 -0.0878  0.6210  0.5065
 1063TIP3    H124604   4.935   2.651   0.868 -0.3205 -1.3444  1.5843
 1063TIP3    H224605   4.992   2.591   0.741  0.0473  1.1304  0.5219
 1064TIP3   OH224606   1.817   4.596  13.297  0.6173  0.0591 -0.6000
 1064TIP3    H124607   1.905   4.632  13.285  0.6218  1.2218  2.1453
 1064TIP3    H224608   1.759   4.672  13.291  0.0615 -0.3004  0.0860
 1065TIP3   OH224609   2.887   5.859   4.966  0.3051  0.3563 -0.4700
 1065TIP3    H124610   2.922   5.788   4.912  3.3829 -0.4789  2.2987
 1065TIP3    H224611   2.793   5.844   4.966  0.6068 -2.2286 -1.9930
 1066TIP3   OH224612   3.450   3.693  14.863 -0.7359  0.0531  0.5131
 1066TIP3    H124613   3.496   3.704  14.947 -0.3494 -0.4191  0.3644
 1066TIP3    H224614   3.394   3.771  14.857  0.4067  0.9063  0.4649
 1067TIP3   OH224615   1.892   1.659   3.541 -0.2021 -0.0031  0.3287
 1067TIP3    H124616   1.981   1.688   3.558  0.1098 -1.4137  1.2881
 1067TIP3    H224617   1.896   1.563   3.545 -1.0503 -0.3242 -3.2655
 1068TIP3   OH224618   3.073   6.708  13.336 -0.0384  0.7354 -0.0025
 1068TIP3    H124619   3.090   6.615  13.323  0.0921  0.7880 -0.2148
 1068TIP3    H224620   3.123   6.752  13.267 -0.6473  0.9246 -0.3267
 1069TIP3   OH224621   2.329   3.359  11.961 -0.5300 -0.2837 -0.8144
 1069TIP3    H124622   2.336   3.316  11.875 -1.5370  1.2556 -1.7214
 1069TIP3    H224623   2.418   3.359  11.995  0.1412  0.1550 -2.4451
 1070TIP3   OH224624   5.121   3.969  12.233  0.3336  0.2066 -0.2178
 1070TIP3    H124625   5.157   3.881  12.215 -0.4780 -0.1764  0.0042
 1070TIP3    H224626   5.199   4.022  12.250  0.7520 -1.1605  2.7229
 1071TIP3   OH224627   0.690   1.713   2.013  0.5091  0.1947  0.6445
 1071TIP3    H124628   0.598   1.689   2.022  0.8207 -1.3577 -0.0421
 1071TIP3    H224629   0.694   1.804   2.043 -2.0894  2.0188 -3.6706
 1072TIP3   OH224630   6.118   6.102  17.084  0.3346  0.6085 -0.0147
 1072TIP3    H124631   6.164   6.167  17.031  2.4698 -0.7200  0.1139
 1072TIP3    H224632   6.176   6.086  17.158 -0.5724 -0.7783  0.4415
 1073TIP3   OH224633   6.227   2.999  16.376  0.2316 -0.0492 -0.6366
 1073TIP3    H124634   6.180   2.936  16.430  1.4092 -0.9089 -0.5668
 1073TIP3    H224635   6.271   3.057  16.439  1.5646 -1.0217 -0.6246
 1074TIP3   OH224636   6.119   1.324   3.030  0.8807 -0.2314  0.0350
 1074TIP3    H124637   6.027   1.310   3.051  1.3663 -1.9729  1.2404
 1074TIP3    H224638   6.119   1.347   2.937 -0.6754 -1.5601 -0.3484
 1075TIP3   OH224639   0.483   1.954  14.997  0.9415  0.1843  0.8766
 1075TIP3    H124640   0.526   1.899  14.932 -0.2021 -0.6760  0.8199
 1075TIP3    H224641   0.404   1.985  14.954  0.8235  0.6557  1.4201
 1076TIP3   OH224642   3.824   1.227  16.811 -0.0815 -0.8494  0.1372
 1076TIP3    H124643   3.776   1.308  16.794 -0.4543 -0.9105  0.8440
 1076TIP3    H224644   3.851   1.196  16.725  2.8354  1.6614 -0.0107
 1077TIP3   OH224645   6.249   3.992  12.894 -0.1766 -0.0663  0.0502
 1077TIP3    H124646   6.339   4.002  12.864 -0.5211 -1.0528 -1.4038
 1077TIP3    H224647   6.213   3.921  12.840 -1.2468 -1.0399  1.9178
 1078TIP3   OH224648   1.675   5.814   0.218 -0.0136 -0.2268 -0.8510
 1078TIP3    H124649   1.619   5.815   0.296 -0.8500 -0.0930 -1.4439
 1078TIP3    H224650   1.647   5.890   0.168  1.3678  0.4017 -0.7092
 1079TIP3   OH224651   4.391   4.433   1.070 -0.4721  0.3358 -0.0175
 1079TIP3    H124652   4.383   4.511   1.126  0.9998  0.2252  0.4126
 1079TIP3    H224653   4.476   4.444   1.027  0.7007 -1.9200  1.5099
 1080TIP3   OH224654   1.584   5.083   2.147 -0.0677 -0.4398  0.4762
 1080TIP3    H124655   1.550   5.007   2.100 -2.9395 -0.0998  1.8120
 1080TIP3    H224656   1.519   5.100   2.215  0.3492  3.3348  0.1285
 1081TIP3   OH224657   5.389   1.515   3.076  0.1313 -0.1379 -0.4364
 1081TIP3    H124658   5.346   1.430   3.091 -0.0230  0.2495  1.7424
 1081TIP3    H224659   5.400   1.520   2.981  0.0433 -2.5398 -0.6506
 1082TIP3   OH224660   0.255   1.491  11.688 -0.6515 -0.1195 -0.0244
 1082TIP3    H124661   0.245   1.498  11.783  0.9029  0.2688  0.1391
 1082TIP3    H224662   0.257   1.581  11.656  0.0927 -0.2022 -0.2516
 1083TIP3   OH224663   1.593   4.638   1.082  0.9444 -0.4833 -0.1647
 1083TIP3    H124664   1.550   4.556   1.107 -0.4067 -0.3582 -1.8645
 1083TIP3    H224665   1.640   4.665   1.160 -1.6076 -0.9563  1.6808
 1084TIP3   OH224666   3.598   0.977   0.007  0.1433  0.1908  0.3663
 1084TIP3    H124667   3.646   1.040   0.060  0.7100 -0.5849  0.7927
 1084TIP3    H224668   3.660   0.951  -0.061  0.0066 -0.1169  0.3609
 1085TIP3   OH224669   3.565   3.522  13.777 -0.1111 -1.1315 -0.1996
 1085TIP3    H124670   3.576   3.595  13.716 -0.2973 -1.6116 -0.8142
 1085TIP3    H224671   3.655   3.490  13.792 -0.1093 -1.3429 -0.6381
 1086TIP3   OH224672   6.036   3.828   2.607  0.0062 -0.2843 -0.0383
 1086TIP3    H124673   5.974   3.786   2.548 -0.0731 -2.4047  1.4578
 1086TIP3    H224674   5.997   3.820   2.693  1.7819 -0.5572  0.7914
 1087TIP3   OH224675   3.703   6.135  15.445 -0.6259  0.4311  0.1484
 1087TIP3    H124676   3.616   6.166  15.420 -0.6928 -1.3406 -2.1753
 1087TIP3    H224677   3.686   6.057  15.497 -0.4777 -0.5149 -1.1744
 1088TIP3   OH224678   6.774   6.632  14.128 -0.3149 -0.3826 -0.6203
 1088TIP3    H124679   6.831   6.604  14.200 -0.7048  1.1407  0.3196
 1088TIP3    H224680   6.696   6.667  14.171 -1.1737 -0.7245 -1.8402
 1089TIP3   OH224681   4.932   3.187   4.250  0.2460 -0.2146  0.4183
 1089TIP3    H124682   5.007   3.246   4.243  0.2493 -0.0790  1.5245
 1089TIP3    H224683   4.858   3.239   4.219  0.1287  0.6245  2.0256
 1090TIP3   OH224684   3.109   0.210   0.944  0.9001 -0.1738  0.0659
 1090TIP3    H124685   3.154   0.152   1.005  1.6148  0.6060  0.3060
 1090TIP3    H224686   3.166   0.287   0.938  0.8221 -0.2074 -1.5469
 1091TIP3   OH224687   1.190   4.649  16.490  0.5482  0.1530 -0.4247
 1091TIP3    H124688   1.098   4.645  16.467  0.1952 -0.7145  1.0136
 1091TIP3    H224689   1.231   4.581  16.437 -0.2826 -1.9584  1.4985
 1092TIP3   OH224690   6.664   5.873   2.834  0.9171 -0.4269 -0.2146
 1092TIP3    H124691   6.704   5.943   2.886 -2.1425  1.9292 -0.7799
 1092TIP3    H224692   6.590   5.842   2.887  1.3313 -2.2775 -0.6274
 1093TIP3   OH224693   5.366   4.651   0.409  0.5003  0.0834 -0.6245
 1093TIP3    H124694   5.347   4.563   0.378 -0.6699  0.0759  0.0489
 1093TIP3    H224695   5.365   4.643   0.504  1.3054  0.6399 -0.5692
 1094TIP3   OH224696   0.129   5.180  16.643  0.9006 -0.1708 -0.0521
 1094TIP3    H124697   0.077   5.214  16.717  0.6856  0.0908 -0.3218
 1094TIP3    H224698   0.117   5.085  16.647 -0.7527 -0.0258 -0.9578
 1095TIP3   OH224699   0.718   4.629  14.237  0.6304  0.7046 -0.3472
 1095TIP3    H124700   0.657   4.612  14.308  0.3423  0.9433 -0.5343
 1095TIP3    H224701   0.663   4.635  14.159  1.1678 -2.2984 -1.0820
 1096TIP3   OH224702   3.683   1.900   0.991 -0.4396 -0.3487  0.0968
 1096TIP3    H124703   3.755   1.897   1.055 -0.2474  0.1208 -0.0976
 1096TIP3    H224704   3.666   1.993   0.978 -1.7038 -0.4504  0.8257
 1097TIP3   OH224705   4.369   5.338  12.759  0.1462  0.3431 -0.3752
 1097TIP3    H124706   4.330   5.358  12.844 -1.6182  0.0372 -1.0698
 1097TIP3    H224707   4.418   5.257  12.773 -2.3674 -1.2631 -0.1927
 1098TIP3   OH224708   6.272   5.479  11.955  0.0235 -0.0611  0.0507
 1098TIP3    H124709   6.246   5.536  12.028 -1.8746 -0.2349 -0.4403
 1098TIP3    H224710   6.236   5.521  11.878 -0.3625 -1.2945 -0.4624
 1099TIP3   OH224711   1.484   1.262  11.497 -0.3756  0.2191 -0.4464
 1099TIP3    H124712   1.539   1.339  11.515  0.4741 -1.0679  3.6462
 1099TIP3    H224713   1.396   1.299  11.485  0.5339  1.9945 -2.3098
 1100TIP3   OH224714   1.403   3.168   4.060  0.3427  0.4979  0.4374
 1100TIP3    H124715   1.360   3.123   4.133 -0.6648  1.4483  0.4504
 1100TIP3    H224716   1.449   3.098   4.013 -0.0107 -0.3200  1.2763
 1101TIP3   OH224717   4.159   3.134   5.136 -0.1718 -0.4887  0.7370
 1101TIP3    H124718   4.211   3.147   5.215  1.4900  1.2133 -0.5533
 1101TIP3    H224719   4.221   3.099   5.072 -1.2313 -0.8335 -0.1283
 1102TIP3   OH224720   4.384   0.115  11.218  0.0928 -0.6139 -0.2249
 1102TIP3    H124721   4.318   0.051  11.191  0.3740  0.3296 -3.6196
 1102TIP3    H224722   4.468   0.069  11.210  0.1179 -0.6139  0.0305
 1103TIP3   OH224723   4.369   2.579  15.736 -0.5868  0.3752 -0.0106
 1103TIP3    H124724   4.427   2.506  15.757 -2.6796 -1.3234  0.1970
 1103TIP3    H224725   4.354   2.571  15.642 -0.1341  1.0930 -0.1494
 1104TIP3   OH224726   3.289   1.879   0.528  0.1519  0.0491 -0.1363
 1104TIP3    H124727   3.287   1.806   0.590 -1.3298  0.7023  0.6436
 1104TIP3    H224728   3.347   1.943   0.569  1.4795 -0.6782 -0.8367
 1105TIP3   OH224729   4.103   5.382   1.768 -0.0452  0.4229  0.1315
 1105TIP3    H124730   4.184   5.366   1.720 -0.5616  0.0660 -0.6431
 1105TIP3    H224731   4.066   5.460   1.727 -0.1678  0.5010  0.3872
 1106TIP3   OH224732   3.631   3.129   3.856 -0.4943  0.4324  0.0959
 1106TIP3    H124733   3.554   3.077   3.880 -1.7259  2.2746  0.3489
 1106TIP3    H224734   3.694   3.112   3.926 -0.9661 -0.5008  0.3151
 1107TIP3   OH224735   0.431   0.423   3.740 -0.1919  0.3932 -0.3656
 1107TIP3    H124736   0.481   0.444   3.818 -0.3238 -0.4006 -0.0631
 1107TIP3    H224737   0.493   0.381   3.681 -0.2902  0.2203 -0.3472
 1108TIP3   OH224738   3.627   3.871  11.969  0.2132 -0.3526  0.6279
 1108TIP3    H124739   3.584   3.817  12.035  0.5927  2.2994  3.2141
 1108TIP3    H224740   3.716   3.882  12.000 -0.4370  3.6538  1.6746
 1109TIP3   OH224741   6.128   3.503   0.962  0.4586  0.5440 -0.0995
 1109TIP3    H124742   6.122   3.493   0.867  0.4112 -0.0290 -0.0438
 1109TIP3    H224743   6.171   3.422   0.991 -0.1738  0.3996  0.4401
 1110TIP3   OH224744   6.637   1.600   1.631  0.3184  0.1783 -0.0735
 1110TIP3    H124745   6.594   1.659   1.693  1.7376  0.3393  0.8116
 1110TIP3    H224746   6.721   1.642   1.612  1.6436 -1.8006  1.0438
 1111TIP3   OH224747   4.943   4.477   0.878  0.3689 -0.0023  0.5521
 1111TIP3    H124748   4.932   4.544   0.946  0.7858  0.5224  0.1075
 1111TIP3    H224749   5.012   4.511   0.822 -0.7365  0.1078 -0.8024
 1112TIP3   OH224750   3.118   5.204  14.505  0.1188  0.4508  0.1489
 1112TIP3    H124751   3.085   5.158  14.582  1.4493  0.4760  0.7683
 1112TIP3    H224752   3.078   5.290  14.509  1.4220  1.0319  1.7671
 1113TIP3   OH224753   5.691   4.293  15.829 -0.4704 -0.2794  0.1192
 1113TIP3    H124754   5.653   4.209  15.803  0.4053 -0.3532 -1.0286
 1113TIP3    H224755   5.682   4.296  15.924 -1.0599 -1.4042  0.1100
 1114TIP3   OH224756   0.352   2.624   3.887  0.3118  0.4331 -0.6629
 1114TIP3    H124757   0.271   2.585   3.852 -0.0445 -0.2627  0.8559
 1114TIP3    H224758   0.321   2.684   3.955  1.0458  0.7822 -0.6363
 1115TIP3   OH224759   6.786   3.702   2.695 -0.0537  0.4649  0.1923
 1115TIP3    H124760   6.743   3.769   2.748  2.2164  1.1873  1.2171
 1115TIP3    H224761   6.715   3.644   2.668 -1.6677  1.6231  1.7379
 1116TIP3   OH224762   2.804   4.617  15.198 -0.0398 -0.2956  0.0809
 1116TIP3    H124763   2.889   4.656  15.181  0.7778 -1.7763  0.6301
 1116TIP3    H224764   2.812   4.526  15.167 -1.4981 -0.3955 -0.0980
 1117TIP3   OH224765   3.470   6.077   1.022  0.4673 -0.0412 -0.2579
 1117TIP3    H124766   3.542   6.014   1.013  0.5923 -0.0875  0.8835
 1117TIP3    H224767   3.490   6.125   1.102  1.0382  2.3446 -1.7323
 1118TIP3   OH224768   1.188   0.297   2.074 -0.3635  0.2980  0.4872
 1118TIP3    H124769   1.092   0.289   2.073 -0.2583 -1.4357 -1.2425
 1118TIP3    H224770   1.214   0.258   2.158 -1.1941  2.1541  1.6824
 1119TIP3   OH224771   6.611   2.695  11.645 -0.4531 -1.2588 -0.4940
 1119TIP3    H124772   6.545   2.712  11.578 -0.5973  1.4998  0.2316
 1119TIP3    H224773   6.658   2.777  11.655  4.0748 -3.4040 -1.8269
 1120TIP3   OH224774   4.482   2.038  14.889  0.1560  0.3400  0.1151
 1120TIP3    H124775   4.425   2.063  14.816 -3.3004  2.0815  3.0881
 1120TIP3    H224776   4.459   1.948  14.908  0.1322  0.2885 -0.1506
 1121TIP3   OH224777   2.139   0.280   0.069  0.5192  0.5580 -0.3923
 1121TIP3    H124778   2.093   0.321  -0.004 -1.1168 -0.3500  0.1002
 1121TIP3    H224779   2.157   0.353   0.129 -1.6803  0.7478  0.1196
 1122TIP3   OH224780   3.418   4.324  10.563 -0.9929 -0.1627 -0.1949
 1122TIP3    H124781   3.413   4.230  10.545 -0.2928 -0.0934 -0.8186
 1122TIP3    H224782   3.498   4.334  10.614 -2.2917 -0.1833  1.9368
 1123TIP3   OH224783   4.054   5.552  15.048 -0.5982  0.0664 -0.5334
 1123TIP3    H124784   4.046   5.638  15.088 -0.4500  0.0516 -0.4698
 1123TIP3    H224785   4.055   5.491  15.122 -0.0970  0.0548 -0.5430
 1124TIP3   OH224786   5.089   0.614  14.108  0.0622  0.3829 -0.0681
 1124TIP3    H124787   5.135   0.530  14.115  1.9540  1.3747  0.2550
 1124TIP3    H224788   5.048   0.611  14.021  0.0180 -0.9051 -0.0225
 1125TIP3   OH224789   2.574   6.224   3.598  0.5406 -0.2499  0.0480
 1125TIP3    H124790   2.568   6.156   3.531  1.0448  0.7213 -1.0301
 1125TIP3    H224791   2.656   6.204   3.645  1.1120  0.0592 -0.7947
 1126TIP3   OH224792   5.056   0.956   1.140  0.1118 -0.5851  0.4235
 1126TIP3    H124793   5.148   0.953   1.165  0.1970  1.1892  0.4676
 1126TIP3    H224794   5.011   0.900   1.203  1.0651 -0.8971  0.8346
 1127TIP3   OH224795   4.850   3.652   0.354  0.0098  0.0115  0.1048
 1127TIP3    H124796   4.873   3.571   0.400 -0.3053  0.6965  1.5038
 1127TIP3    H224797   4.875   3.722   0.414  0.5802  0.9870 -1.2233
 1128TIP3   OH224798   0.826   4.736   5.609  0.5324 -0.3878 -0.3157
 1128TIP3    H124799   0.742   4.777   5.629  0.3049 -1.2036  0.4760
 1128TIP3    H224800   0.887   4.809   5.601 -0.1254  0.1771 -0.2764
 1129TIP3   OH224801   2.665   4.258   2.216 -0.3297 -0.5192 -0.6556
 1129TIP3    H124802   2.622   4.343   2.229 -2.2792 -1.5685  0.0828
 1129TIP3    H224803   2.629   4.202   2.284  1.9671 -1.6025 -0.2527
 1130TIP3   OH224804   0.530   2.754   2.546 -0.6655 -0.2917  0.2179
 1130TIP3    H124805   0.531   2.675   2.600  0.7066 -0.2398  0.2881
 1130TIP3    H224806   0.505   2.824   2.606 -2.1983 -0.6793  0.0916
 1131TIP3   OH224807   2.908   4.737  12.096  0.0852  0.3603 -0.4073
 1131TIP3    H124808   2.914   4.719  12.189 -0.5279 -0.0113 -0.4370
 1131TIP3    H224809   2.944   4.659  12.054 -1.4603 -0.3427 -0.5083
 1132TIP3   OH224810   0.008   1.606  14.876  0.2557 -0.0468 -0.1089
 1132TIP3    H124811  -0.065   1.543  14.874 -0.1122  0.3941 -0.5909
 1132TIP3    H224812   0.068   1.569  14.941  0.5894 -1.5023 -1.1823
 1133TIP3   OH224813   1.282   0.028   0.168 -0.4581  0.1743 -0.1162
 1133TIP3    H124814   1.212   0.038   0.104 -0.4284 -1.2140 -0.3947
 1133TIP3    H224815   1.349   0.091   0.141  0.2126 -1.4138 -2.4027
 1134TIP3   OH224816   3.983   0.657  12.824  0.1255  0.4324  0.2339
 1134TIP3    H124817   4.073   0.660  12.794  0.5088  0.5892  1.3581
 1134TIP3    H224818   3.960   0.749  12.841  0.2786  0.2735  1.3991
 1135TIP3   OH224819   0.587   5.070  16.799  0.5865  0.3028 -0.3224
 1135TIP3    H124820   0.546   5.156  16.811 -1.1069 -0.5566  0.3612
 1135TIP3    H224821   0.534   5.011  16.852  2.4870 -0.9750  0.2410
 1136TIP3   OH224822   4.843   3.460   5.799 -0.1911 -0.6746 -0.0513
 1136TIP3    H124823   4.813   3.390   5.857 -0.6434 -0.7352 -0.3437
 1136TIP3    H224824   4.867   3.532   5.857  3.5127 -2.1822  0.5094
 1137TIP3   OH224825   0.097   0.238   4.343  0.1000  0.5372 -0.0453
 1137TIP3    H124826   0.066   0.324   4.315 -1.5288 -0.1479 -0.4486
 1137TIP3    H224827   0.072   0.233   4.435 -0.8941  0.0537 -0.3255
 1138TIP3   OH224828   1.595   2.797  12.093 -0.9115 -0.0631  0.4546
 1138TIP3    H124829   1.655   2.727  12.118 -2.9259 -1.7398  0.9221
 1138TIP3    H224830   1.541   2.811  12.170 -0.4426  2.2107  0.4314
 1139TIP3   OH224831   4.973   2.575  15.298 -0.3942 -0.3008  1.1385
 1139TIP3    H124832   5.016   2.646  15.347 -1.8499 -0.2044  2.3400
 1139TIP3    H224833   5.001   2.589  15.208 -0.3969  1.6440  1.3806
 1140TIP3   OH224834   0.985   5.447   2.347 -0.0982  0.7593 -0.5335
 1140TIP3    H124835   0.895   5.470   2.325 -0.1963  0.9054  0.0149
 1140TIP3    H224836   0.977   5.377   2.411  0.1939 -0.8437 -2.1489
 1141TIP3   OH224837   3.699   4.656  14.218  0.2609  0.4215  0.8246
 1141TIP3    H124838   3.685   4.712  14.142  0.1370  0.3393  0.7856
 1141TIP3    H224839   3.627   4.678  14.278  0.1731  0.2597  0.7802
 1142TIP3   OH224840   0.281   0.739  13.634  0.0395 -0.2287 -0.0085
 1142TIP3    H124841   0.347   0.705  13.694  0.1403 -0.2169 -0.1131
 1142TIP3    H224842   0.199   0.735  13.684 -0.1970 -1.8824 -0.4770
 1143TIP3   OH224843   6.561   5.299   0.408 -0.1177 -0.4633  0.2770
 1143TIP3    H124844   6.492   5.346   0.456 -0.0129  0.1605 -0.1633
 1143TIP3    H224845   6.602   5.367   0.354  0.4028 -0.9646  0.0399
 1144TIP3   OH224846   0.151   2.082   2.138  0.0848  0.3264  0.5961
 1144TIP3    H124847   0.098   2.116   2.066 -0.0155 -1.9253 -0.5128
 1144TIP3    H224848   0.115   1.995   2.155  2.6242 -0.8147  0.6228
 1145TIP3   OH224849   4.312   5.795  16.572 -0.0612 -0.2927  0.9403
 1145TIP3    H124850   4.284   5.886  16.564  0.5560 -0.1748 -0.0533
 1145TIP3    H224851   4.329   5.783  16.665  3.0080  1.6205  0.7724
 1146TIP3   OH224852   0.555   1.997  15.633  0.7827  0.0653 -0.1636
 1146TIP3    H124853   0.490   2.011  15.564  0.7973  0.8499 -0.0245
 1146TIP3    H224854   0.638   1.988  15.587  0.7681  0.4176 -0.2560
 1147TIP3   OH224855   3.460   0.562  11.756  0.6225  0.3814  0.1643
 1147TIP3    H124856   3.553   0.568  11.781  1.0679  1.1982 -1.5277
 1147TIP3    H224857   3.451   0.475  11.717  1.2888  1.1018 -1.7404
 1148TIP3   OH224858   4.480   1.999  11.961  0.3396 -0.1915 -0.4795
 1148TIP3    H124859   4.486   1.921  11.904  0.4383  0.0654 -0.8258
 1148TIP3    H224860   4.405   2.048  11.927  0.9206  0.3982 -0.9493
 1149TIP3   OH224861   5.391   2.153   5.640  0.1596 -0.4268 -0.0671
 1149TIP3    H124862   5.326   2.086   5.620  0.5042 -0.3973 -1.3639
 1149TIP3    H224863   5.351   2.205   5.710 -1.8529  0.4541 -1.7616
 1150TIP3   OH224864   1.938   5.137   2.711  0.6315 -0.0296  0.1553
 1150TIP3    H124865   1.960   5.076   2.781  2.3910  0.9178  0.4840
 1150TIP3    H224866   1.989   5.216   2.731  0.1157  0.7498 -1.4507
 1151TIP3   OH224867   4.672   1.424  12.309 -0.0202  0.9042  0.1238
 1151TIP3    H124868   4.764   1.396  12.301 -0.2752 -0.2844  1.0304
 1151TIP3    H224869   4.650   1.459  12.222  0.8997 -0.0407 -0.5155
 1152TIP3   OH224870   3.010   5.220  15.474  0.0289 -0.7635  0.7356
 1152TIP3    H124871   3.021   5.221  15.379 -1.6211  0.0034  0.5131
 1152TIP3    H224872   3.099   5.219  15.509  0.6630 -0.7093 -0.8187
 1153TIP3   OH224873   1.494   6.243   6.852 -0.4612 -0.9769 -0.0018
 1153TIP3    H124874   1.491   6.335   6.827  0.7437 -1.1607 -0.9034
 1153TIP3    H224875   1.586   6.226   6.873 -0.6967 -1.9305  0.3632
 1154TIP3   OH224876   4.794   3.126   0.953  0.5727  0.1104 -0.2562
 1154TIP3    H124877   4.755   3.057   1.007 -0.7665  1.0054 -0.0142
 1154TIP3    H224878   4.719   3.181   0.927  1.7751  2.7491  1.3886
 1155TIP3   OH224879   5.514   2.544  16.970 -0.4025  0.7555  0.2374
 1155TIP3    H124880   5.472   2.497  16.898  0.4669  0.7778 -0.3028
 1155TIP3    H224881   5.606   2.520  16.963 -0.5972 -1.1692  2.8186
 1156TIP3   OH224882   5.808   5.673   2.646 -0.5721  0.0508 -0.0762
 1156TIP3    H124883   5.767   5.591   2.621 -1.0252  0.5057 -0.8783
 1156TIP3    H224884   5.738   5.724   2.688 -0.0135 -0.3982  1.4845
 1157TIP3   OH224885   0.857   0.674   0.659 -0.5728  1.3606  0.2635
 1157TIP3    H124886   0.805   0.715   0.590 -0.1658  2.2419  0.4686
 1157TIP3    H224887   0.814   0.699   0.741 -0.2395  1.4921  0.3983
 1158TIP3   OH224888   5.367   6.593  13.204 -0.1817  0.3155 -0.2725
 1158TIP3    H124889   5.421   6.642  13.141 -0.3269  0.5015 -0.2540
 1158TIP3    H224890   5.430   6.541  13.254  0.1257  1.4880  0.6051
 1159TIP3   OH224891   2.053   0.788   6.607 -0.5271 -0.4168 -0.1531
 1159TIP3    H124892   2.024   0.699   6.624 -1.7061  0.1320  0.8785
 1159TIP3    H224893   2.149   0.784   6.612 -0.6045 -1.4704  0.6583
 1160TIP3   OH224894   3.595   0.940   4.028 -0.1300  0.2925 -0.0610
 1160TIP3    H124895   3.617   0.887   3.952  1.0582 -1.7952  1.6325
 1160TIP3    H224896   3.518   0.991   4.000  1.2159  0.8682 -3.1260
 1161TIP3   OH224897   2.443   6.627  15.513  0.0547 -0.1841  0.3678
 1161TIP3    H124898   2.466   6.676  15.592 -1.1681  1.2494 -0.1244
 1161TIP3    H224899   2.521   6.633  15.458 -0.1418  1.4447  0.2281
 1162TIP3   OH224900   0.248   4.332  15.803 -0.2096  0.2083 -0.0925
 1162TIP3    H124901   0.240   4.300  15.893  1.3029 -0.0068 -0.0067
 1162TIP3    H224902   0.160   4.360  15.779 -1.1247 -1.8361  0.6663
 1163TIP3   OH224903   2.009   0.802  12.808  0.5354  0.0924  0.2309
 1163TIP3    H124904   2.068   0.836  12.876 -0.2828  0.9207  0.5466
 1163TIP3    H224905   1.972   0.880  12.768  1.2560 -0.3774 -1.4182
 1164TIP3   OH224906   6.443   4.823   3.844  0.4626  0.3883  0.0559
 1164TIP3    H124907   6.498   4.901   3.835  0.1769  0.5751 -0.0900
 1164TIP3    H224908   6.505   4.752   3.857  0.7212  0.6542  0.2894
 1165TIP3   OH224909   0.907   6.084   3.956  0.1656  0.2065  0.0168
 1165TIP3    H124910   0.931   6.029   4.031 -0.4459 -0.4300 -0.2525
 1165TIP3    H224911   0.824   6.125   3.981  0.7665  1.2778  0.3469
 1166TIP3   OH224912   3.897   6.597  11.605  0.5000  0.5745 -0.3255
 1166TIP3    H124913   3.920   6.506  11.590  0.0454  0.8658 -3.7363
 1166TIP3    H224914   3.854   6.598  11.690  0.5416 -2.3728 -0.1812
 1167TIP3   OH224915   2.767   0.382   0.586 -0.0034 -0.7113 -0.3321
 1167TIP3    H124916   2.686   0.417   0.623  0.1465 -0.7692  0.0609
 1167TIP3    H224917   2.827   0.377   0.661  1.2370  1.8095 -1.0484
 1168TIP3   OH224918   3.795   2.518  14.799  0.1914  0.2669  0.4741
 1168TIP3    H124919   3.785   2.459  14.873 -0.3207 -0.3369 -0.0630
 1168TIP3    H224920   3.708   2.521  14.759  0.0671  1.8285  0.8083
 1169TIP3   OH224921   6.208   6.561  15.459  0.5215 -0.2303 -0.1634
 1169TIP3    H124922   6.166   6.536  15.377  0.4165  0.1880 -0.2381
 1169TIP3    H224923   6.194   6.486  15.517  2.2490 -1.3658 -1.1060
 1170TIP3   OH224924   1.522   0.382  15.183  0.6114  0.3247 -0.1310
 1170TIP3    H124925   1.438   0.405  15.221  0.2681  0.2745 -0.8507
 1170TIP3    H224926   1.573   0.347  15.257 -0.6679 -1.5104 -0.0413
 1171TIP3   OH224927   0.222   3.294  12.659  0.0274  0.4621  0.1844
 1171TIP3    H124928   0.254   3.294  12.749 -0.6556 -1.8357  0.4932
 1171TIP3    H224929   0.135   3.254  12.664  0.3297 -0.5669 -1.5786
 1172TIP3   OH224930   4.955   6.480  16.631 -0.1079 -0.4810  0.0750
 1172TIP3    H124931   4.964   6.386  16.648 -0.3001 -0.4741  0.2145
 1172TIP3    H224932   4.957   6.520  16.718  0.7729 -0.2842 -0.0234
 1173TIP3   OH224933   6.657   4.156  10.927  0.0181  0.7386 -0.2788
 1173TIP3    H124934   6.564   4.134  10.932  0.2056 -0.3397 -1.0202
 1173TIP3    H224935   6.659   4.247  10.899 -0.8413  0.2181 -2.1768
 1174TIP3   OH224936   0.782   1.789   2.565 -0.3829 -0.7427 -0.5595
 1174TIP3    H124937   0.700   1.763   2.607 -0.7956 -0.2710 -1.0732
 1174TIP3    H224938   0.781   1.885   2.566  0.3196 -0.7300 -0.2641
 1175TIP3   OH224939   4.021   4.659   2.484 -0.2018  0.4444  0.0219
 1175TIP3    H124940   3.963   4.616   2.547 -0.0049 -0.6869 -0.5490
 1175TIP3    H224941   4.018   4.751   2.509  0.0890  0.0001  1.8533
 1176TIP3   OH224942   3.979   6.730  15.599  0.1753  0.0816  0.0080
 1176TIP3    H124943   4.064   6.695  15.627  1.1562  0.7783 -1.9249
 1176TIP3    H224944   3.925   6.652  15.584  0.7058 -0.3988  0.5702
 1177TIP3   OH224945   0.243   2.588   4.345  0.4211 -0.3099 -0.7718
 1177TIP3    H124946   0.185   2.627   4.410 -0.6965 -2.0604 -0.6333
 1177TIP3    H224947   0.251   2.654   4.276 -1.6500  0.0558 -0.7222
 1178TIP3   OH224948   5.620   2.906   4.860  0.6179 -0.3035 -0.0247
 1178TIP3    H124949   5.532   2.929   4.889  0.7066  2.2283 -1.5010
 1178TIP3    H224950   5.607   2.859   4.778  0.6409 -0.1394 -0.1220
 1179TIP3   OH224951   5.480   1.397   3.571 -0.1541 -0.2314 -0.2022
 1179TIP3    H124952   5.553   1.338   3.590 -1.2204 -1.1475  1.3608
 1179TIP3    H224953   5.520   1.475   3.534  1.8365  0.0286  2.2307
 1180TIP3   OH224954   0.855   4.523   1.355  0.4331  0.1583 -0.2149
 1180TIP3    H124955   0.949   4.530   1.366  0.2333 -0.7696  3.0581
 1180TIP3    H224956   0.832   4.440   1.397 -1.9012  0.6289 -0.4264
 1181TIP3   OH224957   2.899   4.370   4.301 -0.3986  0.2108 -0.5726
 1181TIP3    H124958   2.817   4.324   4.281 -0.8241  0.5828  0.2518
 1181TIP3    H224959   2.905   4.438   4.234  0.3301 -1.1161 -1.9232
 1182TIP3   OH224960   3.452   5.604   0.619 -0.0861 -0.5619 -0.1606
 1182TIP3    H124961   3.478   5.644   0.536 -0.6437 -0.4828 -0.3012
 1182TIP3    H224962   3.485   5.515   0.615 -2.2921 -1.3883 -1.5735
 1183TIP3   OH224963   5.079   1.844  12.247 -0.5322  0.8803  0.5180
 1183TIP3    H124964   5.080   1.748  12.255 -1.0244  0.7393 -0.8382
 1183TIP3    H224965   5.170   1.867  12.229 -0.3654  0.6982  1.1083
 1184TIP3   OH224966   3.493   1.374  16.038  0.2271 -0.6617 -0.2928
 1184TIP3    H124967   3.440   1.303  16.003  1.3822 -1.5621 -0.2753
 1184TIP3    H224968   3.477   1.373  16.132 -0.6107 -0.1559 -0.4186
 1185TIP3   OH224969   1.969   6.631   1.764 -0.2099 -0.2646  0.8619
 1185TIP3    H124970   1.931   6.719   1.758  1.1459  0.3171  0.0771
 1185TIP3    H224971   1.922   6.589   1.835 -0.5866  1.2673  1.5698
 1186TIP3   OH224972   1.313   4.586   4.379  0.5615  0.0132 -0.0744
 1186TIP3    H124973   1.333   4.496   4.405  0.0666 -0.2387 -0.5487
 1186TIP3    H224974   1.367   4.600   4.301 -0.2331 -0.2840 -0.6935
 1187TIP3   OH224975   1.207   1.427  10.791  0.2098 -1.0240 -0.6934
 1187TIP3    H124976   1.223   1.505  10.737 -2.3978 -0.0473 -0.2128
 1187TIP3    H224977   1.131   1.450  10.844  0.5687 -3.2228  0.9132
 1188TIP3   OH224978   0.745   6.784  14.444  0.1909 -0.9992  0.5594
 1188TIP3    H124979   0.813   6.752  14.385  1.3111 -0.4196  1.4922
 1188TIP3    H224980   0.793   6.813  14.522 -0.4471  4.4342 -0.6820
 1189TIP3   OH224981   6.190   1.662   2.005  0.6510  0.6097 -0.0012
 1189TIP3    H124982   6.114   1.718   2.024  0.6412  0.4438  0.4668
 1189TIP3    H224983   6.185   1.647   1.910 -0.8186 -0.6894  0.2291
 1190TIP3   OH224984   4.988   0.144   5.093  0.3252 -0.1954  0.1705
 1190TIP3    H124985   5.053   0.163   5.026 -1.3868  0.9110 -1.2844
 1190TIP3    H224986   5.013   0.198   5.168  1.3205 -0.1395 -0.1952
 1191TIP3   OH224987   4.211   5.419   0.545 -0.3703  0.6687  0.0543
 1191TIP3    H124988   4.139   5.404   0.607  1.1339 -0.0522  1.6847
 1191TIP3    H224989   4.263   5.339   0.548 -0.5768  0.3318 -2.6880
 1192TIP3   OH224990   5.889   5.159  11.598 -0.3499 -0.1913  0.2123
 1192TIP3    H124991   5.888   5.251  11.622 -0.2877  0.6751 -2.6758
 1192TIP3    H224992   5.813   5.148  11.541 -0.9556 -2.2126  1.3076
 1193TIP3   OH224993   0.052   1.457  13.057 -0.1111 -0.0463  0.0241
 1193TIP3    H124994   0.117   1.523  13.080 -1.3731  1.4817 -0.6018
 1193TIP3    H224995  -0.026   1.482  13.106 -0.3315 -1.6959  0.5711
 1194TIP3   OH224996   2.205   2.250  10.686 -0.3108  0.1661 -0.2886
 1194TIP3    H124997   2.211   2.328  10.740 -1.6855  0.6151 -0.7308
 1194TIP3    H224998   2.146   2.275  10.615 -0.2352 -1.0657 -0.8082
 1195TIP3   OH224999   1.862   3.926  13.987  0.3378 -0.5369 -0.4320
 1195TIP3    H125000   1.912   3.915  14.068 -1.0343  1.2719  0.7344
 1195TIP3    H225001   1.929   3.937  13.919  1.6397  1.8908  1.0730
 1196TIP3   OH225002   4.392   3.034   0.913 -0.0690  0.6593 -0.0168
 1196TIP3    H125003   4.480   3.020   0.947 -0.3604  1.1770  1.0031
 1196TIP3    H225004   4.400   3.110   0.855  0.0247  1.1775  0.6645
 1197TIP3   OH225005   4.309   6.260  13.834 -0.2644  0.2210 -0.6468
 1197TIP3    H125006   4.315   6.234  13.926  1.1214 -0.4027 -0.8990
 1197TIP3    H225007   4.230   6.315  13.830 -0.3759  0.2109  0.8921
 1198TIP3   OH225008   5.969   5.564  12.270 -0.8806 -0.6079  0.3813
 1198TIP3    H125009   5.982   5.488  12.326 -0.4204  1.1198  2.8017
 1198TIP3    H225010   5.883   5.598  12.297 -0.3062  0.6895  0.6511
 1199TIP3   OH225011   2.195   5.808  12.983  0.5157 -0.5480 -0.1956
 1199TIP3    H125012   2.281   5.842  12.959  1.3600 -1.8518  0.8610
 1199TIP3    H225013   2.172   5.750  12.911  0.0191  0.5625 -0.9740
 1200TIP3   OH225014   3.822   3.519   4.306 -0.1958  0.0840  0.6591
 1200TIP3    H125015   3.761   3.459   4.262 -0.7733 -1.0523  2.8265
 1200TIP3    H225016   3.846   3.582   4.239 -2.9125 -0.0568 -0.6121
 1201TIP3   OH225017   0.432   6.785   3.153  0.6505  0.6211 -0.2858
 1201TIP3    H125018   0.512   6.837   3.149  0.4926  0.8092 -1.1052
 1201TIP3    H225019   0.459   6.698   3.123  0.6132  0.5998 -0.2571
 1202TIP3   OH225020   5.940   1.164   5.375  0.1623 -0.1573  0.8486
 1202TIP3    H125021   5.936   1.115   5.457  1.4080 -0.5546  0.6818
 1202TIP3    H225022   5.895   1.247   5.394  0.2744 -0.3227  1.8685
 1203TIP3   OH225023   0.861   4.722   0.557  0.2258  0.2410 -0.1158
 1203TIP3    H125024   0.793   4.669   0.598 -0.1443  1.2467  0.6124
 1203TIP3    H225025   0.889   4.671   0.481 -1.2839 -0.2298 -0.3841
 1204TIP3   OH225026   2.418   4.975  13.959 -0.1252 -0.6505 -0.1318
 1204TIP3    H125027   2.494   5.033  13.962 -1.3128  0.8945  1.9034
 1204TIP3    H225028   2.454   4.888  13.976  1.3409 -0.1533 -0.5200
 1205TIP3   OH225029   0.308   3.853   5.045 -0.1384 -0.0131  0.0694
 1205TIP3    H125030   0.402   3.858   5.062 -0.2527  1.1186  0.4039
 1205TIP3    H225031   0.267   3.890   5.123 -0.8155  0.8740 -0.6795
 1206TIP3   OH225032   4.317   3.880   5.480  0.0260  0.8305  0.1215
 1206TIP3    H125033   4.400   3.833   5.483 -0.7603 -0.8849 -2.3762
 1206TIP3    H225034   4.251   3.813   5.494 -1.0295  1.7970 -0.1313
 1207TIP3   OH225035   2.330   1.643   0.556 -0.2768 -0.0113 -0.8322
 1207TIP3    H125036   2.315   1.548   0.551 -0.0083 -0.2215  1.4385
 1207TIP3    H225037   2.409   1.657   0.503  0.4384 -1.2831 -0.1640
 1208TIP3   OH225038   2.537   5.309  14.934  0.0404 -0.5404 -0.0700
 1208TIP3    H125039   2.553   5.318  15.028  0.4961  0.7701 -0.2539
 1208TIP3    H225040   2.524   5.399  14.903 -1.2022 -1.0368 -1.0762
 1209TIP3   OH225041   0.041   0.670   1.969 -0.4306  0.0126  0.2927
 1209TIP3    H125042   0.105   0.603   1.944 -1.0704 -1.8022  3.0987
 1209TIP3    H225043   0.053   0.739   1.904  2.5630 -1.3668 -0.8320
 1210TIP3   OH225044   2.155   1.758  13.124  0.7870 -0.1299 -0.1538
 1210TIP3    H125045   2.103   1.696  13.175 -0.6960 -0.4789 -1.9606
 1210TIP3    H225046   2.108   1.840  13.129 -0.9670 -0.8065 -3.0371
 1211TIP3   OH225047   6.025   6.243  16.716  0.1798  0.2520  0.1700
 1211TIP3    H125048   5.995   6.161  16.754  0.3634  0.5876  1.0631
 1211TIP3    H225049   5.950   6.302  16.725  1.1483  1.2420  2.8540
 1212TIP3   OH225050   5.920   3.032  13.506 -0.2457  0.5974 -0.2568
 1212TIP3    H125051   5.900   3.119  13.542  1.3780  1.4624 -1.3256
 1212TIP3    H225052   6.012   3.018  13.527 -0.5808 -1.0560  0.2173
 1213TIP3   OH225053   2.669   5.817   1.195 -0.0614  0.4639 -0.1593
 1213TIP3    H125054   2.749   5.776   1.228 -0.6409  0.0852  0.7976
 1213TIP3    H225055   2.694   5.909   1.180  1.2572 -0.1892 -2.3925
 1214TIP3   OH225056   1.895   3.839   3.088  0.1660 -0.2438 -1.0270
 1214TIP3    H125057   1.896   3.797   3.173 -1.0906 -0.7332 -1.2289
 1214TIP3    H225058   1.829   3.908   3.096  0.3545 -0.0067 -1.4664
 1215TIP3   OH225059   5.399   4.584  16.585 -0.4763  0.0619  0.6362
 1215TIP3    H125060   5.423   4.645  16.515  1.3430 -0.5039  0.6939
 1215TIP3    H225061   5.356   4.511  16.539 -1.4040  0.7413  0.4053
 1216TIP3   OH225062   6.675   1.209   4.082 -0.8240 -0.3871 -0.0978
 1216TIP3    H125063   6.744   1.145   4.103 -0.4053  0.2343  0.4543
 1216TIP3    H225064   6.608   1.196   4.148 -1.5375 -1.4112 -0.9977
 1217TIP3   OH225065   1.685   6.578   3.673  0.2182  0.7870 -0.1452
 1217TIP3    H125066   1.617   6.511   3.677 -0.4276  1.3922 -0.8069
 1217TIP3    H225067   1.641   6.659   3.695  1.3668  0.7892  2.4351
 1218TIP3   OH225068   2.962   4.054  14.203  0.1742  0.4114  0.1943
 1218TIP3    H125069   3.054   4.030  14.213 -0.2027 -0.8922  0.6705
 1218TIP3    H225070   2.923   3.981  14.155 -0.2146  1.8950 -1.9270
 1219TIP3   OH225071   1.351   1.430   1.354  0.4994  0.0376  0.0687
 1219TIP3    H125072   1.266   1.437   1.396  0.9563  1.7183  0.7584
 1219TIP3    H225073   1.357   1.507   1.297  1.1845 -0.5519 -0.6962
 1220TIP3   OH225074   1.836   5.294  14.366 -0.4000 -0.0698  1.2862
 1220TIP3    H125075   1.930   5.290  14.348 -0.7443 -0.5748 -0.7054
 1220TIP3    H225076   1.814   5.205  14.395 -0.4345 -0.2451  0.7309
 1221TIP3   OH225077   1.763   4.142   1.580  0.1360 -0.4448  0.2406
 1221TIP3    H125078   1.783   4.231   1.609  2.3178 -0.6968 -0.3295
 1221TIP3    H225079   1.737   4.096   1.660  1.4568  0.0828  1.0070
 1222TIP3   OH225080   3.513   4.098  16.169 -0.0373 -0.3901  0.1052
 1222TIP3    H125081   3.536   4.191  16.170  0.5944 -0.4903 -1.3231
 1222TIP3    H225082   3.597   4.052  16.178 -0.2447 -0.8093 -0.0304
 1223TIP3   OH225083   3.712   4.701   1.972 -0.1626 -0.0419  0.4607
 1223TIP3    H125084   3.778   4.731   2.035 -1.1959  0.6763  1.2198
 1223TIP3    H225085   3.646   4.657   2.025 -1.2704  0.9555 -0.0404
 1224TIP3   OH225086   6.632   0.396  15.132  0.3986 -0.1498 -0.3336
 1224TIP3    H125087   6.715   0.350  15.142  0.3524 -0.4865 -1.4109
 1224TIP3    H225088   6.565   0.330  15.151  0.3601  0.1136  0.5060
 1225TIP3   OH225089   2.200   4.706  14.284  0.0668  0.1862  0.6437
 1225TIP3    H125090   2.206   4.621  14.328  2.7007  0.1497  0.3415
 1225TIP3    H225091   2.187   4.685  14.192 -0.5653  0.1498  0.7392
 1226TIP3   OH225092   3.588   0.304   2.120  0.5702  0.4228 -0.0991
 1226TIP3    H125093   3.611   0.397   2.118 -0.2648  0.6418  0.2867
 1226TIP3    H225094   3.648   0.264   2.057  0.9165  1.2240 -0.2961
 1227TIP3   OH225095   5.741   3.895   5.211 -0.0748 -0.1668 -0.0748
 1227TIP3    H125096   5.680   3.957   5.252 -1.7194  0.2135 -2.8647
 1227TIP3    H225097   5.820   3.947   5.195 -0.5015  0.4890 -0.0981
 1228TIP3   OH225098   2.938   6.643   2.004  0.1082 -0.0113  0.4570
 1228TIP3    H125099   2.913   6.667   1.915 -2.2201  1.6298  1.4456
 1228TIP3    H225100   2.918   6.549   2.010 -0.3475  0.0097 -0.5642
 1229TIP3   OH225101   5.129   2.491   1.881  0.1835 -0.4909 -0.4500
 1229TIP3    H125102   5.206   2.471   1.827  0.4910  0.5509 -0.4250
 1229TIP3    H225103   5.160   2.483   1.971  0.2414 -0.1899 -0.4401
 1230TIP3   OH225104   5.175   6.580  16.222  0.3107  0.4252  0.1412
 1230TIP3    H125105   5.266   6.611  16.225  0.8534 -1.1402  1.0829
 1230TIP3    H225106   5.182   6.485  16.213 -1.2496  0.2816  0.1055
 1231TIP3   OH225107   2.741   1.932   2.479 -0.7746 -0.3308  0.0255
 1231TIP3    H125108   2.836   1.927   2.480 -0.7985 -0.8341  0.0265
 1231TIP3    H225109   2.721   1.991   2.407 -0.4992 -1.2903 -0.8653
 1232TIP3   OH225110   3.204   0.826   0.147 -0.7821  0.2358  0.5385
 1232TIP3    H125111   3.236   0.873   0.071 -1.6395  0.8027  0.5175
 1232TIP3    H225112   3.128   0.876   0.177 -0.8935 -0.3752  1.3336
 1233TIP3   OH225113   2.485   1.257   2.047 -0.4854  0.2370  0.4326
 1233TIP3    H125114   2.409   1.278   1.992 -2.1079 -0.8400  2.1562
 1233TIP3    H225115   2.455   1.273   2.136  2.4586  3.2095  1.1159
 1234TIP3   OH225116   0.219   2.527   0.518 -0.6044 -0.7242  0.2790
 1234TIP3    H125117   0.246   2.494   0.604 -0.4076  1.8027  1.2696
 1234TIP3    H225118   0.300   2.558   0.478 -0.9469 -0.2820 -0.0735
 1235TIP3   OH225119   0.397   4.747  14.292 -0.2040  0.0808 -0.8975
 1235TIP3    H125120   0.326   4.683  14.286  0.3076 -0.5201 -0.6409
 1235TIP3    H225121   0.362   4.816  14.348 -1.0355  0.4095 -1.7816
 1236TIP3   OH225122   5.429   1.233   1.689  0.3193  0.1505  0.1680
 1236TIP3    H125123   5.470   1.235   1.776 -1.1645  0.0523  0.8890
 1236TIP3    H225124   5.360   1.168   1.697  0.3490 -0.0559 -1.1808
 1237TIP3   OH225125   1.057   1.287  13.279  0.3388  0.1826 -0.4600
 1237TIP3    H125126   1.027   1.273  13.369 -0.9428 -0.3950 -0.9438
 1237TIP3    H225127   1.020   1.371  13.254 -1.1543 -0.6274 -1.1306
 1238TIP3   OH225128   0.089   3.651   5.471  0.4471 -0.0534  0.1896
 1238TIP3    H125129   0.004   3.690   5.494  0.1386 -0.5833 -0.0311
 1238TIP3    H225130   0.137   3.648   5.554 -0.7318 -2.1470  0.8834
 1239TIP3   OH225131   3.942   4.174   6.287 -0.1902 -0.0568  0.1652
 1239TIP3    H125132   3.889   4.108   6.241 -0.1979 -0.3790  0.6200
 1239TIP3    H225133   3.878   4.230   6.330 -0.2503  1.4349 -1.7686
 1240TIP3   OH225134   6.761   4.228  11.173  0.0707 -0.4463  0.4474
 1240TIP3    H125135   6.785   4.307  11.124  0.6286  0.2289  1.7720
 1240TIP3    H225136   6.732   4.166  11.105 -1.2944  1.1985 -0.5642
 1241TIP3   OH225137   4.379   2.689   2.955  0.3418  0.4635  0.1275
 1241TIP3    H125138   4.385   2.595   2.970  0.4907  0.4995  0.2920
 1241TIP3    H225139   4.469   2.717   2.936  0.2428  0.5090 -0.3062
 1242TIP3   OH225140   2.417   1.785   2.445 -0.1396 -0.5158  0.3285
 1242TIP3    H125141   2.445   1.819   2.531 -0.5380 -0.3460  0.3905
 1242TIP3    H225142   2.341   1.730   2.465 -0.4837 -0.1485  0.0345
 1243TIP3   OH225143   0.970   4.741   0.144 -0.0930 -0.0767  0.0388
 1243TIP3    H125144   1.051   4.791   0.158  0.3848 -0.8722  0.1805
 1243TIP3    H225145   0.907   4.806   0.113  0.4009  0.6872  0.5956
 1244TIP3   OH225146   3.494   1.491   0.577 -0.3042 -0.3553 -0.6030
 1244TIP3    H125147   3.405   1.488   0.612 -0.0328  0.0871  0.1377
 1244TIP3    H225148   3.551   1.495   0.654  0.3833 -0.9901 -1.0548
 1245TIP3   OH225149   0.516   4.162  13.978  0.4243 -0.3904  0.4191
 1245TIP3    H125150   0.532   4.252  13.948  0.7205 -0.3826  0.5980
 1245TIP3    H225151   0.457   4.125  13.913 -0.2160  0.1408  0.6824
 1246TIP3   OH225152   4.464   1.523   1.513 -0.0037  0.3680 -0.0748
 1246TIP3    H125153   4.417   1.460   1.459 -1.3799  1.4607 -0.1941
 1246TIP3    H225154   4.401   1.593   1.530  0.8693  0.7835  1.6846
 1247TIP3   OH225155   3.333   0.056  15.106  0.3360 -0.1588  0.2040
 1247TIP3    H125156   3.367  -0.029  15.134  0.9194 -1.0604 -2.8434
 1247TIP3    H225157   3.394   0.120  15.144  2.3671 -1.4228 -0.7245
 1248TIP3   OH225158   0.940   0.206   2.143  0.4239  0.1482 -0.1994
 1248TIP3    H125159   0.964   0.172   2.229 -0.8832 -0.9496 -0.2432
 1248TIP3    H225160   0.862   0.157   2.118 -0.3254  1.7667 -1.1980
 1249TIP3   OH225161   2.160   1.717  11.712 -0.4309  0.6228  0.6470
 1249TIP3    H125162   2.138   1.805  11.743 -1.0689  1.9207 -3.0079
 1249TIP3    H225163   2.076   1.672  11.708 -0.1562 -0.0927  2.0929
 1250TIP3   OH225164   5.274   5.112   1.254  0.1952 -0.2158  0.0879
 1250TIP3    H125165   5.309   5.104   1.165 -0.8179  1.0049 -0.4666
 1250TIP3    H225166   5.289   5.204   1.277  1.0823 -0.6886  1.4748
 1251TIP3   OH225167   4.135   3.481   4.204  0.2243 -0.0957  0.2744
 1251TIP3    H125168   4.071   3.434   4.257  1.3109 -0.9610  0.8618
 1251TIP3    H225169   4.171   3.548   4.262 -1.0716  1.3108 -0.4591
 1252TIP3   OH225170   6.166   3.308   0.026 -0.0123 -0.5577 -0.0056
 1252TIP3    H125171   6.076   3.330   0.048  0.1588 -0.2145  0.3488
 1252TIP3    H225172   6.214   3.390   0.035  0.6901 -1.1154  1.6603
 1253TIP3   OH225173   0.199   6.163   0.341  0.5624 -0.6314  0.2779
 1253TIP3    H125174   0.240   6.079   0.363  2.0840 -0.9372 -3.0262
 1253TIP3    H225175   0.258   6.229   0.378  0.9808 -1.0772  0.4238
 1254TIP3   OH225176   0.328   4.689   4.036 -0.1047 -0.5688  0.1673
 1254TIP3    H125177   0.265   4.663   3.969  0.0932  0.4261 -0.4220
 1254TIP3    H225178   0.413   4.681   3.992  0.0292  0.0378  0.3183
 1255TIP3   OH225179   4.714   2.003   2.581 -0.0340 -0.5078 -0.2035
 1255TIP3    H125180   4.808   1.990   2.594 -0.1474 -2.0599 -0.7613
 1255TIP3    H225181   4.684   2.038   2.665  0.8784 -0.9331  0.3268
 1256TIP3   OH225182   5.254   4.309  14.218 -0.0329 -0.1382 -0.3240
 1256TIP3    H125183   5.171   4.322  14.172 -0.1623  2.0688  0.4358
 1256TIP3    H225184   5.229   4.270  14.302 -0.3939  1.0933  0.1582
 1257TIP3   OH225185   6.403   1.115  11.019 -0.0790 -0.2038 -0.6175
 1257TIP3    H125186   6.378   1.035  11.064  0.2673  1.0128  1.9024
 1257TIP3    H225187   6.491   1.098  10.985 -0.3343 -1.1381 -0.8201
 1258TIP3   OH225188   3.007   0.572  11.054  0.3526 -0.5574  0.0762
 1258TIP3    H125189   3.024   0.664  11.033  0.3424 -0.7894 -1.0126
 1258TIP3    H225190   3.038   0.524  10.978 -1.4542 -1.2925 -0.2435
 1259TIP3   OH225191   2.408   4.363   0.284 -0.3794  0.0862 -0.0775
 1259TIP3    H125192   2.324   4.408   0.293 -0.2315  0.3606 -0.0425
 1259TIP3    H225193   2.389   4.287   0.229 -0.5294  0.4854 -0.5888
 1260TIP3   OH225194   1.158   5.085  13.394 -0.4062  0.4539  0.0571
 1260TIP3    H125195   1.214   5.127  13.458 -0.9526 -1.0299  1.5670
 1260TIP3    H225196   1.140   4.998  13.429  0.1908 -0.8885 -2.6489
 1261TIP3   OH225197   5.365   5.502   1.042 -0.4642  0.7269 -0.6842
 1261TIP3    H125198   5.310   5.572   1.078 -0.0655  0.6377  0.1307
 1261TIP3    H225199   5.312   5.462   0.974 -3.1816 -2.0086  2.6458
 1262TIP3   OH225200   2.373   3.243  15.785 -0.5095 -0.1072  0.9610
 1262TIP3    H125201   2.400   3.311  15.724 -1.2939  0.3156  1.0722
 1262TIP3    H225202   2.403   3.161  15.746 -0.1643  0.2433  0.4886
 1263TIP3   OH225203   6.023   5.188  15.857 -0.2433  0.4400 -0.3824
 1263TIP3    H125204   6.067   5.124  15.801 -1.6521  0.2175 -1.2727
 1263TIP3    H225205   6.020   5.268  15.804  1.0498  1.1233  0.5286
 1264TIP3   OH225206   6.465   0.463  13.643  0.0139 -0.3450 -0.1316
 1264TIP3    H125207   6.551   0.423  13.630 -0.9724 -2.4648 -0.4861
 1264TIP3    H225208   6.432   0.477  13.554  1.1111  3.3191 -0.1586
 1265TIP3   OH225209   5.698   1.744   5.941 -0.3491 -0.3562  0.3473
 1265TIP3    H125210   5.669   1.653   5.942 -0.3721 -0.4346 -2.2195
 1265TIP3    H225211   5.645   1.787   6.009 -2.1620 -1.7453 -0.1042
 1266TIP3   OH225212   1.698   6.359   1.731  0.4022 -0.2763 -0.2128
 1266TIP3    H125213   1.626   6.420   1.750  2.3737  2.1501 -0.0193
 1266TIP3    H225214   1.687   6.289   1.795 -1.1901  0.5494  0.4916
 1267TIP3   OH225215   5.703   0.280  11.775 -0.5427  0.7900 -0.7623
 1267TIP3    H125216   5.679   0.312  11.688 -1.8483  0.1588 -0.6712
 1267TIP3    H225217   5.677   0.188  11.775 -0.0141  0.6264  0.0926
 1268TIP3   OH225218   3.337   4.697  14.097 -0.0296  0.3489 -0.0494
 1268TIP3    H125219   3.415   4.747  14.074 -0.3294  0.6150 -0.4958
 1268TIP3    H225220   3.349   4.612  14.054  0.2088  0.2381  0.2332
 1269TIP3   OH225221   6.249   0.702  15.198 -0.5793  0.1918 -0.7262
 1269TIP3    H125222   6.333   0.668  15.230 -0.0306  1.8079 -0.3717
 1269TIP3    H225223   6.190   0.695  15.274 -0.7258 -0.7382 -0.9112
 1270TIP3   OH225224   6.665   0.332  15.488  0.1660  0.2189 -0.0371
 1270TIP3    H125225   6.590   0.382  15.456 -1.3449  0.2969  3.2280
 1270TIP3    H225226   6.679   0.364  15.576  1.4770 -2.5710  0.8893
 1271TIP3   OH225227   6.059   4.458  13.559 -0.8943 -0.1583  0.4198
 1271TIP3    H125228   6.111   4.445  13.479 -2.3362 -3.1409 -0.1571
 1271TIP3    H225229   6.125   4.465  13.629  0.3582  1.3656 -0.8256
 1272TIP3   OH225230   1.784   1.511  12.139 -0.1757 -0.1272 -0.0233
 1272TIP3    H125231   1.833   1.437  12.105  3.6322  2.4680 -0.8028
 1272TIP3    H225232   1.742   1.550  12.063 -0.7085 -0.4306  0.1062
 1273TIP3   OH225233   5.195   2.048   2.570 -0.3048 -0.4124 -0.2449
 1273TIP3    H125234   5.186   2.056   2.475  1.9885 -0.0432 -0.4953
 1273TIP3    H225235   5.108   2.065   2.604 -0.9841  0.3751 -2.2360
 1274TIP3   OH225236   5.273   0.212  16.013  0.2393 -0.5288 -0.4860
 1274TIP3    H125237   5.200   0.154  16.035 -0.7016  0.4697 -0.9364
 1274TIP3    H225238   5.348   0.152  16.003  0.4070 -1.2660  3.5830
 1275TIP3   OH225239   2.951   6.202   5.965 -0.0209  0.3374  0.1125
 1275TIP3    H125240   3.026   6.143   5.971 -0.4347 -0.2050  0.0781
 1275TIP3    H225241   2.941   6.237   6.054  1.5171  2.0109 -0.3221
 1276TIP3   OH225242   2.691   4.347  14.014 -0.3915 -0.1777 -0.0767
 1276TIP3    H125243   2.746   4.421  14.041 -0.2693 -0.4500  0.4294
 1276TIP3    H225244   2.744   4.301  13.949 -0.0583 -0.3760  0.3284
 1277TIP3   OH225245   5.784   2.143   2.092 -0.1992  0.3554 -1.0192
 1277TIP3    H125246   5.815   2.193   2.167  1.5263 -1.1337 -0.6668
 1277TIP3    H225247   5.789   2.051   2.121 -0.4367 -0.1855 -2.6051
 1278TIP3   OH225248   4.459   0.209  16.728  0.3259  0.7670  0.3079
 1278TIP3    H125249   4.373   0.206  16.687 -0.2093 -2.1224  1.3925
 1278TIP3    H225250   4.520   0.193  16.656 -0.3908 -1.3792  0.1186
 1279TIP3   OH225251   2.896   4.700  10.325  0.2031  0.5564  0.2717
 1279TIP3    H125252   2.852   4.645  10.259  1.1514  0.1646 -0.0501
 1279TIP3    H225253   2.970   4.739  10.278 -0.0221  1.5164  0.7037
 1280TIP3   OH225254   5.122   3.452  12.980  0.5122  0.1268  0.2170
 1280TIP3    H125255   5.193   3.500  13.022  0.5933 -0.6415  1.0063
 1280TIP3    H225256   5.043   3.497  13.009  0.6611  0.9071 -0.5600
 1281TIP3   OH225257   2.417   3.144  13.080  0.5820  0.1661 -0.1011
 1281TIP3    H125258   2.348   3.181  13.025 -0.1288  0.2535  0.8246
 1281TIP3    H225259   2.498   3.182  13.046  0.0052  1.4681 -0.0767
 1282TIP3   OH225260   5.087   0.318  14.161  0.3119 -0.3159  0.2870
 1282TIP3    H125261   5.090   0.382  14.232 -0.9532 -0.5550  0.5831
 1282TIP3    H225262   4.994   0.310  14.140  0.6139 -0.7029 -0.9902
 1283TIP3   OH225263   3.837   2.524   3.404  0.2317  0.1397 -0.0859
 1283TIP3    H125264   3.877   2.479   3.478 -1.4481  0.8753  1.3440
 1283TIP3    H225265   3.745   2.534   3.429 -0.7315 -0.8139 -2.8816
 1284TIP3   OH225266   1.289   3.507  14.179  0.3502  0.1595  0.0160
 1284TIP3    H125267   1.344   3.488  14.255 -0.5307  0.0307  0.6307
 1284TIP3    H225268   1.294   3.428  14.125 -0.8959 -0.6865  1.1006
 1285TIP3   OH225269   5.224   3.941   5.799  0.2677  0.0468 -0.5788
 1285TIP3    H125270   5.297   3.997   5.825  1.2706 -0.6653 -1.7861
 1285TIP3    H225271   5.185   3.986   5.724 -0.9935  0.7734  0.4763
 1286TIP3   OH225272   3.028   2.605   1.669  0.7459  0.2197 -0.1377
 1286TIP3    H125273   3.091   2.624   1.739 -0.5588 -0.3489  1.2722
 1286TIP3    H225274   2.967   2.680   1.672 -1.9488 -1.8019  2.5468
 1287TIP3   OH225275   6.771   4.070  11.792 -0.3256  0.4369  0.7520
 1287TIP3    H125276   6.695   4.080  11.849 -0.4968 -2.0788  1.1092
 1287TIP3    H225277   6.822   4.001  11.834  1.0190  0.5344 -0.6630
 1288TIP3   OH225278   6.425   3.308  11.302  0.0110  0.0748 -0.2233
 1288TIP3    H125279   6.348   3.260  11.332 -0.0380  0.5298  0.4180
 1288TIP3    H225280   6.416   3.313  11.207 -1.2993  1.0282 -0.0691
 1289TIP3   OH225281   2.515   1.371  15.196 -0.0613  0.0361  0.5277
 1289TIP3    H125282   2.551   1.284  15.179 -0.4928 -0.1701  0.6723
 1289TIP3    H225283   2.429   1.355  15.234 -0.3972  0.5380 -0.0096
 1290TIP3   OH225284   4.599   3.853  11.394 -0.6760 -0.0711  0.2062
 1290TIP3    H125285   4.611   3.772  11.444 -1.7168  0.5264  1.4737
 1290TIP3    H225286   4.670   3.910  11.424 -0.1340 -0.3918 -0.4516
 1291TIP3   OH225287   5.192   5.445  15.401  0.2752  0.2390  0.4000
 1291TIP3    H125288   5.270   5.428  15.454  0.2160  0.6893  0.6378
 1291TIP3    H225289   5.145   5.514  15.449 -0.6412 -0.5369  0.6563
 1292TIP3   OH225290   1.473   3.526   2.008  0.2623 -0.4105  0.3276
 1292TIP3    H125291   1.496   3.558   2.096  0.7803 -3.7998  1.5839
 1292TIP3    H225292   1.557   3.520   1.963 -0.0044  1.3273 -0.4864
 1293TIP3   OH225293   0.942   3.107   1.723  0.2806 -0.1223  0.0018
 1293TIP3    H125294   1.015   3.150   1.679  0.1970 -0.7500 -0.7726
 1293TIP3    H225295   0.965   3.110   1.816  0.9477  0.3074 -0.1706
 1294TIP3   OH225296   0.989   6.587   0.761 -0.7615  0.5652 -0.6000
 1294TIP3    H125297   0.952   6.670   0.731 -4.4690 -0.8072 -0.3714
 1294TIP3    H225298   0.983   6.590   0.856 -0.1394  0.3497 -0.5490
 1295TIP3   OH225299   0.631   2.543   2.176  0.4757 -0.2507 -0.1908
 1295TIP3    H125300   0.572   2.509   2.244  1.5487 -0.4047  0.6946
 1295TIP3    H225301   0.669   2.622   2.214  0.2537  0.2946 -1.0720
 1296TIP3   OH225302   5.780   6.785   2.394 -0.4140 -0.3271 -0.4032
 1296TIP3    H125303   5.834   6.728   2.449  0.3384  0.9072  0.1844
 1296TIP3    H225304   5.837   6.860   2.374 -1.8881  1.0338  0.2668
 1297TIP3   OH225305   4.830   4.096   1.431 -0.2298 -0.2871  0.0506
 1297TIP3    H125306   4.889   4.022   1.413  1.9442  0.8948  1.7822
 1297TIP3    H225307   4.793   4.077   1.517  0.2334  0.5260  0.4452
 1298TIP3   OH225308   1.950   3.369   3.287  0.4020 -0.0847 -0.9004
 1298TIP3    H125309   1.880   3.345   3.226  0.0323 -0.0340 -0.4924
 1298TIP3    H225310   1.907   3.383   3.371  0.9042 -0.0875 -0.6351
 1299TIP3   OH225311   6.557   0.229  12.107  0.4029  0.0602 -0.1516
 1299TIP3    H125312   6.546   0.167  12.179  1.1129  0.9525  0.7369
 1299TIP3    H225313   6.495   0.299  12.125  0.1335 -0.0166 -0.7545
 1300TIP3   OH225314   2.611   3.272  12.961 -0.0905 -0.3338 -0.3173
 1300TIP3    H125315   2.667   3.198  12.984 -2.3592 -1.7669  0.9896
 1300TIP3    H225316   2.671   3.345  12.950  2.0326 -1.7841  0.8881
 1301TIP3   OH225317   6.101   1.605   1.120  0.3923  0.1102  0.2979
 1301TIP3    H125318   6.169   1.608   1.052 -1.4283  0.1728 -1.6035
 1301TIP3    H225319   6.035   1.668   1.091  0.6402  2.0726  3.4610
 1302TIP3   OH225320   5.536   2.478   5.099 -0.0254  0.1508 -0.7945
 1302TIP3    H125321   5.500   2.390   5.088  2.1160 -0.6809 -1.7461
 1302TIP3    H225322   5.479   2.535   5.046 -1.5175 -0.6024 -0.0535
 1303TIP3   OH225323   0.322   3.503  14.394  0.1215  0.0822 -0.5057
 1303TIP3    H125324   0.364   3.556  14.327 -0.5494  0.3393 -0.7274
 1303TIP3    H225325   0.333   3.413  14.364  1.3691  0.0792 -0.0661
 1304TIP3   OH225326   3.579   4.606  11.219 -0.3214  0.6561  0.3934
 1304TIP3    H125327   3.674   4.619  11.221 -0.2374  0.3221 -0.9691
 1304TIP3    H225328   3.548   4.657  11.145 -1.0031 -0.4585 -0.1125
 1305TIP3   OH225329   2.637   4.343   2.569 -0.6671  0.1220  0.6123
 1305TIP3    H125330   2.730   4.318   2.568 -0.1922  1.8084 -0.3114
 1305TIP3    H225331   2.636   4.433   2.536 -2.1642  1.8210  4.7152
 1306TIP3   OH225332   5.593   0.250   3.896  0.1426  0.1661 -0.1011
 1306TIP3    H125333   5.650   0.205   3.958  0.2356 -2.2210 -1.7782
 1306TIP3    H225334   5.598   0.343   3.921  1.6821 -0.4456  2.1701
 1307TIP3   OH225335   6.436   5.984  11.289 -0.3462  0.0405  0.2755
 1307TIP3    H125336   6.436   5.996  11.194 -0.4272 -1.1124  0.1081
 1307TIP3    H225337   6.364   6.038  11.321 -0.8869 -0.2506 -0.4242
 1308TIP3   OH225338   4.018   6.726   0.258 -0.0326  0.6747 -0.3357
 1308TIP3    H125339   4.100   6.676   0.255  0.9858  2.2682  0.0920
 1308TIP3    H225340   3.952   6.662   0.287  1.3531 -0.2808  0.8410
 1309TIP3   OH225341   6.662   2.738  15.600 -0.6750  0.4772 -0.2355
 1309TIP3    H125342   6.747   2.696  15.614  0.1624  1.4443 -2.0541
 1309TIP3    H225343   6.632   2.703  15.516 -0.4206  2.6423 -1.2984
 1310TIP3   OH225344   4.768   5.804   2.782  0.9729 -0.1080 -0.0462
 1310TIP3    H125345   4.808   5.797   2.695  0.3966 -0.2724 -0.3043
 1310TIP3    H225346   4.818   5.743   2.837  1.1014 -0.2778 -0.3509
 1311TIP3   OH225347   0.125   4.854  12.094 -0.1488 -0.4070 -0.4875
 1311TIP3    H125348   0.220   4.860  12.093 -0.1836  0.3303 -1.8852
 1311TIP3    H225349   0.106   4.767  12.131  0.9716  0.2388  1.7830
 1312TIP3   OH225350   0.680   4.975   4.867 -0.6185  0.1889  0.0548
 1312TIP3    H125351   0.733   4.961   4.946 -0.8944 -1.0664  0.0281
 1312TIP3    H225352   0.723   5.049   4.824 -0.5024  0.9521  1.4018
 1313TIP3   OH225353   1.666   4.600  12.838  0.5302  0.4396  0.1299
 1313TIP3    H125354   1.701   4.530  12.893 -0.9683 -0.5504 -0.0877
 1313TIP3    H225355   1.681   4.570  12.749  1.5457  1.2953  0.0041
 1314TIP3   OH225356   2.899   4.462  12.130  0.2427  0.5379 -0.0337
 1314TIP3    H125357   2.803   4.458  12.129  0.2544 -0.5765  1.2712
 1314TIP3    H225358   2.926   4.404  12.059 -0.0332  1.3886 -0.8607
 1315TIP3   OH225359   4.669   6.638   1.048 -0.3860  0.5599 -0.0008
 1315TIP3    H125360   4.694   6.728   1.067 -2.9255  1.1198  1.1982
 1315TIP3    H225361   4.679   6.629   0.953 -1.5950  2.6473 -0.3785
 1316TIP3   OH225362   0.566   5.630  17.077  0.0616  0.4002  0.4342
 1316TIP3    H125363   0.652   5.649  17.115  0.8655 -0.0620 -1.0897
 1316TIP3    H225364   0.537   5.714  17.041  0.5599  0.2384 -0.3605
 1317TIP3   OH225365   5.864   4.492  11.130 -0.0805  0.2294  0.4317
 1317TIP3    H125366   5.904   4.417  11.087  1.3676  0.7739  0.7588
 1317TIP3    H225367   5.877   4.565  11.069 -0.0075  0.5502  0.8247
 1318TIP3   OH225368   2.735   0.354  10.892 -0.0986  0.6018 -0.4173
 1318TIP3    H125369   2.674   0.301  10.842  0.1524  0.5343 -0.6529
 1318TIP3    H225370   2.791   0.291  10.938 -1.5244  0.6150  1.4850
 1319TIP3   OH225371   4.544   3.017   1.939  0.3332  0.0603 -0.1043
 1319TIP3    H125372   4.560   3.079   2.010 -2.1414 -0.3045  0.8704
 1319TIP3    H225373   4.519   2.936   1.983  1.3819 -1.0218 -1.3914
 1320TIP3   OH225374   4.493   4.470   4.449  0.1055  0.0510 -0.4031
 1320TIP3    H125375   4.406   4.491   4.482  0.1376 -0.1597 -0.1790
 1320TIP3    H225376   4.477   4.405   4.380 -0.0389  1.2317 -1.5073
 1321TIP3   OH225377   1.915   1.146  15.867 -0.3404  0.5017  0.3274
 1321TIP3    H125378   1.848   1.206  15.834  0.1751  0.5323 -0.6870
 1321TIP3    H225379   1.931   1.177  15.957  0.0790  2.0437 -0.2441
 1322TIP3   OH225380   2.261   2.718  12.485 -0.5477  0.2129 -0.3252
 1322TIP3    H125381   2.348   2.720  12.446 -0.6659 -0.3518 -0.6251
 1322TIP3    H225382   2.230   2.629  12.471 -0.9708  0.2641  0.2351
 1323TIP3   OH225383   1.495   3.129  11.294 -0.5607  0.0061 -0.3558
 1323TIP3    H125384   1.427   3.171  11.241 -0.8850  0.5474  0.4742
 1323TIP3    H225385   1.498   3.039  11.262  1.6878  1.0525 -3.7559
 1324TIP3   OH225386   0.534   4.413   3.625  0.0411  0.3584 -0.2201
 1324TIP3    H125387   0.568   4.449   3.707  1.6989  0.7018 -1.0012
 1324TIP3    H225388   0.477   4.481   3.590  0.3708  0.7708  0.0252
 1325TIP3   OH225389   5.734   4.087  13.053 -0.2545  0.0619 -0.0558
 1325TIP3    H125390   5.715   4.007  13.102 -1.2477 -0.5231 -1.3298
 1325TIP3    H225391   5.827   4.081  13.032 -0.1496 -0.3823  0.4997
 1326TIP3   OH225392   0.442   0.066  16.756 -0.1002  0.4262 -0.2336
 1326TIP3    H125393   0.465   0.033  16.669 -0.4357 -0.9339  0.1606
 1326TIP3    H225394   0.398  -0.008  16.798  1.3178  0.5687  1.6063
 1327TIP3   OH225395   5.505   0.681   4.358 -0.1666 -0.3376 -0.3661
 1327TIP3    H125396   5.528   0.600   4.403 -1.5752 -0.0179  0.9957
 1327TIP3    H225397   5.580   0.738   4.372 -0.2880 -0.4889  1.0254
 1328TIP3   OH225398   3.536   4.523  16.936 -0.0177  0.1768  0.6387
 1328TIP3    H125399   3.544   4.554  16.845 -0.8441  2.1871  1.1848
 1328TIP3    H225400   3.531   4.604  16.987 -0.0744 -0.9281  2.4256
 1329TIP3   OH225401   2.125   6.353   5.697  0.2251  0.0420  0.7721
 1329TIP3    H125402   2.035   6.320   5.702  0.2291  0.0490  0.8864
 1329TIP3    H225403   2.164   6.330   5.781  0.5085 -0.4746  0.5069
 1330TIP3   OH225404   6.469   5.154   1.925  0.2034 -0.4517  0.0106
 1330TIP3    H125405   6.468   5.104   2.007 -2.5675  1.0852  1.0376
 1330TIP3    H225406   6.381   5.141   1.888 -0.0565  2.2923 -0.4836
 1331TIP3   OH225407   1.170   6.388   4.037 -0.4180  0.0792 -0.3369
 1331TIP3    H125408   1.190   6.310   4.089  1.0571  0.4328 -0.3202
 1331TIP3    H225409   1.181   6.360   3.946 -0.8831  0.0155 -0.3760
 1332TIP3   OH225410   4.727   1.382   2.067 -0.1492  0.1969 -0.1693
 1332TIP3    H125411   4.810   1.381   2.115 -0.3386  0.1684  0.1618
 1332TIP3    H225412   4.721   1.470   2.030 -0.0720  0.2666 -0.0143
 1333TIP3   OH225413   5.165   6.509  11.954  0.4129 -0.3876 -0.2844
 1333TIP3    H125414   5.212   6.498  12.036  0.4025 -0.5685 -0.3024
 1333TIP3    H225415   5.090   6.563  11.977  0.3212 -0.5740 -0.1410
 1334TIP3   OH225416   3.089   3.081   0.126  0.1079 -0.4188  0.1418
 1334TIP3    H125417   3.149   3.089   0.052 -1.3798 -0.9510 -1.1848
 1334TIP3    H225418   3.066   3.171   0.149  1.6873 -0.1986  0.9238
 1335TIP3   OH225419   5.930   0.315  13.884  0.1609  0.1208 -0.3051
 1335TIP3    H125420   5.872   0.340  13.812 -1.2549  0.6370  0.9617
 1335TIP3    H225421   5.917   0.383  13.951 -0.4648 -1.6238  1.4451
 1336TIP3   OH225422   1.925   0.332   4.651 -0.4039  0.4584 -0.2319
 1336TIP3    H125423   1.928   0.422   4.618  0.1089  1.4854  2.3361
 1336TIP3    H225424   1.864   0.287   4.593 -1.7303  2.8324 -0.8275
 1337TIP3   OH225425   5.885   0.725   1.856 -0.0753  0.1273  0.0628
 1337TIP3    H125426   5.969   0.713   1.901  0.1673 -0.8026 -0.5885
 1337TIP3    H225427   5.907   0.720   1.763 -1.0481 -1.9191 -0.1191
 1338TIP3   OH225428   1.917   0.439  12.497 -0.6877 -0.1549  0.3561
 1338TIP3    H125429   1.978   0.372  12.527  0.8039  0.0752 -1.9084
 1338TIP3    H225430   1.951   0.520  12.534 -0.5280 -0.2250  0.3645
 1339TIP3   OH225431   4.368   6.656  11.512  0.6038 -0.0666 -0.3201
 1339TIP3    H125432   4.408   6.700  11.437 -1.1694  1.4870 -0.4157
 1339TIP3    H225433   4.432   6.666  11.582  1.1851  0.6933 -0.9480
 1340TIP3   OH225434   1.015   4.286   5.247  0.3657  0.0830 -0.4982
 1340TIP3    H125435   0.991   4.282   5.340  0.8843  1.7307 -0.2576
 1340TIP3    H225436   0.987   4.202   5.212  1.7870 -1.3291  1.5167
 1341TIP3   OH225437   3.425   0.223  12.307 -0.2462  0.5763 -0.3854
 1341TIP3    H125438   3.461   0.240  12.394 -1.4623 -0.0445  0.2611
 1341TIP3    H225439   3.359   0.292  12.295 -2.2462 -1.0852  0.5038
 1342TIP3   OH225440   3.480   6.636  12.344  0.4384  0.1308  0.1755
 1342TIP3    H125441   3.569   6.649  12.377  0.7499  0.8805 -0.9245
 1342TIP3    H225442   3.476   6.543  12.323  0.8302  0.0110  0.6239
 1343TIP3   OH225443   4.718   1.529  16.075  0.0247 -0.2300  0.1871
 1343TIP3    H125444   4.672   1.519  15.991  1.2629 -0.4744 -0.4995
 1343TIP3    H225445   4.749   1.440  16.096  2.2860  0.2782 -0.6740
 1344TIP3   OH225446   2.846   5.466  15.571 -0.4638 -0.4157 -0.1162
 1344TIP3    H125447   2.901   5.389  15.553  0.9315  0.3970  0.4938
 1344TIP3    H225448   2.840   5.469  15.667 -1.7922 -0.6288 -0.1877
 1345TIP3   OH225449   0.812   0.355   0.027 -0.3003 -0.5481  0.0358
 1345TIP3    H125450   0.895   0.379  -0.015 -0.2976 -0.9254 -0.1791
 1345TIP3    H225451   0.786   0.433   0.076  0.6336 -0.7255  0.8303
 1346TIP3   OH225452   1.972   0.068  15.673 -0.1303  0.0984  0.4789
 1346TIP3    H125453   2.016   0.153  15.678  0.1602 -0.0325  0.2291
 1346TIP3    H225454   1.973   0.047  15.579  1.2400 -0.9178  0.6816
 1347TIP3   OH225455   2.240   3.249  12.887 -0.1644 -0.2780 -0.1189
 1347TIP3    H125456   2.239   3.345  12.887 -0.5163 -0.2712  0.5377
 1347TIP3    H225457   2.222   3.224  12.797 -2.2783  0.2745  0.0802
 1348TIP3   OH225458   1.104   0.799  16.461 -0.3243 -0.0253  0.1463
 1348TIP3    H125459   1.122   0.772  16.371  1.6665 -0.8591  0.7336
 1348TIP3    H225460   1.191   0.810  16.501 -1.1263  1.7564  1.5681
 1349TIP3   OH225461   0.869   6.307  15.752  0.2954 -0.1363 -0.2992
 1349TIP3    H125462   0.939   6.298  15.687  0.1165 -1.5227 -0.3352
 1349TIP3    H225463   0.788   6.309  15.699  0.2343  0.2775 -0.1940
 1350TIP3   OH225464   2.167   1.510   3.474  0.5286 -0.0707 -0.2594
 1350TIP3    H125465   2.195   1.485   3.561  0.0704 -0.9674 -0.3553
 1350TIP3    H225466   2.132   1.429   3.435 -0.8635  0.6649 -0.6404
 1351TIP3   OH225467   4.671   6.644  12.147  0.0301  0.2339  0.0029
 1351TIP3    H125468   4.679   6.702  12.223 -1.1331  0.4788 -0.0351
 1351TIP3    H225469   4.639   6.561  12.182 -0.9421  0.4861 -0.2564
 1352TIP3   OH225470   5.413   0.514  10.991  0.3672  0.0875 -0.2941
 1352TIP3    H125471   5.472   0.568  10.937 -1.0017  1.6388 -0.3093
 1352TIP3    H225472   5.342   0.489  10.931 -0.2220  0.2628  0.3195
 1353TIP3   OH225473   6.275   3.526   6.191  0.1787  0.1129  0.1916
 1353TIP3    H125474   6.250   3.521   6.284 -0.5135  0.3265  0.0274
 1353TIP3    H225475   6.212   3.469   6.147  0.6279 -0.1407 -0.1329
 1354TIP3   OH225476   5.167   0.116  11.497 -0.0621 -0.3307  0.3468
 1354TIP3    H125477   5.121   0.193  11.530  1.3435  0.2804  0.9896
 1354TIP3    H225478   5.252   0.150  11.468  0.3371 -1.5440  0.0438
 1355TIP3   OH225479   6.329   1.869  15.164  0.0385 -0.2372 -0.0539
 1355TIP3    H125480   6.348   1.845  15.073  1.9858 -0.0727  0.2769
 1355TIP3    H225481   6.239   1.839  15.178 -0.2321 -0.4236 -1.9760
 1356TIP3   OH225482   3.812   5.031   4.385  0.0876 -0.2816 -0.1291
 1356TIP3    H125483   3.718   5.012   4.381  0.2235 -1.0854  0.3020
 1356TIP3    H225484   3.835   5.016   4.477  0.6696 -0.2538 -0.2694
 1357TIP3   OH225485   1.456   0.652   4.163  0.4243 -0.1702 -0.2789
 1357TIP3    H125486   1.468   0.568   4.119  0.5702 -0.0690 -0.4337
 1357TIP3    H225487   1.525   0.655   4.230 -0.4349 -0.7747  0.6569
 1358TIP3   OH225488   3.302   3.050  10.741  0.5736 -0.0824 -0.0318
 1358TIP3    H125489   3.229   3.112  10.736  1.2196  0.6458 -0.7800
 1358TIP3    H225490   3.368   3.094  10.795  1.0271 -0.1113 -0.5462
 1359TIP3   OH225491   4.359   2.537  10.798  0.1992  0.3394  0.7120
 1359TIP3    H125492   4.306   2.508  10.872  0.8255 -1.6251  0.4501
 1359TIP3    H225493   4.295   2.562  10.731 -0.3635  1.8315  1.7488
 1360TIP3   OH225494   4.421   2.350  14.386 -0.1317  0.8170 -0.0293
 1360TIP3    H125495   4.341   2.392  14.418 -1.3742 -0.9986 -0.5063
 1360TIP3    H225496   4.485   2.362  14.455 -0.5625  2.9872  0.0436
 1361TIP3   OH225497   4.631   2.874   6.127  0.1422 -0.0990  0.2923
 1361TIP3    H125498   4.624   2.947   6.188 -3.3259  0.5310 -0.6725
 1361TIP3    H225499   4.557   2.817   6.148  0.8087 -1.5990 -1.1789
 1362TIP3   OH225500   0.394   3.751   4.056 -0.0516  0.6304  0.3055
 1362TIP3    H125501   0.330   3.746   4.126  0.8450  0.0872  1.1048
 1362TIP3    H225502   0.476   3.721   4.095  0.4386  0.1639 -1.0108
 1363TIP3   OH225503   0.613   1.889   5.319  0.4008 -0.3445  0.1773
 1363TIP3    H125504   0.675   1.934   5.261  1.5263 -1.2164  0.6578
 1363TIP3    H225505   0.640   1.914   5.407  0.6404 -1.4040  0.4233
 1364TIP3   OH225506   3.869   3.967   1.319  0.1201 -1.0752  0.5566
 1364TIP3    H125507   3.894   3.943   1.230 -0.4447  0.3678 -0.0142
 1364TIP3    H225508   3.950   3.959   1.369  0.9337  0.0681 -0.5201
 1365TIP3   OH225509   6.337   5.344   3.960 -0.2419  0.1642 -0.4339
 1365TIP3    H125510   6.300   5.322   3.875  0.1848  0.0195 -0.5851
 1365TIP3    H225511   6.431   5.351   3.944  0.1698 -2.2258  0.4876
 1366TIP3   OH225512   4.594   3.502   1.984  0.2785 -0.0435  0.2824
 1366TIP3    H125513   4.522   3.555   2.018 -0.5827 -0.3901 -0.9281
 1366TIP3    H225514   4.601   3.429   2.045  0.3003  0.5222  0.9738
 1367TIP3   OH225515   5.627   3.430  16.092  0.0657  0.2127 -0.0667
 1367TIP3    H125516   5.586   3.402  16.173  0.0097 -0.1002 -0.2027
 1367TIP3    H225517   5.558   3.427  16.027  0.4173 -0.7969 -0.4050
 1368TIP3   OH225518   2.650   3.200  14.867  0.2788 -0.0241  0.3093
 1368TIP3    H125519   2.714   3.241  14.808  0.0161 -0.9962 -0.6840
 1368TIP3    H225520   2.640   3.111  14.833 -1.8333  0.1955  0.2408
 1369TIP3   OH225521   3.046   4.157   3.433  0.6515  0.6109 -0.0334
 1369TIP3    H125522   3.024   4.251   3.434 -1.6848  0.1637 -1.4441
 1369TIP3    H225523   3.069   4.140   3.341 -1.8295 -0.7230 -0.4723
 1370TIP3   OH225524   2.587   6.290  14.596 -0.9288 -0.1053 -0.3501
 1370TIP3    H125525   2.588   6.260  14.687 -1.1353 -0.8569 -0.5860
 1370TIP3    H225526   2.496   6.280  14.568 -1.0400  0.9221 -0.3915
 1371TIP3   OH225527   2.294   0.153  15.731 -0.2603  0.3184  0.2803
 1371TIP3    H125528   2.251   0.125  15.650 -0.1781  0.5495  0.1560
 1371TIP3    H225529   2.229   0.207  15.776 -0.3132  0.1738  0.3791
 1372TIP3   OH225530   6.653   2.597   4.212  0.0438  0.3033 -0.0917
 1372TIP3    H125531   6.684   2.614   4.123  0.4633  0.9799  0.1792
 1372TIP3    H225532   6.565   2.635   4.215  0.5502  1.4846  0.1786
 1373TIP3   OH225533   0.705   0.652   1.928 -0.3770 -0.1948 -0.0381
 1373TIP3    H125534   0.619   0.679   1.895 -1.4541 -1.2873  1.7505
 1373TIP3    H225535   0.757   0.638   1.848 -2.0990 -0.3328 -1.1963
 1374TIP3   OH225536   3.559   4.221  12.829 -0.4515  0.3859 -0.0931
 1374TIP3    H125537   3.611   4.240  12.752  0.2290  0.1312  0.2941
 1374TIP3    H225538   3.623   4.197  12.896 -1.0974 -0.5850  0.2035
 1375TIP3   OH225539   1.001   4.534  17.085 -0.0811  0.2505 -0.6093
 1375TIP3    H125540   1.074   4.513  17.142 -1.1380 -0.9259  0.3729
 1375TIP3    H225541   0.996   4.630  17.086  0.5061  0.2835  0.5362
 1376TIP3   OH225542   1.957   0.345  13.017  0.6963 -0.0196 -0.4701
 1376TIP3    H125543   2.034   0.331  13.073 -1.4005  0.2538  2.7191
 1376TIP3    H225544   1.926   0.256  12.997 -1.0276 -0.2801  2.7136
 1377TIP3   OH225545   6.497   0.629   3.151 -0.4186  0.5255 -0.1728
 1377TIP3    H125546   6.562   0.627   3.221  0.0810  0.1139 -0.6376
 1377TIP3    H225547   6.512   0.549   3.102 -3.1746 -1.0772  1.3687
 1378TIP3   OH225548   5.210   6.234   5.566  0.6069 -0.3695 -0.1587
 1378TIP3    H125549   5.242   6.322   5.588  2.3159 -1.2432  1.0744
 1378TIP3    H225550   5.200   6.191   5.650 -0.3961 -1.3188 -0.7428
 1379TIP3   OH225551   3.043   5.051  14.972  0.2661 -0.3693  0.3115
 1379TIP3    H125552   2.991   5.131  14.967 -0.4388 -0.8666 -3.8798
 1379TIP3    H225553   2.985   4.987  15.013 -0.9199  0.1334 -0.5273
 1380TIP3   OH225554   6.556   3.458   2.330  0.2920 -0.2219  0.1483
 1380TIP3    H125555   6.476   3.405   2.337  0.7157 -1.0749 -1.1609
 1380TIP3    H225556   6.594   3.454   2.418 -0.6414 -0.5280  0.5607
 1381TIP3   OH225557   5.098   3.040  15.322  0.5135 -0.2124  0.4986
 1381TIP3    H125558   5.133   3.060  15.409 -0.8038 -1.2726  1.3164
 1381TIP3    H225559   5.036   2.969  15.337 -2.2802  1.7770 -0.7627
 1382TIP3   OH225560   3.446   3.720   4.495  0.2032  0.2658 -0.2611
 1382TIP3    H125561   3.455   3.643   4.440  2.0101  0.3885 -0.1930
 1382TIP3    H225562   3.354   3.720   4.520  0.0744 -1.6814 -0.5275
 1383TIP3   OH225563   3.194   3.560   0.906 -0.4441 -0.7974 -0.0537
 1383TIP3    H125564   3.217   3.570   0.813 -1.2120 -0.3664 -0.1985
 1383TIP3    H225565   3.225   3.640   0.947 -0.5883 -0.7554 -0.0286
 1384TIP3   OH225566   2.341   2.824   2.681  0.0616  0.2368 -0.0110
 1384TIP3    H125567   2.356   2.850   2.590 -0.0609 -2.6210 -0.9639
 1384TIP3    H225568   2.246   2.811   2.686  0.3429 -3.0130 -0.6560
 1385TIP3   OH225569   0.767   2.579   0.239 -0.3508 -0.1007  0.4743
 1385TIP3    H125570   0.856   2.545   0.249 -0.1091 -0.0491 -1.1465
 1385TIP3    H225571   0.726   2.519   0.176 -1.0729  0.5648  0.3006
 1386TIP3   OH225572   5.560   4.201   4.401  0.4605 -0.5423 -0.6257
 1386TIP3    H125573   5.635   4.142   4.410  1.8812  1.1812 -0.4808
 1386TIP3    H225574   5.599   4.288   4.406 -1.2674  0.4457 -2.8448
 1387TIP3   OH225575   4.392   2.702   3.601  0.2916 -0.0045  0.0662
 1387TIP3    H125576   4.307   2.703   3.558  1.0076 -0.9971 -1.4697
 1387TIP3    H225577   4.449   2.754   3.545  0.7335  0.6374  1.0674
 1388TIP3   OH225578   0.404   5.019   5.481  0.0199  0.7217 -0.5766
 1388TIP3    H125579   0.466   5.052   5.416  1.2975 -0.4606 -0.0113
 1388TIP3    H225580   0.393   5.092   5.542  1.0545  0.8726 -0.5514
 1389TIP3   OH225581   1.526   2.931  13.846  0.2070 -0.2281 -0.5561
 1389TIP3    H125582   1.589   2.985  13.799  0.5494 -0.7614 -0.7064
 1389TIP3    H225583   1.445   2.939  13.796 -0.0186  0.9223 -0.0463
 1390TIP3   OH225584   1.085   5.739   3.211 -0.0100  0.2022 -0.8590
 1390TIP3    H125585   1.138   5.729   3.132  1.1346  1.4887 -0.3062
 1390TIP3    H225586   1.121   5.675   3.273 -1.1937 -1.1154 -1.4787
 1391TIP3   OH225587   0.653   4.364  13.776 -0.1435 -0.7690  0.1839
 1391TIP3    H125588   0.682   4.427  13.711 -0.9841  1.5034  1.8795
 1391TIP3    H225589   0.714   4.291  13.768  3.4351  1.8959  0.7308
 1392TIP3   OH225590   2.412   2.012  13.637 -0.0029 -0.0614 -0.0092
 1392TIP3    H125591   2.320   1.985  13.632  0.6890 -2.8930  1.0120
 1392TIP3    H225592   2.460   1.932  13.654  2.5388  1.5645  1.0492
 1393TIP3   OH225593   5.139   1.617  11.285 -0.6902  0.0784  0.2191
 1393TIP3    H125594   5.229   1.646  11.300 -1.1414  0.7702  1.8960
 1393TIP3    H225595   5.095   1.634  11.369 -2.0577 -1.4588 -0.1423
 1394TIP3   OH225596   4.812   6.072   2.892  0.4564 -0.0641  0.0780
 1394TIP3    H125597   4.780   6.000   2.837 -2.1668  0.0666  1.2684
 1394TIP3    H225598   4.746   6.081   2.961  1.4268  2.5404  0.8046
 1395TIP3   OH225599   5.975   5.925   4.893  0.4159 -0.6087  0.6615
 1395TIP3    H125600   5.882   5.947   4.901  0.5837  0.3428  0.1173
 1395TIP3    H225601   5.985   5.894   4.803  1.1617  2.2357 -0.3395
 1396TIP3   OH225602   3.082   6.685   3.800  0.2909  0.1721  0.1973
 1396TIP3    H125603   3.085   6.742   3.876  0.7664 -0.7997  0.9263
 1396TIP3    H225604   3.105   6.741   3.726  1.7508  0.6901  1.0268
 1397TIP3   OH225605   1.181   3.712  16.520  0.4809 -0.8685 -0.1737
 1397TIP3    H125606   1.139   3.653  16.582 -0.9400 -2.1086 -2.2163
 1397TIP3    H225607   1.151   3.683  16.434  2.2750  0.8484 -1.4791
 1398TIP3   OH225608   0.215   2.695  15.939  0.2600 -0.1190 -0.1390
 1398TIP3    H125609   0.254   2.780  15.957  1.0605 -0.0918 -1.8036
 1398TIP3    H225610   0.277   2.652  15.881 -0.7204 -1.3443 -0.3250
 1399TIP3   OH225611   3.802   0.354   4.624  0.5775  0.1851  0.1084
 1399TIP3    H125612   3.749   0.369   4.545  1.0109 -0.6789 -0.3591
 1399TIP3    H225613   3.792   0.434   4.675  2.1072  1.7364 -1.8767
 1400TIP3   OH225614   1.175   1.532  16.798  0.4565  0.5147  0.0923
 1400TIP3    H125615   1.139   1.621  16.799  1.5933  1.0118  1.8303
 1400TIP3    H225616   1.235   1.530  16.873 -0.3284 -2.0660  0.7361
 1401TIP3   OH225617   1.880   3.068   3.599  0.1153  0.2389  0.5630
 1401TIP3    H125618   1.949   3.048   3.536 -0.5724 -0.0605 -0.0946
 1401TIP3    H225619   1.823   3.130   3.554 -0.8729 -0.6595  0.5678
 1402TIP3   OH225620   3.951   0.559  12.533 -0.4465 -0.3788  0.1957
 1402TIP3    H125621   4.039   0.533  12.560  1.0859  2.0563 -2.0404
 1402TIP3    H225622   3.909   0.588  12.614  1.4941  0.2238  1.0281
 1403TIP3   OH225623   3.861   1.936  15.358  0.2722  0.1442 -0.0676
 1403TIP3    H125624   3.798   1.994  15.402 -0.6060 -0.3048 -0.7009
 1403TIP3    H225625   3.837   1.848  15.387  1.4607  0.0602  0.7127
 1404TIP3   OH225626   3.503   2.243   2.788 -0.4368  0.2095 -0.1946
 1404TIP3    H125627   3.430   2.181   2.782  0.6800 -1.1495 -0.3189
 1404TIP3    H225628   3.533   2.254   2.698 -1.7880  2.4265 -0.4157
 1405TIP3   OH225629   4.808   4.452   2.310 -0.3487 -0.3621  0.1085
 1405TIP3    H125630   4.849   4.444   2.396 -1.1858 -1.7689  0.4115
 1405TIP3    H225631   4.723   4.409   2.320 -1.5982  1.7782 -0.6967
 1406TIP3   OH225632   1.387   5.051   6.213  0.8547  0.9272  0.6013
 1406TIP3    H125633   1.309   5.058   6.159  2.0077  0.5516 -1.1950
 1406TIP3    H225634   1.364   4.987   6.280  0.4414 -1.2919 -1.5223
 1407TIP3   OH225635   4.085   2.603  14.032  0.2033 -0.6093  0.6327
 1407TIP3    H125636   4.074   2.574  13.942 -0.0734 -0.2604  0.5560
 1407TIP3    H225637   4.019   2.670  14.045  1.2794  0.5003  0.5969
 1408TIP3   OH225638   4.950   0.457   2.973  0.3693 -0.4646  0.2031
 1408TIP3    H125639   4.914   0.499   2.894  1.7453  1.0654  0.3310
 1408TIP3    H225640   4.900   0.495   3.045 -0.2242 -1.1245  0.1480
 1409TIP3   OH225641   1.369   0.224  15.016  0.0312 -0.3049  0.4113
 1409TIP3    H125642   1.343   0.285  14.946 -1.6737 -1.7324 -0.2816
 1409TIP3    H225643   1.436   0.271  15.065 -0.1352  1.5235 -1.0043
 1410TIP3   OH225644   4.446   0.172   4.716 -0.1813  0.2780  0.3285
 1410TIP3    H125645   4.508   0.241   4.738  0.3989 -0.0251 -0.2849
 1410TIP3    H225646   4.482   0.132   4.636 -0.8367 -0.3134  0.3124
 1411TIP3   OH225647   2.042   5.499   1.332  0.6065  0.4176 -0.1982
 1411TIP3    H125648   1.964   5.527   1.379 -0.0920 -0.6747 -0.6897
 1411TIP3    H225649   2.114   5.522   1.391 -0.0200  1.8387  0.0707
 1412TIP3   OH225650   4.616   2.065  13.160  0.2405 -0.8141  0.7272
 1412TIP3    H125651   4.635   2.159  13.160 -1.5657 -0.3968 -0.5601
 1412TIP3    H225652   4.697   2.024  13.130  0.6314  0.4439  0.0117
 1413TIP3   OH225653   5.229   5.214  12.664  0.2311 -0.3523  0.3278
 1413TIP3    H125654   5.185   5.299  12.653  0.9306 -0.0418 -0.1946
 1413TIP3    H225655   5.217   5.192  12.756 -0.7827 -0.1513  0.2568
 1414TIP3   OH225656   6.017   6.750   5.958  0.2853 -0.3675 -0.0666
 1414TIP3    H125657   5.946   6.693   5.987  0.1765  0.2297  0.9145
 1414TIP3    H225658   6.095   6.716   6.003  0.1685  0.4035  0.7482
 1415TIP3   OH225659   5.938   5.428   2.243 -0.0693  0.4569  0.0512
 1415TIP3    H125660   5.977   5.460   2.324 -0.3183  0.6080  0.1128
 1415TIP3    H225661   5.967   5.489   2.176 -3.1201  2.8011  0.6522
 1416TIP3   OH225662   3.854   4.841   4.621  0.3625  0.3929 -0.4182
 1416TIP3    H125663   3.850   4.773   4.688 -1.2665 -0.1602 -1.0473
 1416TIP3    H225664   3.947   4.846   4.598  1.0152  0.7623  2.0010
 1417TIP3   OH225665   3.057   5.670   3.908  0.5539  0.1304  0.6003
 1417TIP3    H125666   3.082   5.727   3.981  0.9441 -0.8118  1.2158
 1417TIP3    H225667   3.135   5.619   3.890  0.0285 -0.6391  0.4633
 1418TIP3   OH225668   0.675   4.892  12.617  0.6047 -0.4068 -0.6395
 1418TIP3    H125669   0.690   4.815  12.671 -1.2657 -0.5820 -0.3156
 1418TIP3    H225670   0.606   4.941  12.661  2.5723  2.1945 -0.1323
 1419TIP3   OH225671   5.347   5.631   2.448  0.0540 -0.7088  0.4114
 1419TIP3    H125672   5.353   5.627   2.543  0.4884 -0.0434  0.4176
 1419TIP3    H225673   5.414   5.570   2.417  1.2428  0.4815  0.5358
 1420TIP3   OH225674   0.961   3.664  11.543 -0.1461 -0.1307 -0.0352
 1420TIP3    H125675   0.935   3.583  11.499  0.9049  0.4971 -1.9142
 1420TIP3    H225676   1.046   3.686  11.504  0.6346  0.7212  2.0233
 1421TIP3   OH225677   4.975   2.657  16.018 -0.3958 -0.1211  0.4756
 1421TIP3    H125678   4.994   2.599  15.945 -2.0009 -0.2011  0.0911
 1421TIP3    H225679   4.935   2.601  16.085  1.7705 -0.2120  1.8008
 1422TIP3   OH225680   4.926   0.206  17.076  0.1001  0.5265 -0.3348
 1422TIP3    H125681   4.842   0.190  17.032 -0.2110  0.6197  0.2215
 1422TIP3    H225682   4.911   0.180  17.167  0.4546  1.2251 -0.0693
 1423TIP3   OH225683   4.541   5.473   0.899  0.4648  0.1673  0.2158
 1423TIP3    H125684   4.489   5.538   0.852  2.1802  0.4050 -1.4930
 1423TIP3    H225685   4.630   5.507   0.896  1.3136 -1.9145 -0.1596
 1424TIP3   OH225686   5.321   1.008   6.329  0.0942 -0.4100 -0.6425
 1424TIP3    H125687   5.274   1.086   6.358  0.5919 -0.4760  0.3844
 1424TIP3    H225688   5.387   1.040   6.268 -0.5555 -0.1867 -1.2373
 1425TIP3   OH225689   0.341   0.589   0.656  0.2676  0.1288  0.1446
 1425TIP3    H125690   0.312   0.677   0.631 -0.2647 -0.2029 -0.4134
 1425TIP3    H225691   0.382   0.601   0.742 -0.2203  0.8427  0.2839
 1426TIP3   OH225692   1.705   1.192  15.574  0.0196 -0.3965 -0.0491
 1426TIP3    H125693   1.676   1.209  15.663 -2.2124  1.5218 -1.0519
 1426TIP3    H225694   1.707   1.096  15.567  2.6969 -0.7044  2.6955
 1427TIP3   OH225695   2.300   5.802  16.625  0.7021 -1.1237 -0.9581
 1427TIP3    H125696   2.322   5.861  16.553  0.4846 -1.3324 -1.1956
 1427TIP3    H225697   2.326   5.716  16.595  1.5698 -1.0814 -0.3768
 1428TIP3   OH225698   2.725   0.748  15.367 -0.5206  0.0945 -0.3022
 1428TIP3    H125699   2.781   0.750  15.444 -1.0295 -1.2915  0.1381
 1428TIP3    H225700   2.672   0.828  15.373  0.0719  0.4505  0.2872
 1429TIP3   OH225701   4.134   0.690   2.156  0.0205 -0.4506 -0.6703
 1429TIP3    H125702   4.100   0.779   2.169  2.3406  0.5131 -0.7241
 1429TIP3    H225703   4.102   0.641   2.232 -0.1847  0.7872  0.0664
 1430TIP3   OH225704   5.740   1.810  13.305  0.1957 -0.0928  0.6289
 1430TIP3    H125705   5.717   1.831  13.395  0.4574 -0.5005  0.7924
 1430TIP3    H225706   5.790   1.728  13.311 -0.6885 -0.7061  0.0216
 1431TIP3   OH225707   1.458   3.662   3.758 -0.1667  0.0422  0.1572
 1431TIP3    H125708   1.420   3.737   3.714  0.0455 -0.0182 -0.1340
 1431TIP3    H225709   1.552   3.680   3.759  0.0173 -0.7226 -0.9158
 1432TIP3   OH225710   0.962   2.289  17.056  0.0656  0.2410  0.3741
 1432TIP3    H125711   0.867   2.297  17.058  0.0431  0.4842 -0.9291
 1432TIP3    H225712   0.981   2.235  16.980  0.9725  0.0660  0.6999
 1433TIP3   OH225713   1.032   2.089   6.162 -0.2093  0.0709  0.2786
 1433TIP3    H125714   1.043   2.015   6.222  1.5941 -0.4058 -0.6019
 1433TIP3    H225715   1.081   2.161   6.202 -0.4713  0.2750  0.2401
 1434TIP3   OH225716   1.534   1.504  13.405 -0.0496  0.2152  0.1428
 1434TIP3    H125717   1.471   1.515  13.334 -0.5590 -0.1035  0.5325
 1434TIP3    H225718   1.588   1.430  13.378 -0.8122 -0.4803  0.4824
 1435TIP3   OH225719   1.777   0.240  11.745  0.6727 -0.6923  0.0552
 1435TIP3    H125720   1.749   0.331  11.742 -0.1859 -0.9720 -1.4583
 1435TIP3    H225721   1.697   0.191  11.762  0.8581 -1.2436 -0.5937
 1436TIP3   OH225722   6.192   3.560   3.207  0.0107  0.1216  0.4405
 1436TIP3    H125723   6.164   3.472   3.233 -1.0502  0.8043  1.7459
 1436TIP3    H225724   6.268   3.546   3.151  0.0836 -1.6116  0.9228
 1437TIP3   OH225725   0.524   5.764  11.382 -0.2900 -0.2418 -0.5369
 1437TIP3    H125726   0.447   5.819  11.392  0.7929  0.9762  2.0211
 1437TIP3    H225727   0.502   5.683  11.427 -0.4027 -0.2781 -0.6563
 1438TIP3   OH225728   6.580   3.711   1.986  0.4802  0.4126  0.0031
 1438TIP3    H125729   6.549   3.635   1.936  2.8253  0.7655 -2.1605
 1438TIP3    H225730   6.516   3.779   1.968  0.7934  0.2636 -1.8949
 1439TIP3   OH225731   4.242   4.754   4.845 -0.0053  0.2222 -0.0146
 1439TIP3    H125732   4.212   4.666   4.822  0.3933 -0.2423  1.1480
 1439TIP3    H225733   4.187   4.779   4.919 -0.3793  1.1229 -0.5871
 1440TIP3   OH225734   1.648   1.751   3.682 -0.2717  0.1697  0.6783
 1440TIP3    H125735   1.608   1.665   3.667  0.0713 -0.2164  1.8516
 1440TIP3    H225736   1.741   1.737   3.665 -0.5615  1.0756 -2.0793
 1441TIP3   OH225737   2.749   5.775  13.003 -0.0769 -0.6306 -0.2857
 1441TIP3    H125738   2.772   5.698  13.057  2.0501  0.1646  0.0659
 1441TIP3    H225739   2.758   5.744  12.913  0.3385 -0.9182 -0.1501
 1442TIP3   OH225740   5.042   6.119  12.223 -0.1267  0.7069  0.1532
 1442TIP3    H125741   5.040   6.144  12.130 -0.0217 -1.1625 -0.3842
 1442TIP3    H225742   5.135   6.123  12.246 -0.0749  0.5295 -0.0178
 1443TIP3   OH225743   5.207   4.430  16.894 -0.0048 -0.4620  0.3185
 1443TIP3    H125744   5.219   4.491  16.821  1.5518  0.5756  1.3681
 1443TIP3    H225745   5.259   4.467  16.965 -1.7063 -1.2690  2.0822
 1444TIP3   OH225746   5.091   3.387   6.057  0.1570  0.5778 -0.2766
 1444TIP3    H125747   5.039   3.325   6.108 -0.4956 -0.3761 -2.0461
 1444TIP3    H225748   5.051   3.472   6.076  1.1047  0.5339  2.2228
 1445TIP3   OH225749   4.069   4.042  14.665  0.0460  0.4204  0.5124
 1445TIP3    H125750   4.089   4.131  14.694  0.1597 -0.4960  3.6760
 1445TIP3    H225751   3.974   4.041  14.654 -0.2860  0.4633  2.7662
 1446TIP3   OH225752   5.056   1.728  15.697 -0.3655  0.0926  0.1669
 1446TIP3    H125753   5.121   1.682  15.645  1.5787  1.6125  1.1461
 1446TIP3    H225754   4.995   1.660  15.725  0.7557 -1.3619 -0.8069
 1447TIP3   OH225755   0.392   1.227   2.596  0.4729  0.5278  0.4247
 1447TIP3    H125756   0.388   1.135   2.624  0.1865  0.7082  0.9896
 1447TIP3    H225757   0.357   1.276   2.670  1.8320  1.2079  0.6599
 1448TIP3   OH225758   5.340   0.258   1.214 -0.3488  0.2903 -0.3320
 1448TIP3    H125759   5.353   0.331   1.275 -0.4086  0.1729 -0.1795
 1448TIP3    H225760   5.350   0.298   1.127 -0.0662  0.4210 -0.2434
 1449TIP3   OH225761   1.640   3.713  15.142 -0.1549  0.0784  0.2038
 1449TIP3    H125762   1.719   3.662  15.127  0.6963  0.9036  1.6670
 1449TIP3    H225763   1.671   3.799  15.169 -1.5505  0.5746  0.3278
 1450TIP3   OH225764   4.466   4.837   2.117  0.4984 -0.3467 -0.5385
 1450TIP3    H125765   4.391   4.894   2.098 -0.7292 -0.9643  2.0095
 1450TIP3    H225766   4.496   4.866   2.203  2.8423 -0.5491 -1.2224
 1451TIP3   OH225767   5.109   3.419  15.010 -0.2168  0.1782  0.1406
 1451TIP3    H125768   5.061   3.339  15.030  0.7882  0.0562  2.2955
 1451TIP3    H225769   5.069   3.486  15.066 -0.0803  0.8450 -0.5455
 1452TIP3   OH225770   1.327   6.708   5.880  0.1527 -0.0410 -0.4665
 1452TIP3    H125771   1.401   6.766   5.898 -1.3319  1.3608  1.7629
 1452TIP3    H225772   1.255   6.768   5.858 -1.9064 -0.6708  3.5733
 1453TIP3   OH225773   5.648   4.572   0.582  0.0367 -0.0736  0.5655
 1453TIP3    H125774   5.732   4.610   0.555 -0.2015  0.1296  0.0859
 1453TIP3    H225775   5.596   4.648   0.609  1.3539 -0.4741  4.8914
 1454TIP3   OH225776   6.700   5.637  16.738 -0.4682 -0.3220  1.0814
 1454TIP3    H125777   6.707   5.623  16.643  1.1128  3.4567  0.4564
 1454TIP3    H225778   6.616   5.681  16.750  0.2140  1.0460  1.0590
 1455TIP3   OH225779   5.937   1.291  12.680 -0.1001  0.0522  0.4411
 1455TIP3    H125780   5.983   1.226  12.627 -1.7337 -0.6028 -0.2415
 1455TIP3    H225781   5.846   1.287  12.650 -0.3986  2.1752  0.8639
 1456TIP3   OH225782   1.979   4.800  14.056  0.1262 -0.0172  0.2325
 1456TIP3    H125783   1.981   4.762  13.968 -1.0511 -0.2084  0.2813
 1456TIP3    H225784   2.049   4.865  14.055 -0.3897  0.5447 -1.0966
 1457TIP3   OH225785   4.858   6.003  11.424 -0.0170 -0.3484  0.0252
 1457TIP3    H125786   4.824   5.993  11.513  2.8938  1.5005  1.4893
 1457TIP3    H225787   4.818   5.931  11.375 -2.2856 -1.0201  2.5964
 1458TIP3   OH225788   6.293   3.957   3.134 -0.5299  0.4829 -0.0508
 1458TIP3    H125789   6.353   3.993   3.199  1.2662  0.1256 -1.4206
 1458TIP3    H225790   6.255   4.034   3.092 -1.3123  0.7130  1.0241
 1459TIP3   OH225791   0.447   2.601   5.525  0.0031  0.5640 -0.2168
 1459TIP3    H125792   0.538   2.572   5.523  0.4818  1.9413  0.3299
 1459TIP3    H225793   0.433   2.630   5.615  0.3420  4.1973 -1.1683
 1460TIP3   OH225794   5.367   6.549   4.303  0.2082  0.0423  0.2590
 1460TIP3    H125795   5.336   6.548   4.212  0.4175  3.5638  0.0003
 1460TIP3    H225796   5.329   6.470   4.342 -3.2372  0.4261 -1.8737
 1461TIP3   OH225797   1.714   4.997   0.513 -0.5688 -0.2907  0.0745
 1461TIP3    H125798   1.644   4.941   0.546 -0.6247  0.4185  1.2220
 1461TIP3    H225799   1.759   4.943   0.447 -1.8702 -0.9318 -0.3360
 1462TIP3   OH225800   2.885   1.013  13.138  0.4481  0.1790  0.3029
 1462TIP3    H125801   2.932   1.089  13.170 -0.9105  1.2955 -0.2447
 1462TIP3    H225802   2.859   1.036  13.049 -0.2961 -0.7661  0.2528
 1463TIP3   OH225803   3.577   0.346  12.527 -0.2051  0.1462 -0.1897
 1463TIP3    H125804   3.657   0.299  12.502  0.6644  1.7358 -0.5455
 1463TIP3    H225805   3.606   0.436  12.540 -1.7759  0.5500  0.6968
 1464TIP3   OH225806   0.094   3.182   5.156  0.0700 -0.0217  0.7893
 1464TIP3    H125807   0.084   3.211   5.065 -1.1645  2.3059  1.5596
 1464TIP3    H225808   0.027   3.114   5.167  0.7784 -0.9098 -0.2223
 1465TIP3   OH225809   4.924   1.679  16.804  0.5405  0.5919 -0.2761
 1465TIP3    H125810   4.880   1.727  16.874 -0.3745 -0.1175 -0.3426
 1465TIP3    H225811   5.016   1.677  16.830  0.0148 -1.0145  1.7439
 1466TIP3   OH225812   3.248   6.037  12.707  0.0817 -0.0859 -0.0034
 1466TIP3    H125813   3.172   5.978  12.709 -0.5347  0.6826 -0.2266
 1466TIP3    H225814   3.319   5.983  12.673  0.0876 -1.3041  1.8525
 1467TIP3   OH225815   2.994   1.595  16.106 -0.4251 -0.3720 -0.1909
 1467TIP3    H125816   2.911   1.636  16.130  0.5264  0.9380  1.0721
 1467TIP3    H225817   3.049   1.668  16.076  0.2640 -1.2209 -1.0492
 1468TIP3   OH225818   4.554   6.665   0.365  0.4147 -0.7078 -0.2006
 1468TIP3    H125819   4.475   6.687   0.414  0.4913 -0.2805 -0.2616
 1468TIP3    H225820   4.593   6.592   0.413  1.0919  0.4382  1.0404
 1469TIP3   OH225821   6.080   5.300  10.651  0.5383 -0.0562  0.1599
 1469TIP3    H125822   6.094   5.393  10.631  0.5586 -0.1669 -0.3694
 1469TIP3    H225823   6.026   5.269  10.578  1.5231 -0.7324 -0.2950
 1470TIP3   OH225824   4.694   5.386   4.946 -0.1696  0.5223 -0.6155
 1470TIP3    H125825   4.662   5.438   5.019 -1.4022  1.3302 -1.6869
 1470TIP3    H225826   4.772   5.433   4.916 -0.1733  0.6757 -0.3874
 1471TIP3   OH225827   2.244   0.657   2.364  0.3972 -0.1789 -0.1244
 1471TIP3    H125828   2.253   0.612   2.280  0.6323 -2.5745  1.0937
 1471TIP3    H225829   2.289   0.740   2.351  0.6140 -0.5599 -2.2917
 1472TIP3   OH225830   5.999   4.732  13.569 -0.3744  0.0293  0.4440
 1472TIP3    H125831   6.001   4.650  13.618  1.9060  0.9472  2.0623
 1472TIP3    H225832   6.081   4.734  13.520 -0.1814  1.5238  0.7669
 1473TIP3   OH225833   6.251   3.525   2.150 -0.9502  0.5517  0.3557
 1473TIP3    H125834   6.303   3.523   2.231  0.4106  2.3531 -0.4134
 1473TIP3    H225835   6.282   3.449   2.101  0.5785  1.2644  0.1703
 1474TIP3   OH225836   0.898   2.863   2.823 -0.1006 -0.5241  0.2254
 1474TIP3    H125837   0.873   2.869   2.731 -0.4860 -2.2335  0.1904
 1474TIP3    H225838   0.819   2.831   2.868  0.0887  0.2567  1.1548
 1475TIP3   OH225839   0.094   3.009  13.211  0.5302  0.8001  0.1015
 1475TIP3    H125840   0.041   3.031  13.134  0.3297  0.5987  0.1792
 1475TIP3    H225841   0.039   2.949  13.261  1.5877 -1.0198 -0.8038
 1476TIP3   OH225842   0.201   1.398  11.002  0.3037 -0.1754  0.6923
 1476TIP3    H125843   0.177   1.430  11.088  0.8025 -0.7769  1.0607
 1476TIP3    H225844   0.265   1.329  11.018 -0.2022 -0.8620 -0.1052
 1477TIP3   OH225845   3.794   5.501   6.123 -0.7527  0.6468  0.0100
 1477TIP3    H125846   3.851   5.543   6.187 -0.8306  0.1440  0.4083
 1477TIP3    H225847   3.853   5.461   6.060 -0.6618  0.0897  0.4448
 1478TIP3   OH225848   6.318   0.335  12.588 -0.5121  0.1524  0.2045
 1478TIP3    H125849   6.344   0.340  12.680 -0.7200 -0.2007  0.2864
 1478TIP3    H225850   6.227   0.306  12.591 -0.3061 -0.5443 -0.1320
 1479TIP3   OH225851   5.014   4.632  16.768 -0.3226 -0.6117  0.3103
 1479TIP3    H125852   5.013   4.687  16.845 -1.5748 -0.0984 -0.0514
 1479TIP3    H225853   5.082   4.670  16.712 -0.6602  0.1086  0.3856
 1480TIP3   OH225854   1.455   2.968  10.681  0.1375 -0.3485 -0.2709
 1480TIP3    H125855   1.421   2.880  10.700  0.5256 -0.6043 -0.7375
 1480TIP3    H225856   1.516   2.955  10.608  2.6831 -0.2086  1.6849
 1481TIP3   OH225857   4.271   1.873   0.200  0.1718 -0.3237 -0.7681
 1481TIP3    H125858   4.238   1.959   0.223 -0.3210 -1.0601  1.5392
 1481TIP3    H225859   4.197   1.814   0.214  0.9927 -1.3478 -0.6019
 1482TIP3   OH225860   1.147   1.418  15.100  0.1638  0.0114  0.1252
 1482TIP3    H125861   1.202   1.458  15.033 -0.1471 -2.5018 -1.7649
 1482TIP3    H225862   1.073   1.382  15.052  0.1002 -2.2235  1.7294
 1483TIP3   OH225863   5.893   3.262   4.821  0.2026 -0.0445  0.4170
 1483TIP3    H125864   5.865   3.314   4.896  0.1812  1.4254 -0.5753
 1483TIP3    H225865   5.871   3.172   4.844  0.6190  0.3190  2.3546
 1484TIP3   OH225866   3.913   0.776   4.885 -0.5780 -0.1253 -0.1985
 1484TIP3    H125867   3.875   0.837   4.821 -0.4138  0.2838  0.0864
 1484TIP3    H225868   3.897   0.818   4.970  0.7327  0.1994 -0.0850
 1485TIP3   OH225869   2.104   1.678   4.226 -0.0685  0.4919  0.5726
 1485TIP3    H125870   2.081   1.585   4.214  0.8327  0.3795 -0.3693
 1485TIP3    H225871   2.062   1.702   4.308 -0.9182 -0.5606  0.4715
 1486TIP3   OH225872   6.335   0.467  16.313  0.3370 -0.1340  0.1166
 1486TIP3    H125873   6.379   0.393  16.354 -0.8225 -0.8903  0.0590
 1486TIP3    H225874   6.401   0.506  16.256  0.8973 -1.2871 -0.0553
 1487TIP3   OH225875   4.985   3.403  13.907  0.3809  0.3819  0.3688
 1487TIP3    H125876   4.907   3.393  13.852 -0.1785  0.3958  1.1425
 1487TIP3    H225877   4.976   3.489  13.947  0.3847  0.0542  1.0849
 1488TIP3   OH225878   2.370   6.621   3.895 -0.2341  0.0347 -0.8537
 1488TIP3    H125879   2.389   6.527   3.897 -4.9129 -1.1345  0.1898
 1488TIP3    H225880   2.334   6.636   3.807 -2.5027  0.0124  0.0180
 1489TIP3   OH225881   6.570   2.604  17.061 -0.0942 -0.4830  0.9229
 1489TIP3    H125882   6.507   2.643  17.000  2.1586 -1.2916 -2.1825
 1489TIP3    H225883   6.547   2.512  17.064  2.5743 -1.5236 -2.9063
 1490TIP3   OH225884   5.685   3.522  16.934 -0.1021 -0.1563 -0.0352
 1490TIP3    H125885   5.753   3.588  16.938 -0.3839  0.0999  0.8269
 1490TIP3    H225886   5.729   3.443  16.902  0.1408  0.5490 -1.5141
 1491TIP3   OH225887   4.021   3.061   0.838 -0.0575  0.1537  0.0964
 1491TIP3    H125888   4.062   3.084   0.921 -0.7278  0.6128  0.3057
 1491TIP3    H225889   4.052   2.972   0.821  1.2412  0.5843  0.0984
 1492TIP3   OH225890   5.584   3.191   2.089  0.1642 -0.5672  0.0445
 1492TIP3    H125891   5.520   3.253   2.054  1.5430  1.0691  0.2371
 1492TIP3    H225892   5.539   3.107   2.091 -1.5058  0.2570 -1.0737
 1493TIP3   OH225893   0.752   6.117   2.950 -0.7033  0.0935  0.2060
 1493TIP3    H125894   0.774   6.183   3.017 -0.4990  0.4748 -0.2321
 1493TIP3    H225895   0.656   6.118   2.947 -0.6964  0.5732  0.0107
 1494TIP3   OH225896   0.258   0.098  13.107 -0.6043 -0.2953  0.6008
 1494TIP3    H125897   0.194   0.143  13.163  0.3434  1.1146  0.5948
 1494TIP3    H225898   0.273   0.158  13.035  0.2769 -0.8892  0.2738
 1495TIP3   OH225899   6.087   6.556  10.380  0.7054  0.1308  0.6271
 1495TIP3    H125900   6.107   6.526  10.290  0.8270  0.7303  0.4530
 1495TIP3    H225901   6.143   6.501  10.435  0.4956 -0.3726  0.3514
 1496TIP3   OH225902   0.564   5.508   3.423 -0.5463  0.1209 -0.0445
 1496TIP3    H125903   0.600   5.420   3.432  1.7287  0.8123 -1.5494
 1496TIP3    H225904   0.539   5.533   3.512 -1.7093 -2.1809  0.3428
 1497TIP3   OH225905   0.636   2.735  14.727 -0.1161  0.4196 -0.1246
 1497TIP3    H125906   0.596   2.677  14.661 -0.8263  1.7173 -0.8783
 1497TIP3    H225907   0.589   2.714  14.808 -0.3692 -0.0472 -0.3849
 1498TIP3   OH225908   0.333   2.935  12.524  0.6171  0.2703 -0.5868
 1498TIP3    H125909   0.424   2.954  12.546  1.1730 -1.7485 -0.8808
 1498TIP3    H225910   0.320   2.975  12.438  1.7025 -0.5842 -1.1794
 1499TIP3   OH225911   2.109   4.146  15.133  0.3533  0.2086 -0.2134
 1499TIP3    H125912   2.027   4.170  15.176  0.5204 -1.4265  1.1062
 1499TIP3    H225913   2.172   4.210  15.166 -0.4091  1.7252 -1.5367
 1500TIP3   OH225914   2.060   4.511  12.663  0.2906  0.5209 -0.1589
 1500TIP3    H125915   1.970   4.492  12.636 -0.8094  0.1003  3.3393
 1500TIP3    H225916   2.109   4.515  12.581 -2.3093 -2.2842 -2.0648
 1501TIP3   OH225917   1.240   3.693   1.752  0.1219 -0.1340  0.3116
 1501TIP3    H125918   1.240   3.637   1.830  0.5914  0.6282  0.8621
 1501TIP3    H225919   1.261   3.780   1.784  0.5521  0.1536 -0.7044
 1502TIP3   OH225920   4.764   1.003  16.310 -0.1278  0.4208 -0.4786
 1502TIP3    H125921   4.758   1.041  16.222 -1.1141 -1.6730 -1.4067
 1502TIP3    H225922   4.834   1.051  16.353  0.6384  1.2787 -2.5543
 1503TIP3   OH225923   2.231   4.414   2.971 -0.1926  0.9645 -0.1050
 1503TIP3    H125924   2.307   4.431   2.916 -0.0379  0.0250 -0.2116
 1503TIP3    H225925   2.207   4.323   2.951 -0.1325  0.5949  1.3539
 1504TIP3   OH225926   1.385   5.529  12.707 -0.1308 -0.7457  0.1489
 1504TIP3    H125927   1.409   5.459  12.647 -1.7976 -0.6173 -0.7468
 1504TIP3    H225928   1.321   5.489  12.767  1.6296 -0.9224  2.0181
 1505TIP3   OH225929   1.061   4.324  14.789  0.4392 -0.1460  0.6358
 1505TIP3    H125930   0.999   4.304  14.719  1.5249  3.0298 -1.4410
 1505TIP3    H225931   1.087   4.238  14.823 -3.8258 -1.6853  0.6273
 1506TIP3   OH225932   5.946   1.604  12.328  0.3060 -0.4269 -0.3666
 1506TIP3    H125933   6.016   1.546  12.358  2.6545  2.4807  0.1269
 1506TIP3    H225934   5.883   1.604  12.400  1.4880 -0.4695  0.7024
 1507TIP3   OH225935   2.510   2.173   3.399  0.2104 -0.6234 -0.7682
 1507TIP3    H125936   2.425   2.148   3.364 -0.2536  0.2120 -0.2697
 1507TIP3    H225937   2.543   2.238   3.337 -0.0402 -0.0952 -0.3611
 1508TIP3   OH225938   6.683   0.557  12.552  0.2474 -0.1945  0.1600
 1508TIP3    H125939   6.595   0.589  12.532 -0.4738 -2.2805 -0.2300
 1508TIP3    H225940   6.705   0.598  12.636 -1.1983  0.1612  0.3850
 1509TIP3   OH225941   0.236   2.862  14.232 -0.3465 -0.1834 -0.2653
 1509TIP3    H125942   0.178   2.795  14.269  1.9251 -1.9401  0.3450
 1509TIP3    H225943   0.217   2.941  14.283 -1.7032 -0.8730  0.3563
 1510TIP3   OH225944   1.567   0.743   4.447  0.4977  0.4381 -0.3518
 1510TIP3    H125945   1.595   0.690   4.522 -0.6825  0.8171  0.3930
 1510TIP3    H225946   1.513   0.812   4.486 -0.7790  0.1976 -1.6219
 1511TIP3   OH225947   2.277   3.471  12.522 -0.3308 -0.5311 -0.4634
 1511TIP3    H125948   2.287   3.557  12.482 -2.5246  0.1021  0.1670
 1511TIP3    H225949   2.363   3.429  12.514  0.4728  1.2753 -1.7733
 1512TIP3   OH225950   1.196   3.259   5.954 -0.6471  0.2269  0.3236
 1512TIP3    H125951   1.101   3.261   5.962 -0.6505  1.3885  0.0738
 1512TIP3    H225952   1.228   3.253   6.044 -0.9586 -2.1925  0.3500
 1513TIP3   OH225953   5.104   3.903  15.265  0.0111 -0.2580  0.0702
 1513TIP3    H125954   5.139   3.928  15.180 -1.3575  1.6739  0.0260
 1513TIP3    H225955   5.114   3.981  15.320 -2.2712 -0.2905  0.6342
 1514TIP3   OH225956   2.405   6.052  13.552 -0.4268  0.1637  0.1687
 1514TIP3    H125957   2.396   6.023  13.643  0.8133 -0.7512  0.0285
 1514TIP3    H225958   2.319   6.035  13.513 -0.9603  0.5288  1.1478
 1515TIP3   OH225959   2.005   6.785   1.069 -0.1022 -0.1257 -1.1634
 1515TIP3    H125960   2.030   6.711   1.125  1.0588  0.3170 -1.0726
 1515TIP3    H225961   2.038   6.762   0.982  1.2751  0.7665 -0.9002
 1516TIP3   OH225962   0.787   2.510   2.599  0.4091 -0.2476  0.3876
 1516TIP3    H125963   0.693   2.523   2.610  0.7715  2.1252  1.3195
 1516TIP3    H225964   0.821   2.511   2.688  1.5452  1.2319 -0.0337
 1517TIP3   OH225965   3.454   0.833   3.084  0.2262 -0.3203  0.6918
 1517TIP3    H125966   3.388   0.836   3.015  1.8172 -0.5432 -0.9180
 1517TIP3    H225967   3.451   0.919   3.125  0.6904  0.5897 -1.1050
 1518TIP3   OH225968   3.261   3.079   1.568  0.1281  0.0493  0.6542
 1518TIP3    H125969   3.301   2.992   1.569  0.3376  0.1399  0.3227
 1518TIP3    H225970   3.288   3.119   1.651  1.4997  0.4536  0.0502
 1519TIP3   OH225971   5.295   1.142   2.107  0.8556 -0.2199  0.1562
 1519TIP3    H125972   5.228   1.077   2.088 -0.1915  1.0280 -0.5515
 1519TIP3    H225973   5.370   1.091   2.138 -0.5726 -1.6132  1.4728
 1520TIP3   OH225974   3.499   4.841   1.629 -0.5226 -0.6084  0.3815
 1520TIP3    H125975   3.487   4.750   1.604  1.0537 -0.8057  0.2739
 1520TIP3    H225976   3.412   4.880   1.619 -1.4555 -2.3068  1.3765
 1521TIP3   OH225977   6.205   2.589  11.933  0.0617 -0.1063 -0.2818
 1521TIP3    H125978   6.164   2.669  11.965 -1.9644 -0.4686 -1.8239
 1521TIP3    H225979   6.227   2.607  11.842 -0.6505 -1.3575 -0.7319
 1522TIP3   OH225980   6.441   5.265   4.559  0.3338  0.2595  0.8964
 1522TIP3    H125981   6.497   5.225   4.626  0.4168  1.2328  1.4319
 1522TIP3    H225982   6.471   5.227   4.477  0.0887 -1.1166  1.4184
 1523TIP3   OH225983   1.246   0.332   4.790  0.0133 -0.4263 -0.0019
 1523TIP3    H125984   1.184   0.351   4.861 -1.1869 -0.9907 -0.8612
 1523TIP3    H225985   1.191   0.297   4.720  1.1273  0.3737 -1.3232
 1524TIP3   OH225986   6.062   2.741   5.145  0.0272 -0.0078 -0.2507
 1524TIP3    H125987   6.137   2.774   5.194 -0.7558 -0.2594  1.1664
 1524TIP3    H225988   6.095   2.729   5.056  1.1873  1.5793 -0.0854
 1525TIP3   OH225989   0.388   6.471  16.072  0.6139  0.4109  0.8621
 1525TIP3    H125990   0.371   6.431  16.157  1.3990 -1.0461  0.3848
 1525TIP3    H225991   0.481   6.495  16.074  1.2049 -1.4920 -0.2220
 1526TIP3   OH225992   1.402   0.481  11.192 -0.1888 -0.1720  0.0972
 1526TIP3    H125993   1.384   0.390  11.215  2.2505 -0.5850  0.6908
 1526TIP3    H225994   1.378   0.487  11.099  2.2216 -2.3204 -0.8058
 1527TIP3   OH225995   0.321   0.154  15.436 -0.1798 -0.3689 -0.3383
 1527TIP3    H125996   0.247   0.109  15.477  0.1451 -1.6785 -1.1330
 1527TIP3    H225997   0.288   0.183  15.351 -0.1088  0.0492 -0.2240
 1528TIP3   OH225998   5.157   3.649   5.530  0.0815  0.1075 -0.0872
 1528TIP3    H125999   5.166   3.556   5.513  2.6841  0.1894  0.4222
 1528TIP3    H226000   5.214   3.665   5.606 -1.2406  1.9228  0.6026
 1529TIP3   OH226001   5.704   5.691   5.154  0.1187  0.4594 -0.0367
 1529TIP3    H126002   5.663   5.611   5.185  0.7388  0.5936  1.2047
 1529TIP3    H226003   5.767   5.663   5.088  0.2412 -0.0571  0.3015
 1530TIP3   OH226004   2.306   3.257  10.576 -0.0157  0.6709  0.3426
 1530TIP3    H126005   2.310   3.184  10.513  1.3359  0.6319  0.4428
 1530TIP3    H226006   2.213   3.276  10.584 -0.2289  0.9680 -2.0312
 1531TIP3   OH226007   1.166   1.714  14.151 -0.0119  0.1963  0.4460
 1531TIP3    H126008   1.250   1.693  14.193  1.2898  0.4914 -1.8659
 1531TIP3    H226009   1.184   1.789  14.095 -1.8238  0.2323 -0.1697
 1532TIP3   OH226010   1.351   4.354  15.866 -0.0614 -0.0313  0.3223
 1532TIP3    H126011   1.326   4.296  15.795 -0.0491  1.0003 -0.5452
 1532TIP3    H226012   1.339   4.301  15.945 -1.6837 -0.6666 -0.3061
 1533TIP3   OH226013   2.165   1.328  12.665  0.1297  0.2823  0.4315
 1533TIP3    H126014   2.138   1.301  12.577 -0.2404  0.6208  0.4394
 1533TIP3    H226015   2.141   1.421  12.670  0.7711  0.4425  0.6487
 1534TIP3   OH226016   5.641   4.439  14.463  0.0734  0.7627  0.4128
 1534TIP3    H126017   5.617   4.494  14.388 -0.9352 -2.0271 -1.4798
 1534TIP3    H226018   5.584   4.469  14.533  0.3716  2.8372 -0.1549
 1535TIP3   OH226019   4.053   2.959   5.824  0.2274  0.4360 -1.1240
 1535TIP3    H126020   4.146   2.948   5.803  0.1232 -1.2021 -0.8260
 1535TIP3    H226021   4.044   2.926   5.913 -0.2682  2.6627 -0.2839
 1536TIP3   OH226022   6.728   4.864  13.470 -0.4416 -0.2729  0.1321
 1536TIP3    H126023   6.750   4.788  13.524 -1.8833 -0.9929 -0.2371
 1536TIP3    H226024   6.637   4.882  13.490 -1.1235 -0.7157 -2.1637
 1537TIP3   OH226025   6.274   4.925   3.680 -0.2546 -0.8028 -0.0882
 1537TIP3    H126026   6.243   4.855   3.623  0.1338  0.3150 -1.7402
 1537TIP3    H226027   6.335   4.882   3.740  2.8713 -1.4213 -3.3621
 1538TIP3   OH226028   1.104   2.675   0.421  0.1801 -0.1216 -0.0853
 1538TIP3    H126029   1.159   2.636   0.489  1.5553 -0.5035 -1.3411
 1538TIP3    H226030   1.152   2.658   0.340 -1.8339 -0.4995 -1.2717
 1539TIP3   OH226031   2.049   3.986   2.266 -0.7705  0.3942  0.0807
 1539TIP3    H126032   2.102   3.947   2.196 -2.2948 -0.3919 -0.6749
 1539TIP3    H226033   1.963   4.002   2.225 -0.8366  2.6880  0.9372
 1540TIP3   OH226034   6.491   3.621   3.375  0.4268  0.1419  0.5074
 1540TIP3    H126035   6.585   3.629   3.361  0.3961  1.2279  0.8129
 1540TIP3    H226036   6.473   3.678   3.450 -0.3493 -0.7215  1.0031
 1541TIP3   OH226037   0.928   0.197   0.261  0.3499  0.0849  0.4038
 1541TIP3    H126038   0.864   0.231   0.323 -0.0744 -0.5196  0.3114
 1541TIP3    H226039   0.914   0.247   0.180 -0.2920 -0.3273  0.2566
 1542TIP3   OH226040   4.083   2.670  17.132 -0.2575 -0.0572  0.0418
 1542TIP3    H126041   4.043   2.585  17.152  0.7834 -0.3330  1.0831
 1542TIP3    H226042   4.154   2.678  17.196 -0.5863  1.7797  0.2179
 1543TIP3   OH226043   0.872   1.667   1.519  0.2921  0.0577  0.7033
 1543TIP3    H126044   0.907   1.684   1.607  0.5911  0.1263  0.5699
 1543TIP3    H226045   0.783   1.702   1.522  0.5384  0.6843  0.7610
 1544TIP3   OH226046   3.710   3.443  15.831  0.3884 -0.8430  0.1602
 1544TIP3    H126047   3.748   3.530  15.823 -1.4994  0.2232  1.8885
 1544TIP3    H226048   3.656   3.433  15.752 -0.0465 -0.0561  0.3446
 1545TIP3   OH226049   0.816   6.716   5.927  0.7404  0.3455 -0.0800
 1545TIP3    H126050   0.824   6.659   5.851 -0.8728  1.1095 -0.8812
 1545TIP3    H226051   0.725   6.706   5.955  1.2986  0.0953  1.7621
 1546TIP3   OH226052   1.144   0.056  15.697 -0.7848  0.3404 -0.3093
 1546TIP3    H126053   1.192   0.052  15.779  1.2912  0.2959 -1.4789
 1546TIP3    H226054   1.117   0.148  15.689 -0.4298  0.4803  0.0914
 1547TIP3   OH226055   1.879   6.081   2.091 -0.0820  0.2570  0.2050
 1547TIP3    H126056   1.959   6.080   2.038 -0.9286 -0.7839 -1.1375
 1547TIP3    H226057   1.808   6.082   2.026 -1.1554  0.3659  1.3555
 1548TIP3   OH226058   4.286   2.740   5.172 -0.2275 -0.0540 -0.0775
 1548TIP3    H126059   4.368   2.696   5.153 -0.0152  0.2155  0.1988
 1548TIP3    H226060   4.238   2.679   5.228  0.1203  0.1139  0.4122
 1549TIP3   OH226061   1.667   5.542  12.164  0.4985 -0.0706  0.1508
 1549TIP3    H126062   1.730   5.603  12.124  0.3231 -1.0607 -1.7205
 1549TIP3    H226063   1.581   5.582  12.147  0.4805  0.2676  0.9488
 1550TIP3   OH226064   5.218   5.432   6.055 -0.2172 -0.0355  0.6562
 1550TIP3    H126065   5.149   5.499   6.055 -0.3962 -0.1793  2.7157
 1550TIP3    H226066   5.175   5.354   6.021 -1.3557 -0.3464  2.6564
 1551TIP3   OH226067   3.519   1.681   1.025  0.4345 -0.5908 -0.3403
 1551TIP3    H126068   3.450   1.702   0.963  0.2223 -1.3413 -0.3718
 1551TIP3    H226069   3.580   1.755   1.020 -1.5272  1.2667  1.4267
 1552TIP3   OH226070   1.522   2.164   1.348 -0.3013  0.2187 -0.5043
 1552TIP3    H126071   1.457   2.186   1.414 -1.1686 -0.7292 -1.0084
 1552TIP3    H226072   1.572   2.245   1.335 -1.0913  0.8376  0.2135
 1553TIP3   OH226073   1.421   4.562   4.136  0.4936  0.2246  0.3263
 1553TIP3    H126074   1.414   4.622   4.061  0.2789  0.9658  0.9270
 1553TIP3    H226075   1.481   4.493   4.106  0.3140  0.4481 -0.5661
 1554TIP3   OH226076   2.435   3.856  17.146  0.0194  0.2139 -0.4234
 1554TIP3    H126077   2.433   3.907  17.064 -0.1649 -0.1626 -0.6540
 1554TIP3    H226078   2.450   3.921  17.214 -1.1239  0.7070 -0.6159
 1555TIP3   OH226079   3.118   4.948   4.487  0.4316 -0.4374  0.4125
 1555TIP3    H126080   3.132   4.858   4.458 -0.1449 -0.2888 -0.3282
 1555TIP3    H226081   3.194   4.995   4.454  0.0971 -0.3984 -0.3217
 1556TIP3   OH226082   0.883   3.345  11.713  0.1995  0.2526  0.2768
 1556TIP3    H126083   0.880   3.347  11.617  1.4150 -0.9891  0.1724
 1556TIP3    H226084   0.815   3.283  11.738  0.1104  0.3167  0.1931
 1557TIP3   OH226085   0.536   2.276   0.943  0.0072 -0.5930 -0.1104
 1557TIP3    H126086   0.476   2.350   0.951  2.2545  1.5312 -1.3470
 1557TIP3    H226087   0.583   2.292   0.861  0.9794 -3.1222 -0.1336
 1558TIP3   OH226088   2.919   4.962   4.241  0.1676  0.2609 -0.2504
 1558TIP3    H126089   2.930   4.968   4.146 -0.9391  1.2580 -0.3320
 1558TIP3    H226090   2.996   5.006   4.277 -0.2324  1.3723 -0.7129
 1559TIP3   OH226091   5.917   0.969   4.750 -0.9163 -0.2821 -0.6538
 1559TIP3    H126092   5.888   0.919   4.826 -0.3168  0.9326  0.4057
 1559TIP3    H226093   5.851   1.037   4.740 -0.7537 -0.1679 -0.9479
 1560TIP3   OH226094   2.304   5.877  14.286  0.1066 -0.0671  1.0262
 1560TIP3    H126095   2.264   5.948  14.336 -0.9756  0.3547 -0.3652
 1560TIP3    H226096   2.253   5.799  14.308  0.7476 -0.2463  1.8989
 1561TIP3   OH226097   3.490   6.753  16.890 -0.5015  0.9676 -0.5568
 1561TIP3    H126098   3.567   6.781  16.939 -0.2337  0.8207 -0.8884
 1561TIP3    H226099   3.525   6.707  16.813 -0.9130  1.0382 -0.7946
 1562TIP3   OH226100   4.865   3.622  12.723 -0.0131  0.0112 -0.9221
 1562TIP3    H126101   4.899   3.589  12.640  1.0122  1.0362 -0.9292
 1562TIP3    H226102   4.831   3.545  12.767  3.8663 -1.4872 -0.1543
 1563TIP3   OH226103   4.795   3.979   0.299  0.0129  0.0488  0.5745
 1563TIP3    H126104   4.883   3.944   0.287 -0.4247 -0.3314 -2.3553
 1563TIP3    H226105   4.758   3.928   0.370  1.1126 -2.0078 -0.2450
 1564TIP3   OH226106   0.619   4.223   2.038 -0.6801 -0.1033  0.2528
 1564TIP3    H126107   0.529   4.231   2.006 -0.9615 -0.7236  0.8756
 1564TIP3    H226108   0.634   4.302   2.090 -0.2240  0.9155 -1.3359
 1565TIP3   OH226109   0.490   4.272  14.916 -0.2351 -0.3829 -0.1832
 1565TIP3    H126110   0.485   4.368  14.920  0.1479 -0.3302 -0.8558
 1565TIP3    H226111   0.583   4.253  14.901 -0.0402 -0.9328  1.4987
 1566TIP3   OH226112   2.131   5.148   4.098  0.0984 -0.1945 -0.1636
 1566TIP3    H126113   2.136   5.113   4.009 -0.2226 -0.3473 -0.1223
 1566TIP3    H226114   2.156   5.075   4.155  2.4259  0.4713 -0.2172
 1567TIP3   OH226115   5.082   0.792  13.380 -0.1049 -0.5594 -0.2122
 1567TIP3    H126116   5.074   0.732  13.453  0.2074  2.4421  2.5042
 1567TIP3    H226117   5.176   0.806  13.369 -0.1204 -1.3372 -1.5711
 1568TIP3   OH226118   6.063   6.133   0.269  0.0999  0.1765 -0.3008
 1568TIP3    H126119   6.139   6.168   0.315 -0.6630  1.6658 -0.0741
 1568TIP3    H226120   6.020   6.077   0.333  1.1633 -0.9370 -0.5387
 1569TIP3   OH226121   6.621   3.210   0.447  0.0291 -0.8650 -0.1069
 1569TIP3    H126122   6.566   3.140   0.411 -2.9494  0.8826  0.7558
 1569TIP3    H226123   6.587   3.290   0.408  0.8726  0.4634  1.7748
 1570TIP3   OH226124   6.780   6.205   2.680 -0.5080 -0.1297  0.0151
 1570TIP3    H126125   6.718   6.141   2.644  0.7127 -1.0250 -0.5703
 1570TIP3    H226126   6.862   6.157   2.687  0.1482  1.0505  0.7182
 1571TIP3   OH226127   5.949   2.889  13.981 -0.4142 -0.0022  0.1322
 1571TIP3    H126128   5.934   2.977  13.948 -1.3409  0.6261  2.0623
 1571TIP3    H226129   6.041   2.886  14.005 -0.2673  0.2665 -0.4002
 1572TIP3   OH226130   3.018   0.381   5.545  0.2421 -0.4240  0.5975
 1572TIP3    H126131   2.938   0.400   5.497  1.0712 -2.1572 -1.6405
 1572TIP3    H226132   3.062   0.312   5.494  4.0734  1.6533  0.6962
 1573TIP3   OH226133   1.002   6.399   2.159 -0.4455  0.1732  0.2165
 1573TIP3    H126134   1.038   6.372   2.243  1.4043 -0.7092 -0.7773
 1573TIP3    H226135   1.079   6.429   2.109 -1.3141 -0.3322 -1.5089
 1574TIP3   OH226136   0.862   4.946   1.276 -0.4966 -0.0122 -0.0157
 1574TIP3    H126137   0.878   4.930   1.369 -1.4734 -0.0343  0.1496
 1574TIP3    H226138   0.817   5.030   1.273 -1.7618 -0.6764 -0.3440
 1575TIP3   OH226139   2.348   1.123   5.586 -0.6699  0.0402  0.1512
 1575TIP3    H126140   2.430   1.118   5.538 -0.2949  0.4798  0.7359
 1575TIP3    H226141   2.305   1.202   5.553 -0.9513 -0.2862 -0.2837
 1576TIP3   OH226142   5.201   5.805   5.831 -0.5490 -0.0741 -0.4970
 1576TIP3    H126143   5.282   5.754   5.837  0.1221  1.1058  1.0977
 1576TIP3    H226144   5.142   5.765   5.893  0.4546  1.7778  1.8285
 1577TIP3   OH226145   5.986   2.290  14.811 -0.0598  0.1801 -0.1308
 1577TIP3    H126146   5.955   2.374  14.778  0.4344  0.6775  0.6327
 1577TIP3    H226147   5.921   2.226  14.780  0.1102  0.6866 -1.5862
 1578TIP3   OH226148   3.427   5.848  12.083 -0.1423 -0.7343  1.1279
 1578TIP3    H126149   3.521   5.835  12.092 -0.2704 -1.3381  1.6572
 1578TIP3    H226150   3.398   5.780  12.023 -0.4028 -1.2387  1.8148
 1579TIP3   OH226151   3.419   4.153   0.425  0.3647 -0.4051  0.1417
 1579TIP3    H126152   3.381   4.136   0.339  1.4738  1.7796 -0.8744
 1579TIP3    H226153   3.369   4.227   0.459 -0.9607 -2.0615  2.0663
 1580TIP3   OH226154   6.511   1.007  14.020 -0.4915  0.2168 -0.3755
 1580TIP3    H126155   6.605   1.000  14.005 -0.6514 -1.2585 -0.7798
 1580TIP3    H226156   6.481   1.066  13.951  0.1907  1.1078  0.0631
 1581TIP3   OH226157   6.326   3.751  12.526 -0.5935  0.6372 -0.1931
 1581TIP3    H126158   6.295   3.663  12.545  0.5780  0.6071  1.9070
 1581TIP3    H226159   6.412   3.740  12.488 -0.0624  0.8528  0.8961
 1582TIP3   OH226160   3.242   3.677  15.278  0.2474 -0.2850  0.4292
 1582TIP3    H126161   3.186   3.700  15.353  0.7439  0.8330  0.4783
 1582TIP3    H226162   3.314   3.740  15.282  0.5475 -0.5343 -0.7035
 1583TIP3   OH226163   5.977   5.989   5.970 -0.2997  0.5353 -0.0080
 1583TIP3    H126164   5.956   6.080   5.949  0.0252  0.5950 -0.0858
 1583TIP3    H226165   6.021   5.956   5.891 -2.2113 -0.3102 -0.7856
 1584TIP3   OH226166   4.848   1.049  14.973  0.2505  0.0932  0.3835
 1584TIP3    H126167   4.845   1.141  14.997  1.0705 -0.1034  1.3263
 1584TIP3    H226168   4.903   1.046  14.895 -0.1237  0.4521  0.1089
 1585TIP3   OH226169   6.028   6.131  15.324 -0.4471 -0.4112  0.1357
 1585TIP3    H126170   5.934   6.116  15.319 -0.6103  0.8376 -2.2734
 1585TIP3    H226171   6.066   6.065  15.265  0.1597 -0.5718  0.6890
 1586TIP3   OH226172   4.534   2.741   1.449 -0.0695  0.0603 -0.2527
 1586TIP3    H126173   4.450   2.740   1.496 -0.0170 -1.9867 -0.0984
 1586TIP3    H226174   4.598   2.765   1.516 -0.4367  1.0467 -0.2320
 1587TIP3   OH226175   0.956   2.616   3.730 -0.6158 -0.3286 -0.5266
 1587TIP3    H126176   1.046   2.626   3.700 -0.2972  2.1039  0.9602
 1587TIP3    H226177   0.933   2.525   3.709  2.1802 -1.0273 -0.8795
 1588TIP3   OH226178   2.845   6.662  14.052 -0.2949 -0.1477  0.4023
 1588TIP3    H126179   2.907   6.667  14.125 -0.9794 -0.2576  1.0131
 1588TIP3    H226180   2.789   6.587  14.073 -0.9491  0.2478  0.1341
 1589TIP3   OH226181   4.023   0.837   2.590 -0.4768  0.0089  0.6752
 1589TIP3    H126182   4.005   0.745   2.575 -0.1131  0.0845 -0.3248
 1589TIP3    H226183   3.945   0.870   2.635 -0.4822 -0.8377  1.3126
 1590TIP3   OH226184   1.963   0.753  14.398  0.7818 -0.0323  0.2390
 1590TIP3    H126185   1.898   0.713  14.341  2.0008 -2.8429  0.6462
 1590TIP3    H226186   2.003   0.821  14.345 -1.4261  0.7613 -0.5098
 1591TIP3   OH226187   6.759   4.847   1.577 -0.4582 -0.4681 -0.2330
 1591TIP3    H126188   6.724   4.865   1.664 -1.6279 -1.0571 -0.5612
 1591TIP3    H226189   6.685   4.860   1.518  0.3060 -0.1194 -1.1441
 1592TIP3   OH226190   3.251   2.828  15.109  0.0740  0.2707  0.1193
 1592TIP3    H126191   3.225   2.833  15.017 -0.1204 -0.1049  0.1553
 1592TIP3    H226192   3.174   2.855  15.158  0.0006 -0.0785  0.1945
 1593TIP3   OH226193   0.429   2.331   4.070  0.0059  0.1987 -0.1104
 1593TIP3    H126194   0.356   2.269   4.081 -1.2906  1.9217  1.8168
 1593TIP3    H226195   0.461   2.315   3.982 -2.3509 -1.0229 -0.8308
 1594TIP3   OH226196   5.186   4.791  14.059 -0.3428  0.1447  0.1125
 1594TIP3    H126197   5.159   4.871  14.105  0.6588  0.0634  0.8701
 1594TIP3    H226198   5.110   4.734  14.064 -0.4135  0.3220  1.2779
 1595TIP3   OH226199   0.260   0.863   0.463 -0.3033  0.2067 -0.2387
 1595TIP3    H126200   0.312   0.933   0.422 -0.6364  1.2511  1.0523
 1595TIP3    H226201   0.276   0.786   0.408  2.0546  0.6516 -0.2941
 1596TIP3   OH226202   5.835   4.068   3.018  0.0729 -0.0059  0.9893
 1596TIP3    H126203   5.826   3.974   3.004  1.6435 -0.2348  1.2599
 1596TIP3    H226204   5.806   4.083   3.108 -3.6376  0.4064 -0.1061
 1597TIP3   OH226205   4.712   0.152  15.547 -0.0011  0.2256 -0.0543
 1597TIP3    H126206   4.700   0.219  15.614 -2.0870 -1.0775  0.9933
 1597TIP3    H226207   4.641   0.168  15.484  0.9278  0.4098 -1.0971
 1598TIP3   OH226208   3.208   4.505  10.632 -0.3397 -0.0034 -0.6018
 1598TIP3    H126209   3.301   4.485  10.625 -0.0977  1.1628 -0.8297
 1598TIP3    H226210   3.178   4.519  10.542 -1.0318 -1.5628 -0.6488
 1599TIP3   OH226211   0.403   3.793  17.155  0.0556 -0.0338  0.4460
 1599TIP3    H126212   0.477   3.779  17.095  0.0225  0.1518  0.3627
 1599TIP3    H226213   0.414   3.882  17.187 -0.4656  0.2123 -0.0312
 1600TIP3   OH226214   6.667   3.605  13.837 -0.1613  0.2231  0.0288
 1600TIP3    H126215   6.648   3.516  13.864 -0.6510 -0.1019 -1.2735
 1600TIP3    H226216   6.762   3.607  13.827 -0.0559  0.1262  0.9394
 1601TIP3   OH226217   0.479   0.962  13.146  0.8800 -0.1154  0.0940
 1601TIP3    H126218   0.457   0.954  13.239  1.6137  0.5363  0.3327
 1601TIP3    H226219   0.546   1.029  13.143 -0.0234  0.7822 -1.0540
 1602TIP3   OH226220   4.183   1.889  13.389  0.1221  0.1667  0.0704
 1602TIP3    H126221   4.174   1.794  13.385  1.5873 -0.0639  1.3130
 1602TIP3    H226222   4.263   1.908  13.341  1.3599  0.4252  2.1073
 1603TIP3   OH226223   6.374   4.847   4.671 -0.0180  0.5509  0.8940
 1603TIP3    H126224   6.311   4.906   4.631 -1.0592 -1.3794 -0.4749
 1603TIP3    H226225   6.452   4.854   4.615 -0.0709  0.7466  0.8429
 1604TIP3   OH226226   0.177   3.945  14.532  0.3112  0.3137 -0.2118
 1604TIP3    H126227   0.193   4.040  14.529  1.0485  0.1731 -2.0608
 1604TIP3    H226228   0.143   3.929  14.619  2.0894  1.9976  0.8747
 1605TIP3   OH226229   2.354   3.798   1.115  0.2595  0.3507  0.4332
 1605TIP3    H126230   2.440   3.836   1.100 -0.4477  1.4086 -1.2186
 1605TIP3    H226231   2.294   3.873   1.117 -1.3406 -0.4765 -4.0796
 1606TIP3   OH226232   0.586   3.015  12.574  0.0317 -0.3099  0.0790
 1606TIP3    H126233   0.630   2.972  12.648 -0.6777 -1.1253  0.0477
 1606TIP3    H226234   0.647   3.083  12.546 -0.0043  0.5501  1.9015
 1607TIP3   OH226235   2.010   3.159  15.793  0.2949  0.1685 -0.0423
 1607TIP3    H126236   1.995   3.076  15.839  0.5089 -0.0485 -0.3560
 1607TIP3    H226237   2.043   3.133  15.707  0.0889  0.5763 -0.2461
 1608TIP3   OH226238   4.891   0.413  13.514 -0.2460 -0.0243 -0.0768
 1608TIP3    H126239   4.831   0.378  13.447 -1.3526 -0.5212  1.1265
 1608TIP3    H226240   4.857   0.500  13.533 -0.2275 -0.0770  0.1930
 1609TIP3   OH226241   5.804   0.961   5.234  0.1411  0.2186 -0.0157
 1609TIP3    H126242   5.815   1.056   5.234  2.8877 -0.0128 -1.2535
 1609TIP3    H226243   5.865   0.930   5.300 -1.0905 -0.7260  0.7335
 1610TIP3   OH226244   6.184   4.662  15.595  0.4575  0.2788 -0.7216
 1610TIP3    H126245   6.128   4.591  15.629  0.9437  0.4416  0.4632
 1610TIP3    H226246   6.247   4.679  15.665  0.3137  1.9326 -0.9530
 1611TIP3   OH226247   3.509   5.262   1.356 -0.2194 -0.3481  0.3699
 1611TIP3    H126248   3.501   5.332   1.292  0.3956 -1.0004 -0.4530
 1611TIP3    H226249   3.557   5.193   1.310 -0.7201 -1.2692  1.1883
 1612TIP3   OH226250   3.256   2.197  15.434  0.0447 -0.4659 -0.4343
 1612TIP3    H126251   3.200   2.234  15.366 -1.3692 -1.5494  0.0986
 1612TIP3    H226252   3.212   2.116  15.460  0.2091  0.1995  2.1743
 1613TIP3   OH226253   5.438   5.335  12.339  0.2477 -0.1162 -0.1405
 1613TIP3    H126254   5.461   5.255  12.292  1.0295 -0.8135  1.3762
 1613TIP3    H226255   5.346   5.324  12.363 -0.0301  0.0553 -1.0965
 1614TIP3   OH226256   5.540   6.608   5.423  0.2498  0.1192  0.2004
 1614TIP3    H126257   5.521   6.590   5.515 -0.0750  1.3561  0.3923
 1614TIP3    H226258   5.635   6.603   5.417  0.2838  0.2002  0.6351
 1615TIP3   OH226259   1.913   6.090  14.251 -0.4436 -0.6501 -0.3050
 1615TIP3    H126260   1.985   6.058  14.199 -1.0782  1.1172 -2.4286
 1615TIP3    H226261   1.954   6.145  14.319  0.3019 -1.7037  0.1103
 1616TIP3   OH226262   3.420   5.653   5.977  0.6460  0.1517 -1.0091
 1616TIP3    H126263   3.484   5.704   5.928  1.2702 -0.6147 -1.0137
 1616TIP3    H226264   3.410   5.572   5.927  2.5151 -1.3709  0.8789
 1617TIP3   OH226265   1.807   0.618  12.827  0.3278 -0.2140  0.0364
 1617TIP3    H126266   1.883   0.674  12.807 -0.0785  0.0559 -0.7854
 1617TIP3    H226267   1.731   0.675  12.813 -0.0156  0.0200  2.4324
 1618TIP3   OH226268   1.291   2.067  10.588 -0.5019 -0.2814  0.4715
 1618TIP3    H126269   1.373   2.112  10.605 -0.3497 -0.6710  0.7927
 1618TIP3    H226270   1.305   1.978  10.622 -0.5241 -0.8044 -0.7961
 1619TIP3   OH226271   5.049   5.008  14.198 -0.2272  0.3956 -0.6327
 1619TIP3    H126272   5.031   5.072  14.129  0.8674  1.5824  0.1415
 1619TIP3    H226273   5.089   5.059  14.268 -0.7326 -0.8888  0.6456
 1620TIP3   OH226274   5.096   0.721   0.933 -0.2449  0.1824 -0.1760
 1620TIP3    H126275   5.020   0.723   0.876 -0.2743  0.1303 -0.1381
 1620TIP3    H226276   5.171   0.718   0.874 -0.2549  0.7780 -0.2205
 1621TIP3   OH226277   6.556   5.973  17.123 -0.3228  0.6982  0.1173
 1621TIP3    H126278   6.567   6.054  17.073 -1.9549  1.3417  0.6915
 1621TIP3    H226279   6.464   5.976  17.151 -0.2462 -1.0791  0.6486
 1622TIP3   OH226280   5.070   6.415   2.297 -0.1187  0.3614 -0.6625
 1622TIP3    H126281   5.114   6.403   2.213  2.4009  0.9680  0.4603
 1622TIP3    H226282   4.977   6.422   2.275  0.3432 -0.5454 -3.2581
 1623TIP3   OH226283   4.876   6.484   5.603 -0.4539 -0.3736  0.0802
 1623TIP3    H126284   4.794   6.436   5.593 -0.7163 -0.7464  3.0850
 1623TIP3    H226285   4.922   6.439   5.674  0.4737  2.2416  1.2574
 1624TIP3   OH226286   1.485   2.613  11.289 -0.0393  0.4607  0.0254
 1624TIP3    H126287   1.399   2.601  11.250 -0.9162  1.2168  1.6302
 1624TIP3    H226288   1.523   2.688  11.242 -0.7543  0.8799  0.1120
 1625TIP3   OH226289   6.028   2.606   3.837  0.4945 -0.2289  0.1396
 1625TIP3    H126290   5.991   2.684   3.795 -0.9447 -1.5568 -1.1898
 1625TIP3    H226291   6.001   2.613   3.928 -3.6719 -1.3282 -0.8031
 1626TIP3   OH226292   1.840   0.616   1.329  0.0230 -0.4462  0.6105
 1626TIP3    H126293   1.824   0.583   1.417 -0.3934  0.1659  0.7778
 1626TIP3    H226294   1.867   0.707   1.342  0.8155 -0.6075  0.1486
 1627TIP3   OH226295   4.608   2.683  11.744  0.6149  0.3443 -0.0177
 1627TIP3    H126296   4.660   2.676  11.664  0.5657 -0.5583  0.0119
 1627TIP3    H226297   4.673   2.679  11.815  0.5674 -0.1779  0.0049
 1628TIP3   OH226298   5.120   0.302  12.460 -0.1252  0.0445 -0.3802
 1628TIP3    H126299   5.098   0.215  12.493  0.2875  0.2563  0.4829
 1628TIP3    H226300   5.183   0.337  12.523  0.2479  0.6992 -1.0858
 1629TIP3   OH226301   6.583   5.135  14.681  0.0448 -0.4338 -0.6212
 1629TIP3    H126302   6.498   5.123  14.638 -0.1443 -2.1409  0.1306
 1629TIP3    H226303   6.561   5.148  14.773  0.5043  1.9649 -0.8037
 1630TIP3   OH226304   6.408   6.373  12.860 -0.0380  0.1211 -0.0306
 1630TIP3    H126305   6.323   6.417  12.865  0.8950  2.1972 -0.9637
 1630TIP3    H226306   6.470   6.445  12.845  1.6750 -1.5088 -1.1044
 1631TIP3   OH226307   5.734   4.638   4.763 -0.1859 -0.6025 -0.2804
 1631TIP3    H126308   5.705   4.635   4.854  0.6071  0.4256  0.0186
 1631TIP3    H226309   5.746   4.731   4.744 -1.3766 -0.7041 -1.7784
 1632TIP3   OH226310   0.574   3.459  11.813  0.2425 -0.0764 -0.3542
 1632TIP3    H126311   0.495   3.500  11.777  1.1910 -0.7242 -3.5525
 1632TIP3    H226312   0.553   3.366  11.816  0.3973 -0.0936  0.2257
 1633TIP3   OH226313   6.470   0.320  13.287  0.3075  0.3774  0.9213
 1633TIP3    H126314   6.539   0.373  13.249  1.1227  0.3208  2.2499
 1633TIP3    H226315   6.416   0.383  13.335  0.2700  0.2318  1.0707
 1634TIP3   OH226316   1.016   1.797  11.729  0.2442  0.1349  0.2371
 1634TIP3    H126317   1.033   1.831  11.817 -2.0223  1.8685  0.1182
 1634TIP3    H226318   1.061   1.859  11.671  0.5740 -0.2064  0.1235
 1635TIP3   OH226319   4.876   0.232   1.510 -0.0098  0.0393 -0.0167
 1635TIP3    H126320   4.925   0.150   1.517  0.2863  0.1136 -1.0284
 1635TIP3    H226321   4.908   0.272   1.429 -0.0837  1.2035  0.5147
 1636TIP3   OH226322   3.391   2.346   2.522  0.1869 -0.3705 -0.2971
 1636TIP3    H126323   3.389   2.336   2.427  1.2699  1.5301 -0.5489
 1636TIP3    H226324   3.299   2.340   2.549 -0.2437  0.1786 -1.5937
 1637TIP3   OH226325   0.960   2.378   0.349 -0.3945 -0.1390 -0.1011
 1637TIP3    H126326   1.045   2.419   0.367 -0.0523 -0.7417 -0.3107
 1637TIP3    H226327   0.982   2.295   0.305 -1.1385  0.4675 -1.7020
 1638TIP3   OH226328   5.187   0.023   4.189 -0.5310  0.6531 -0.1419
 1638TIP3    H126329   5.274   0.053   4.216 -0.3356  0.1125 -0.1516
 1638TIP3    H226330   5.179   0.051   4.098 -0.1017  0.1547 -0.3415
 1639TIP3   OH226331   6.623   4.714  12.012 -0.9705 -0.5142 -0.1151
 1639TIP3    H126332   6.626   4.735  11.918 -0.4658  1.0213  0.2077
 1639TIP3    H226333   6.632   4.799  12.055  0.4009 -1.3597  1.3513
 1640TIP3   OH226334   1.301   5.991   5.483 -0.4091 -0.0503  0.1147
 1640TIP3    H126335   1.372   5.973   5.421 -2.7352  1.8177 -3.5063
 1640TIP3    H226336   1.314   6.083   5.507 -1.1028  0.0599  0.0876
 1641TIP3   OH226337   5.163   6.748  12.107 -0.5802 -0.3265 -0.3558
 1641TIP3    H126338   5.181   6.780  12.018 -2.5078 -1.2410 -1.1514
 1641TIP3    H226339   5.068   6.732  12.107 -0.6524 -0.1947  1.9422
 1642TIP3   OH226340   5.151   4.131  16.266  0.1767  0.0356  0.4049
 1642TIP3    H126341   5.129   4.137  16.359  1.6191 -1.7374  0.9193
 1642TIP3    H226342   5.079   4.080  16.228  0.8299 -1.4752  1.0997
 1643TIP3   OH226343   0.611   4.651   3.430 -0.3813 -0.5216  0.1124
 1643TIP3    H126344   0.672   4.723   3.444 -0.5431 -0.5366  0.9894
 1643TIP3    H226345   0.658   4.573   3.462 -0.4666 -0.6921 -0.1779
 1644TIP3   OH226346   4.761   0.046   2.724  0.1451 -0.4174  0.5821
 1644TIP3    H126347   4.775   0.096   2.644  1.1361 -2.4057 -0.5629
 1644TIP3    H226348   4.666   0.034   2.729 -0.0242  0.7637  0.3966
 1645TIP3   OH226349   2.915   4.541   5.480  0.0007  0.0105  0.2155
 1645TIP3    H126350   2.907   4.578   5.392 -1.9776  1.8994  1.1052
 1645TIP3    H226351   2.826   4.514   5.503  0.0560  1.4445  2.3697
 1646TIP3   OH226352   4.788   6.570  14.975  0.3932  0.8839 -0.2870
 1646TIP3    H126353   4.875   6.556  14.938  1.9062 -1.2447  3.5881
 1646TIP3    H226354   4.796   6.547  15.067 -4.7978 -1.6537 -0.1063
 1647TIP3   OH226355   1.097   2.683  14.430 -0.2970 -0.0349  0.1268
 1647TIP3    H126356   1.143   2.632  14.364 -0.3424  0.2864 -0.1558
 1647TIP3    H226357   1.005   2.674  14.408 -0.2298  1.9246 -1.2616
 1648TIP3   OH226358   4.188   3.942  14.958 -0.4372 -0.1146  0.1815
 1648TIP3    H126359   4.166   4.035  14.947  1.0629  0.1295 -1.1310
 1648TIP3    H226360   4.216   3.913  14.871  0.7904 -1.3248  0.9372
 1649TIP3   OH226361   0.484   3.351   3.222 -0.4630  0.0743  0.8235
 1649TIP3    H126362   0.493   3.287   3.151 -1.8794  1.5031 -0.7217
 1649TIP3    H226363   0.454   3.431   3.179  0.0579  1.4434  2.8611
 1650TIP3   OH226364   6.333   1.384   5.316 -0.1559 -0.2333 -0.2432
 1650TIP3    H126365   6.300   1.358   5.402 -0.8749  0.1940 -0.3834
 1650TIP3    H226366   6.424   1.409   5.332 -1.1597  3.1904  1.1123
 1651TIP3   OH226367   1.509   5.975   5.296 -0.7818  0.0360 -0.1594
 1651TIP3    H126368   1.560   6.050   5.265  0.2251 -1.0313 -1.2010
 1651TIP3    H226369   1.466   5.941   5.218 -0.8901 -0.7146  0.2197
 1652TIP3   OH226370   2.011   1.761  14.760  0.2772  0.2632  0.2776
 1652TIP3    H126371   2.068   1.714  14.699  1.0150  2.4207 -0.8029
 1652TIP3    H226372   2.071   1.792  14.829 -0.0900  0.1909  0.6321
 1653TIP3   OH226373   3.651   0.596  15.437 -0.5615 -0.4583  0.4408
 1653TIP3    H126374   3.690   0.612  15.351  0.2869 -2.3131  0.4263
 1653TIP3    H226375   3.622   0.682  15.467 -1.3592  0.1650 -1.9131
 1654TIP3   OH226376   6.076   6.637  14.214 -0.0643  0.1014 -0.4508
 1654TIP3    H126377   6.043   6.722  14.244  0.3898  0.3766 -0.7218
 1654TIP3    H226378   5.999   6.591  14.180 -0.3156  0.3874 -0.2704
 1655TIP3   OH226379   3.498   4.745   4.800 -0.1648  0.3647  0.1625
 1655TIP3    H126380   3.556   4.770   4.728  0.7425  1.0773  1.1043
 1655TIP3    H226381   3.542   4.670   4.841 -0.4452  0.2475  0.2509
 1656TIP3   OH226382   0.895   1.060   0.017 -0.3215  0.0974  0.1383
 1656TIP3    H126383   0.914   0.980  -0.032  1.0589  0.3610  0.2147
 1656TIP3    H226384   0.980   1.091   0.048 -0.6330  2.3514 -1.0548
 1657TIP3   OH226385   4.214   3.916   6.004 -0.4273  0.0271 -0.0287
 1657TIP3    H126386   4.152   3.947   6.070 -0.6205  0.7996 -0.5634
 1657TIP3    H226387   4.165   3.851   5.955 -0.7519  0.4910 -0.3212
 1658TIP3   OH226388   1.507   2.078   0.538  0.0626  0.3696  0.9427
 1658TIP3    H126389   1.487   2.161   0.581 -1.8591  1.1026 -1.1835
 1658TIP3    H226390   1.598   2.087   0.511  0.3098  1.1755  1.9476
 1659TIP3   OH226391   5.726   0.318  16.761 -0.0160 -0.1321  0.3183
 1659TIP3    H126392   5.803   0.343  16.813  1.0325 -0.3533 -1.0691
 1659TIP3    H226393   5.738   0.224  16.746 -1.7578 -0.6809  1.9676
 1660TIP3   OH226394   3.126   2.960  13.730  0.3430 -1.4015 -0.3537
 1660TIP3    H126395   3.052   2.959  13.790 -0.3957  1.1953 -1.0958
 1660TIP3    H226396   3.203   2.962  13.786 -0.2055 -1.9276  0.4424
 1661TIP3   OH226397   5.978   0.497   0.084  0.0254 -0.1772 -0.9123
 1661TIP3    H126398   5.887   0.477   0.107  0.9310 -2.0136  1.6659
 1661TIP3    H226399   6.020   0.514   0.169  2.1999  0.0474 -1.9764
 1662TIP3   OH226400   2.462   2.013  12.288 -0.0295  0.1151 -0.2577
 1662TIP3    H126401   2.439   2.061  12.208  0.9920  2.6293  0.8251
 1662TIP3    H226402   2.558   2.008  12.286 -0.0256 -0.2744  0.5457
 1663TIP3   OH226403   5.750   5.551   4.704  0.0014  0.3357  0.1056
 1663TIP3    H126404   5.678   5.489   4.695 -0.6960  1.2670 -1.0688
 1663TIP3    H226405   5.807   5.532   4.629  0.7409 -0.0987  0.7764
 1664TIP3   OH226406   0.128   3.779   0.676  0.2918  0.3142 -0.2030
 1664TIP3    H126407   0.077   3.740   0.746  0.7841 -1.7299 -0.9048
 1664TIP3    H226408   0.079   3.760   0.596  1.1601  0.0722 -0.6911
 1665TIP3   OH226409   0.488   5.447  11.301  0.4615  0.9933 -0.3040
 1665TIP3    H126410   0.424   5.397  11.251  2.0312 -2.5015  0.8365
 1665TIP3    H226411   0.441   5.473  11.380 -0.0364 -0.0513 -0.2354
 1666TIP3   OH226412   2.472   6.755  15.755 -0.1496 -0.2473 -0.3828
 1666TIP3    H126413   2.418   6.831  15.734  2.6124  1.8229 -0.4588
 1666TIP3    H226414   2.474   6.753  15.851  1.3091  1.0449 -0.3439
 1667TIP3   OH226415   5.286   5.704   0.486  0.0576  0.6617  0.2821
 1667TIP3    H126416   5.203   5.716   0.441 -0.0748  1.3037  0.6948
 1667TIP3    H226417   5.305   5.789   0.525  0.0714  0.0711  1.6174
 1668TIP3   OH226418   2.520   6.546   4.998 -0.0119  0.3869  0.0572
 1668TIP3    H126419   2.461   6.472   4.987  0.0534  0.0619  1.7221
 1668TIP3    H226420   2.560   6.533   5.084  1.9042  1.0149 -0.6870
 1669TIP3   OH226421   3.374   3.305  13.266  0.2627  0.1554  0.5689
 1669TIP3    H126422   3.289   3.322  13.226 -0.4643 -0.6258  1.7162
 1669TIP3    H226423   3.430   3.377  13.236 -0.2639 -0.2911 -1.6741
 1670TIP3   OH226424   1.733   5.602   1.079  0.4061 -0.7762 -0.2853
 1670TIP3    H126425   1.700   5.528   1.130  0.5555  0.8377  2.3294
 1670TIP3    H226426   1.825   5.581   1.063  0.3494 -1.3301  0.0792
 1671TIP3   OH226427   4.852   0.407   0.847  0.4863 -0.0451 -0.0441
 1671TIP3    H126428   4.860   0.433   0.939 -1.0903 -0.0404  0.1205
 1671TIP3    H226429   4.794   0.331   0.849 -2.2424  1.8464 -1.2351
 1672TIP3   OH226430   0.453   2.640   5.800 -0.4421  0.1366 -0.0184
 1672TIP3    H126431   0.500   2.577   5.853 -0.4355 -0.0696 -0.2644
 1672TIP3    H226432   0.444   2.717   5.855  0.2108  0.1909  0.0169
 1673TIP3   OH226433   5.429   4.687   2.027 -0.2097 -0.0427 -0.1281
 1673TIP3    H126434   5.485   4.645   2.092 -0.5764 -0.4612 -0.0805
 1673TIP3    H226435   5.378   4.616   1.989 -1.5527  0.4589  0.6504
 1674TIP3   OH226436   3.159   2.932  16.029  0.0167 -0.1545 -0.1906
 1674TIP3    H126437   3.203   2.926  15.944 -0.3362  0.6665 -0.4373
 1674TIP3    H226438   3.223   2.972  16.087 -0.3857  1.0518 -0.5533
 1675TIP3   OH226439   0.066   2.165   2.885 -0.4204 -0.4111  0.2307
 1675TIP3    H126440   0.025   2.080   2.900 -0.9316 -0.7769 -2.6653
 1675TIP3    H226441   0.037   2.191   2.798  0.4701  2.3314  0.6533
 1676TIP3   OH226442   6.064   1.825  15.154  0.3280  0.2126 -0.3169
 1676TIP3    H126443   6.029   1.911  15.130  1.0163  0.0609 -2.0065
 1676TIP3    H226444   5.993   1.782  15.201 -1.1297  0.5772 -2.1009
 1677TIP3   OH226445   4.243   4.728  12.500  0.1945 -0.1092  0.0466
 1677TIP3    H126446   4.172   4.663  12.499  0.0076  0.0843  0.5924
 1677TIP3    H226447   4.317   4.682  12.540  0.3997 -0.3250 -0.5623
 1678TIP3   OH226448   3.838   4.466  14.113 -0.7576  0.0208 -0.2318
 1678TIP3    H126449   3.797   4.529  14.172 -1.7423 -0.0075 -0.8612
 1678TIP3    H226450   3.789   4.474  14.031  1.6126  1.3032 -1.6735
 1679TIP3   OH226451   1.704   6.600  13.882  0.0459 -0.4222 -0.2124
 1679TIP3    H126452   1.792   6.579  13.913  0.8270  0.5201 -1.6791
 1679TIP3    H226453   1.671   6.517  13.848  0.9464 -0.4987 -0.9437
 1680TIP3   OH226454   1.710   4.685   4.133  0.0815  0.1140  0.0078
 1680TIP3    H126455   1.762   4.759   4.166 -0.5655  1.0945 -1.0714
 1680TIP3    H226456   1.633   4.684   4.189  0.8128 -0.7995  1.0568
 1681TIP3   OH226457   0.429   6.199   5.111 -0.2120 -0.0212  0.0217
 1681TIP3    H126458   0.498   6.266   5.112 -1.5006  1.3685  1.7500
 1681TIP3    H226459   0.399   6.196   5.020 -0.3292  2.0166 -0.0405
 1682TIP3   OH226460   6.559   2.405   2.713  0.0349  0.6575  0.5449
 1682TIP3    H126461   6.569   2.449   2.797  1.6182 -1.2005  1.4142
 1682TIP3    H226462   6.590   2.468   2.648 -0.6139  1.8893  1.4071
 1683TIP3   OH226463   5.338   4.320  11.171  0.0134 -0.1261 -0.4090
 1683TIP3    H126464   5.258   4.343  11.219  0.4256 -0.6002  0.5346
 1683TIP3    H226465   5.374   4.405  11.145 -0.1141  0.1666  0.3106
 1684TIP3   OH226466   3.669   3.648   2.712 -0.4174  0.3165  0.2224
 1684TIP3    H126467   3.578   3.618   2.716  0.0039 -2.0402 -3.6169
 1684TIP3    H226468   3.665   3.730   2.664 -0.4946 -0.2368 -0.7423
 1685TIP3   OH226469   5.961   6.715  11.586 -0.0978 -0.3216  0.1906
 1685TIP3    H126470   5.914   6.689  11.665  0.0672  0.5942  0.6122
 1685TIP3    H226471   5.963   6.637  11.531 -0.9004 -0.7461  0.7582
 1686TIP3   OH226472   6.261   6.422   3.496 -0.0431  0.5070  0.1909
 1686TIP3    H126473   6.224   6.492   3.442 -1.5190 -0.3564  0.0353
 1686TIP3    H226474   6.187   6.389   3.546  0.9159 -0.0304  1.2935
 1687TIP3   OH226475   5.159   2.495  14.465  0.6865 -0.6988  0.0017
 1687TIP3    H126476   5.118   2.575  14.430 -0.0885 -0.7874  0.6887
 1687TIP3    H226477   5.094   2.426  14.450  0.3964 -0.7679  1.4690
 1688TIP3   OH226478   0.685   0.025   1.150  0.2705  0.0878 -0.1577
 1688TIP3    H126479   0.689  -0.059   1.106  3.5545 -1.4683  2.6350
 1688TIP3    H226480   0.626   0.011   1.225 -2.2758  1.5868 -1.7163
 1689TIP3   OH226481   4.057   1.736  15.339  0.5291 -0.6109 -0.0973
 1689TIP3    H126482   4.051   1.817  15.289 -1.5128 -0.3090  0.5463
 1689TIP3    H226483   4.025   1.759  15.427 -1.6645 -2.4023 -0.3333
 1690TIP3   OH226484   3.291   1.154  17.124 -0.3526 -0.4368  0.0953
 1690TIP3    H126485   3.211   1.205  17.134 -0.2873 -0.1198 -0.9060
 1690TIP3    H226486   3.361   1.213  17.150 -0.3305 -0.2314 -0.4268
 1691TIP3   OH226487   5.287   2.772   5.365 -0.4173 -0.4107  0.2542
 1691TIP3    H126488   5.368   2.759   5.315 -0.1928 -0.0568  0.5234
 1691TIP3    H226489   5.306   2.846   5.423 -0.3010 -1.4863  1.6460
 1692TIP3   OH226490   4.051   4.177  12.953  0.5967  0.2416 -0.0434
 1692TIP3    H126491   4.084   4.092  12.983 -2.0097 -1.1718 -0.8973
 1692TIP3    H226492   3.969   4.157  12.909  0.8336  3.0144 -2.0278
 1693TIP3   OH226493   2.905   6.130  16.141  0.1662  0.1921 -0.6377
 1693TIP3    H126494   2.969   6.195  16.173 -0.6331  0.6655  0.0543
 1693TIP3    H226495   2.820   6.166  16.167 -0.3171 -0.9886 -0.5238
 1694TIP3   OH226496   3.858   3.802   5.420  0.3415 -0.5146 -0.1238
 1694TIP3    H126497   3.857   3.840   5.508 -0.5337  0.8166 -0.6754
 1694TIP3    H226498   3.776   3.752   5.414  1.3961 -2.4314  0.5289
 1695TIP3   OH226499   6.559   3.526  12.153  0.2852 -0.0423  0.5114
 1695TIP3    H126500   6.644   3.481  12.150  0.9148  1.1367 -1.2074
 1695TIP3    H226501   6.523   3.514  12.065 -0.3737  1.1840  0.5985
 1696TIP3   OH226502   3.519   6.273  16.413 -0.3566 -0.1143  0.5042
 1696TIP3    H126503   3.579   6.198  16.419  0.9000  0.7425 -0.6205
 1696TIP3    H226504   3.574   6.345  16.380 -1.3596  1.4935  2.1550
 1697TIP3   OH226505   4.775   5.781   0.333  0.0602 -0.1206  0.2268
 1697TIP3    H126506   4.759   5.719   0.405 -3.6862  0.4158  0.0703
 1697TIP3    H226507   4.715   5.753   0.264  0.3387  2.0123 -0.9602
 1698TIP3   OH226508   4.881   4.074  16.674  0.1970 -0.2881 -0.2003
 1698TIP3    H126509   4.824   4.093  16.748  0.5122  3.6207 -0.7256
 1698TIP3    H226510   4.952   4.022  16.711 -1.3714 -1.3774  1.4337
 1699TIP3   OH226511   6.646   6.167  16.241  0.3875 -0.4856  0.4618
 1699TIP3    H126512   6.604   6.082  16.233 -0.2224 -0.1414 -0.0640
 1699TIP3    H226513   6.655   6.199  16.152 -1.6717  1.0757  0.7332
 1700TIP3   OH226514   3.984   0.408  14.575 -0.2237  0.2624 -0.0015
 1700TIP3    H126515   3.969   0.383  14.484  0.2535 -0.2993  0.0691
 1700TIP3    H226516   4.016   0.498  14.570  0.4782 -0.0014 -0.4421
 1701TIP3   OH226517   5.183   4.670   0.793 -0.1173  0.2377 -0.1358
 1701TIP3    H126518   5.221   4.610   0.857 -0.1348  0.1213 -0.2336
 1701TIP3    H226519   5.107   4.708   0.837 -0.0584  0.2501 -0.0448
 1702TIP3   OH226520   2.843   6.017  15.186  0.0373  0.4208 -0.0777
 1702TIP3    H126521   2.784   6.091  15.167 -1.4556 -1.3525 -3.0323
 1702TIP3    H226522   2.787   5.953  15.230  0.0527 -0.7017 -1.6148
 1703TIP3   OH226523   2.404   2.060   0.143  0.2138 -0.2172 -0.0143
 1703TIP3    H126524   2.435   1.971   0.128 -0.8102 -0.4465 -0.8657
 1703TIP3    H226525   2.482   2.108   0.172  1.1513 -1.0058 -1.1454
 1704TIP3   OH226526   5.073   0.869  14.852  0.4621  0.5646  0.2717
 1704TIP3    H126527   5.061   0.964  14.850  1.2850  0.7218  1.5752
 1704TIP3    H226528   5.123   0.849  14.773 -0.1204  1.1307 -0.2570
 1705TIP3   OH226529   0.359   3.620  14.627  0.3292  0.0322 -0.6330
 1705TIP3    H126530   0.396   3.708  14.621 -0.3747  0.4895  1.0311
 1705TIP3    H226531   0.354   3.589  14.537  1.1712  1.4437 -1.1911
 1706TIP3   OH226532   2.062   4.435  13.607 -0.6511 -0.2113  0.4965
 1706TIP3    H126533   2.123   4.370  13.572  0.8690  0.3637  1.9680
 1706TIP3    H226534   1.976   4.405  13.577  0.3103 -1.0836 -1.5748
 1707TIP3   OH226535   0.036   1.096   2.746 -0.4414  0.3022  0.7623
 1707TIP3    H126536   0.075   1.009   2.737  0.3905  0.7240  0.0554
 1707TIP3    H226537  -0.056   1.080   2.765 -0.7137 -0.7629 -1.1977
 1708TIP3   OH226538   1.923   5.839   3.727 -0.1642 -0.0942  0.4234
 1708TIP3    H126539   1.960   5.925   3.747  0.8814 -0.2610 -0.6935
 1708TIP3    H226540   1.934   5.788   3.808 -1.3396  0.9737  1.2895
 1709TIP3   OH226541   1.261   3.539  13.698  0.1154  0.0902  0.5536
 1709TIP3    H126542   1.227   3.482  13.767 -0.0223  2.0323  2.1827
 1709TIP3    H226543   1.339   3.579  13.737  1.6504 -0.7973 -1.4474
 1710TIP3   OH226544   3.549   2.887  14.414 -0.3198 -0.1682  0.4248
 1710TIP3    H126545   3.552   2.887  14.318  1.1554  0.5560  0.4458
 1710TIP3    H226546   3.533   2.796  14.438  2.3462 -0.9684 -0.4813
 1711TIP3   OH226547   5.462   5.938   4.855 -0.0587 -0.1528  0.1778
 1711TIP3    H126548   5.443   6.027   4.826 -0.2663 -0.4526 -0.6211
 1711TIP3    H226549   5.513   5.899   4.784  1.0813 -0.2939  1.0351
 1712TIP3   OH226550   1.950   0.014  16.601 -0.0848  0.3201 -0.2604
 1712TIP3    H126551   1.967   0.006  16.695 -0.3408  0.3625 -0.2115
 1712TIP3    H226552   2.014  -0.045  16.560 -0.9828 -0.8830  0.0195
 1713TIP3   OH226553   6.350   1.279  15.792  0.1612 -0.1264 -0.6411
 1713TIP3    H126554   6.274   1.338  15.798  1.2300  1.3074 -0.6676
 1713TIP3    H226555   6.311   1.192  15.783 -1.5215  0.7029 -2.4073
 1714TIP3   OH226556   4.038   5.737  14.537  0.2594 -0.1035  0.2725
 1714TIP3    H126557   4.049   5.643  14.529  1.2704 -0.2606  2.6288
 1714TIP3    H226558   4.076   5.759  14.622 -3.1731  1.9138  1.4953
 1715TIP3   OH226559   1.793   2.588  12.055 -0.8115 -0.0406  0.2826
 1715TIP3    H126560   1.866   2.642  12.024 -1.2139  0.3392 -0.0164
 1715TIP3    H226561   1.789   2.515  11.993 -1.3790  0.5215 -0.3604
 1716TIP3   OH226562   0.533   1.149  14.545  0.3057  0.3912 -0.4040
 1716TIP3    H126563   0.527   1.235  14.585  2.1178  0.2682  0.2317
 1716TIP3    H226564   0.442   1.118  14.540 -0.3375  2.1694 -0.3354
 1717TIP3   OH226565   4.932   1.194   1.110 -0.1617  0.2114  0.3586
 1717TIP3    H126566   4.988   1.272   1.108  0.5635 -0.3176 -0.9284
 1717TIP3    H226567   4.994   1.121   1.122 -0.4013 -0.4865 -2.1504
 1718TIP3   OH226568   4.970   2.195   5.379 -0.6421 -0.2873  0.1380
 1718TIP3    H126569   4.934   2.261   5.438 -0.9536 -0.3860  0.0604
 1718TIP3    H226570   4.945   2.224   5.291 -0.6500 -0.4292  0.0929
 1719TIP3   OH226571   5.126   1.688   2.222 -0.2101 -0.5561  0.3204
 1719TIP3    H126572   5.057   1.752   2.205 -1.9316 -2.6881 -1.2667
 1719TIP3    H226573   5.084   1.603   2.210  2.2724 -2.0098  1.1256
 1720TIP3   OH226574   3.702   0.325  10.907  0.3203  0.5483 -0.4082
 1720TIP3    H126575   3.642   0.267  10.955 -0.1490  0.2990 -1.2793
 1720TIP3    H226576   3.790   0.297  10.935  0.0942 -0.4603 -0.6499
 1721TIP3   OH226577   3.962   5.513  14.422  0.0884  0.2101 -0.2694
 1721TIP3    H126578   3.894   5.459  14.462 -1.0717  1.3764 -0.5861
 1721TIP3    H226579   3.916   5.560  14.352  1.2877  0.8411 -0.6526
 1722TIP3   OH226580   4.276   1.136  15.351  0.0840 -0.6197 -0.3277
 1722TIP3    H126581   4.357   1.186  15.359 -0.6543  0.7550 -1.0629
 1722TIP3    H226582   4.280   1.071  15.421  2.6747 -1.8368 -1.4630
 1723TIP3   OH226583   2.198   1.851  11.298  0.0223  0.4276  0.1929
 1723TIP3    H126584   2.158   1.845  11.211  0.1751 -0.0166  0.1531
 1723TIP3    H226585   2.251   1.931  11.294  2.4285 -1.0997 -1.1431
 1724TIP3   OH226586   4.963   4.598   3.426  0.1320  0.1632 -0.4335
 1724TIP3    H126587   4.977   4.662   3.495 -0.7707 -1.2291  1.1106
 1724TIP3    H226588   5.050   4.560   3.410  0.5690  1.3428 -0.9822
 1725TIP3   OH226589   4.426   5.462   3.440 -0.3563  0.6182  0.2880
 1725TIP3    H126590   4.364   5.495   3.376 -0.0456 -1.5337 -1.2266
 1725TIP3    H226591   4.511   5.495   3.410 -0.3795  0.8782  0.5003
 1726TIP3   OH226592   5.340   2.399  13.150  0.0070  0.4700 -0.2722
 1726TIP3    H126593   5.338   2.374  13.057 -3.0160 -1.8759  0.2828
 1726TIP3    H226594   5.402   2.338  13.190 -0.6611 -0.2803 -0.3605
 1727TIP3   OH226595   4.599   3.045   1.661 -0.1070  0.1738 -0.1088
 1727TIP3    H126596   4.581   3.029   1.754 -0.2220 -2.5066 -0.5216
 1727TIP3    H226597   4.516   3.027   1.618  0.4126 -0.3471 -0.9022
 1728TIP3   OH226598   4.137   3.938   1.425  0.4818 -0.1350 -0.5709
 1728TIP3    H126599   4.210   3.886   1.392  1.8982 -0.2822  2.4566
 1728TIP3    H226600   4.163   4.029   1.406  1.2420 -0.2113  0.0509
 1729TIP3   OH226601   1.618   5.169   4.528  0.0756 -0.5248 -0.5741
 1729TIP3    H126602   1.635   5.244   4.470  0.7369  0.5009  0.8752
 1729TIP3    H226603   1.525   5.150   4.517 -0.4951  1.5228  0.1219
 1730TIP3   OH226604   5.041   6.172   1.200 -0.2181 -0.7618  0.5059
 1730TIP3    H126605   5.117   6.196   1.253 -0.2151 -0.8704  0.5521
 1730TIP3    H226606   5.057   6.080   1.177  0.0767 -0.5392 -0.1953
 1731TIP3   OH226607   1.092   1.690  15.187 -0.3191  0.1762 -0.2373
 1731TIP3    H126608   1.136   1.608  15.208 -0.4811  0.2779  0.5327
 1731TIP3    H226609   1.078   1.686  15.092  1.5834  0.2565 -0.5602
 1732TIP3   OH226610   3.325   1.136   1.699 -0.0953 -0.6300 -0.1365
 1732TIP3    H126611   3.416   1.164   1.682 -0.5892  2.0502  1.0588
 1732TIP3    H226612   3.273   1.188   1.637 -0.9233 -0.8650  0.3584
 1733TIP3   OH226613   0.520   4.832   2.583  0.9117 -0.5933  0.8431
 1733TIP3    H126614   0.429   4.820   2.558  0.8602  3.2487 -1.6043
 1733TIP3    H226615   0.561   4.747   2.565 -1.1461 -0.9362 -3.5599
 1734TIP3   OH226616   2.442   2.762   3.827 -0.2725  0.4450  0.6596
 1734TIP3    H126617   2.442   2.679   3.876 -3.0455 -1.3623 -2.0122
 1734TIP3    H226618   2.392   2.822   3.882 -0.5678 -0.5302  1.5009
 1735TIP3   OH226619   5.927   2.339  13.801  0.4572 -0.3062  0.2838
 1735TIP3    H126620   5.907   2.251  13.769  0.2831  0.8373 -3.1235
 1735TIP3    H226621   5.842   2.374  13.828  0.0539 -0.2852 -0.9435
 1736TIP3   OH226622   1.561   0.841   5.729  0.4281 -0.3812 -0.1753
 1736TIP3    H126623   1.559   0.751   5.696 -0.4812 -0.7855  0.8968
 1736TIP3    H226624   1.579   0.831   5.823  1.2483  0.6202 -0.2125
 1737TIP3   OH226625   0.681   4.686   0.885  0.0706 -0.2670 -0.2144
 1737TIP3    H126626   0.621   4.761   0.887  0.8335  0.3441  0.2534
 1737TIP3    H226627   0.695   4.665   0.977  0.0862 -0.8172 -0.3391
 1738TIP3   OH226628   5.843   1.530   0.495 -0.2308  0.1054  0.1716
 1738TIP3    H126629   5.903   1.457   0.501  0.1900  0.3888 -0.4911
 1738TIP3    H226630   5.763   1.492   0.457  0.0567  0.0251 -0.3655
 1739TIP3   OH226631   5.419   1.671  11.213  0.4723 -0.5298  0.3937
 1739TIP3    H126632   5.499   1.719  11.236  0.8677 -0.8145 -0.3502
 1739TIP3    H226633   5.448   1.606  11.148 -0.1891 -1.2690  0.8172
 1740TIP3   OH226634   1.867   1.911   2.522 -0.5354  1.3819  0.2330
 1740TIP3    H126635   1.894   1.958   2.443  0.3711  3.0479  1.4541
 1740TIP3    H226636   1.831   1.829   2.490  0.7819  1.5403 -1.8452
 1741TIP3   OH226637   2.558   5.199  15.563 -0.4447 -0.4108  0.3980
 1741TIP3    H126638   2.621   5.173  15.630 -0.9127 -0.0669  0.9786
 1741TIP3    H226639   2.577   5.142  15.488  3.0623  2.0418 -0.8641
 1742TIP3   OH226640   3.808   0.847   1.340  0.4669  0.3175  0.3339
 1742TIP3    H126641   3.771   0.864   1.426  1.5719  0.1646  0.8554
 1742TIP3    H226642   3.790   0.755   1.323 -0.9892  0.6789 -0.2379
 1743TIP3   OH226643   6.327   3.035  14.848  0.3267  0.2633  0.3309
 1743TIP3    H126644   6.240   3.000  14.832  0.9397 -1.0245 -0.3737
 1743TIP3    H226645   6.320   3.128  14.827 -0.7348  0.0669 -0.2453
 1744TIP3   OH226646   6.118   0.664  12.734  0.2884 -0.0073  0.2857
 1744TIP3    H126647   6.151   0.677  12.646 -1.5183  1.5633 -0.2315
 1744TIP3    H226648   6.055   0.592  12.726  0.2090  0.0578  0.3235
 1745TIP3   OH226649   0.641   3.409  14.658  0.1004  0.7466 -0.1231
 1745TIP3    H126650   0.657   3.461  14.579  3.1326 -0.0448 -0.1594
 1745TIP3    H226651   0.646   3.473  14.730 -0.0803  1.0730 -0.3950
 1746TIP3   OH226652   3.844   2.748  15.662  0.0513 -0.3462  0.0156
 1746TIP3    H126653   3.930   2.708  15.673 -0.7518 -2.0716  0.4345
 1746TIP3    H226654   3.796   2.724  15.741 -1.6413 -1.6936 -1.3380
 1747TIP3   OH226655   5.902   1.648   2.947  0.0951  0.6263  0.6292
 1747TIP3    H126656   5.873   1.596   2.872  0.7291  1.5346 -0.2677
 1747TIP3    H226657   5.830   1.640   3.010 -0.6277  0.1665 -0.2236
 1748TIP3   OH226658   1.221   2.813   3.289  0.2637 -0.2250 -0.0646
 1748TIP3    H126659   1.276   2.758   3.344 -0.8547 -1.0007  0.3053
 1748TIP3    H226660   1.275   2.832   3.212  1.2970 -0.3578  0.6100
 1749TIP3   OH226661   3.280   3.299  12.406  0.3868  0.3786 -0.6329
 1749TIP3    H126662   3.276   3.204  12.420 -1.5125  0.4432 -0.5256
 1749TIP3    H226663   3.190   3.324  12.385  1.4373  1.6039 -4.5002
 1750TIP3   OH226664   3.609   0.182   0.224  0.0477  0.0090 -0.8699
 1750TIP3    H126665   3.610   0.251   0.290  1.4511 -0.5059 -0.3061
 1750TIP3    H226666   3.649   0.107   0.267 -0.3336 -0.7991 -1.8593
 1751TIP3   OH226667   6.156   5.490   4.145 -1.0182  0.6757  0.3237
 1751TIP3    H126668   6.064   5.465   4.133 -0.6806 -1.7746  2.0958
 1751TIP3    H226669   6.200   5.454   4.067 -1.2801  0.0861  0.4433
 1752TIP3   OH226670   3.123   1.101   5.651 -0.0578  0.1253 -0.7435
 1752TIP3    H126671   3.060   1.029   5.643 -0.3251 -0.0003  1.7701
 1752TIP3    H226672   3.085   1.172   5.599 -1.1579 -0.6604 -1.0528
 1753TIP3   OH226673   1.852   3.886   4.178  0.2069 -0.3601  0.6200
 1753TIP3    H126674   1.814   3.973   4.188 -0.3501 -0.3805 -1.0536
 1753TIP3    H226675   1.778   3.826   4.191  0.1683 -0.4937 -0.1559
 1754TIP3   OH226676   1.220   0.089   0.646 -0.8008  0.5063 -0.0499
 1754TIP3    H126677   1.222   0.085   0.551  0.4671 -1.4303 -0.0186
 1754TIP3    H226678   1.250   0.002   0.674 -2.9402  0.3589  2.1269
 1755TIP3   OH226679   5.721   1.362   5.151 -0.6314  0.2036 -0.2927
 1755TIP3    H126680   5.771   1.381   5.230 -2.7039  1.8415  0.7285
 1755TIP3    H226681   5.763   1.415   5.083 -0.6122  1.1512  0.4240
 1756TIP3   OH226682   5.464   5.252  13.544 -0.3860  1.0806 -0.4946
 1756TIP3    H126683   5.553   5.228  13.566 -0.7799  0.1781  0.1798
 1756TIP3    H226684   5.411   5.179  13.576 -1.5206  2.3066  0.5635
 1757TIP3   OH226685   5.335   5.746  13.717  0.4325  0.0338 -0.5176
 1757TIP3    H126686   5.308   5.668  13.668 -0.3138 -0.0450  0.0067
 1757TIP3    H226687   5.267   5.757  13.784  1.0083  0.6154 -0.0206
 1758TIP3   OH226688   1.889   2.758   3.032  0.1705  0.5495  0.3349
 1758TIP3    H126689   1.878   2.791   3.121  0.2160 -0.4572  0.7252
 1758TIP3    H226690   1.982   2.733   3.027 -0.0946 -0.4892  0.3988
 1759TIP3   OH226691   2.661   1.211   2.301  0.2129  0.1832 -0.0331
 1759TIP3    H126692   2.575   1.170   2.309  0.6104 -0.7815 -0.5899
 1759TIP3    H226693   2.654   1.268   2.225 -0.1710  0.7589  0.4172
 1760TIP3   OH226694   1.077   2.062  16.953  0.4825  0.3518 -0.1763
 1760TIP3    H126695   1.009   2.059  16.885 -0.0552  2.1421  0.2212
 1760TIP3    H226696   1.069   1.978  16.999  0.7081 -0.8024 -2.1389
 1761TIP3   OH226697   0.168   3.093  13.806  0.2411 -0.7304 -0.2233
 1761TIP3    H126698   0.202   3.158  13.868 -1.0842 -0.0173 -0.2237
 1761TIP3    H226699   0.116   3.034  13.859 -2.1759  0.7549 -0.7812
 1762TIP3   OH226700   2.509   3.450   0.271  0.7069  0.0949  0.3423
 1762TIP3    H126701   2.568   3.375   0.274 -0.0278 -0.5020  0.2988
 1762TIP3    H226702   2.479   3.453   0.180 -1.8332 -1.6377  1.0233
 1763TIP3   OH226703   1.871   6.356  14.612  0.2229  0.2447 -0.0710
 1763TIP3    H126704   1.867   6.439  14.564  0.5943  0.8520  0.9288
 1763TIP3    H226705   1.883   6.381  14.703  2.2384 -0.9110  0.0535
 1764TIP3   OH226706   3.701   2.180  16.327 -0.1747 -0.6631  0.2549
 1764TIP3    H126707   3.645   2.235  16.382 -0.5539  0.4857 -1.2051
 1764TIP3    H226708   3.785   2.180  16.372 -0.9179 -1.1908  1.7154
 1765TIP3   OH226709   0.870   2.186  16.792 -0.4501  0.3966 -0.7628
 1765TIP3    H126710   0.780   2.180  16.762 -0.2370 -1.4040 -1.1655
 1765TIP3    H226711   0.922   2.192  16.712 -0.2111  1.8264 -0.5234
 1766TIP3   OH226712   0.939   0.045   0.632 -0.0942  0.0023 -0.4181
 1766TIP3    H126713   1.027   0.070   0.657 -0.4259 -0.4975  1.3321
 1766TIP3    H226714   0.884   0.116   0.663 -0.3719  0.1252 -1.1561
 1767TIP3   OH226715   3.303   0.626   1.518 -0.1799 -0.7400  0.2519
 1767TIP3    H126716   3.247   0.663   1.451 -0.1687 -0.2687  0.4969
 1767TIP3    H226717   3.296   0.531   1.507  1.5298 -0.7044 -1.8459
 1768TIP3   OH226718   2.341   2.661   5.730  0.6309 -0.1692  0.4133
 1768TIP3    H126719   2.277   2.642   5.798 -0.4971  2.3134  0.1515
 1768TIP3    H226720   2.315   2.606   5.656  0.1611 -0.7986  1.0335
 1769TIP3   OH226721   2.097   6.344  13.264  0.0982 -0.0190  0.2450
 1769TIP3    H126722   2.104   6.393  13.346  0.6750  0.4272 -0.0655
 1769TIP3    H226723   2.003   6.344  13.244 -0.0747 -0.3279  1.0162
 1770TIP3   OH226724   3.281   6.320   5.762  0.0464 -0.2614  0.1082
 1770TIP3    H126725   3.190   6.321   5.731 -0.1978 -1.9192  0.6707
 1770TIP3    H226726   3.309   6.412   5.756 -1.8444  0.3919  0.4510
 1771TIP3   OH226727   5.867   4.538  15.129  0.2609  0.8020 -0.4868
 1771TIP3    H126728   5.820   4.463  15.165 -0.2875  1.2019 -0.3551
 1771TIP3    H226729   5.817   4.561  15.050  0.9673  0.4512 -1.0447
 1772TIP3   OH226730   0.485   0.499   1.379  0.0183  0.0244 -0.0940
 1772TIP3    H126731   0.553   0.511   1.446  2.7472 -0.6964 -2.5744
 1772TIP3    H226732   0.467   0.588   1.348 -0.3301  0.2389  0.7020
 1773TIP3   OH226733   5.380   2.780   1.718  0.0779  0.5180 -0.0805
 1773TIP3    H126734   5.468   2.746   1.732  0.5132  1.9195  0.8050
 1773TIP3    H226735   5.371   2.850   1.782 -2.8372 -1.5616  2.0741
 1774TIP3   OH226736   4.521   6.303   2.957  0.2928  0.3642  0.1742
 1774TIP3    H126737   4.573   6.369   2.911  0.0337  0.5148  0.1008
 1774TIP3    H226738   4.484   6.248   2.888 -0.4124  0.8253  0.1841
 1775TIP3   OH226739   6.598   0.987   2.868 -0.4080 -0.2431  0.3933
 1775TIP3    H126740   6.613   0.922   2.937 -0.1769 -0.0784  0.4965
 1775TIP3    H226741   6.506   0.975   2.845 -0.5138 -0.2343  0.7976
 1776TIP3   OH226742   6.646   1.989   1.612  0.2329 -0.4498  1.2726
 1776TIP3    H126743   6.585   2.031   1.552 -0.9042 -1.1049  1.9344
 1776TIP3    H226744   6.684   1.917   1.561 -0.7291 -1.0036  1.3035
 1777TIP3   OH226745   1.440   0.955  11.901 -0.2206  0.6720  0.3764
 1777TIP3    H126746   1.369   1.018  11.914 -0.3066  0.5657  0.4271
 1777TIP3    H226747   1.396   0.870  11.894 -0.1579  0.6885 -0.3489
 1778TIP3   OH226748   6.353   2.781   3.400 -0.2175  0.2309 -0.1627
 1778TIP3    H126749   6.410   2.749   3.330  0.6177 -1.5440  1.2504
 1778TIP3    H226750   6.404   2.851   3.442  0.4417 -0.5201  0.3242
 1779TIP3   OH226751   4.382   4.877   1.813 -0.5532 -0.5675 -0.6356
 1779TIP3    H126752   4.300   4.844   1.851  0.0186 -1.1514  0.1375
 1779TIP3    H226753   4.442   4.879   1.887 -0.7427  3.0243 -0.4059
 1780TIP3   OH226754   0.521   1.239  14.983 -0.1662  0.6276 -0.3700
 1780TIP3    H126755   0.482   1.162  15.022 -1.7026  1.5054 -0.0767
 1780TIP3    H226756   0.584   1.205  14.919  0.4575 -0.8237  0.9594
 1781TIP3   OH226757   4.620   1.683  15.566 -0.1173  0.2496  0.3680
 1781TIP3    H126758   4.581   1.612  15.617 -1.7233 -0.2901 -1.4808
 1781TIP3    H226759   4.679   1.640  15.505 -0.9995  0.4604 -0.6741
 1782TIP3   OH226760   0.074   1.630  15.337  0.6685  0.3448  0.3140
 1782TIP3    H126761   0.077   1.652  15.430  0.2198 -0.5341  0.5476
 1782TIP3    H226762  -0.011   1.587  15.325  0.9001  0.0745 -0.4189
 1783TIP3   OH226763   5.938   1.964  15.789 -0.6715 -0.0304 -0.9474
 1783TIP3    H126764   5.869   1.915  15.744 -1.6754 -1.3237  1.7908
 1783TIP3    H226765   5.894   2.043  15.821 -0.9345 -0.8142  0.7248
 1784TIP3   OH226766   0.910   6.120   5.858 -0.2453 -0.0112  0.7015
 1784TIP3    H126767   0.897   6.190   5.794 -0.8441 -0.5363  0.2327
 1784TIP3    H226768   0.990   6.144   5.904  0.8640 -0.1792 -1.0260
 1785TIP3   OH226769   3.585   6.406  15.581  0.1300 -0.0108 -0.0663
 1785TIP3    H126770   3.498   6.445  15.587  0.3289  0.6688 -1.2176
 1785TIP3    H226771   3.597   6.389  15.487  0.3544 -2.1874  0.3225
 1786TIP3   OH226772   2.268   0.380  16.035 -0.1845 -0.2331 -0.0132
 1786TIP3    H126773   2.322   0.399  15.958  0.2055  0.7038  0.4753
 1786TIP3    H226774   2.268   0.285  16.041  2.1765 -0.2694  0.4836
 1787TIP3   OH226775   4.697   4.455   1.575  0.3436 -0.1707 -0.4435
 1787TIP3    H126776   4.673   4.393   1.644  1.1522 -1.4341 -1.2468
 1787TIP3    H226777   4.771   4.504   1.611  1.4689 -1.5678 -0.7602
 1788TIP3   OH226778   2.925   3.714  13.084 -0.4647  0.4360  0.0789
 1788TIP3    H126779   3.012   3.726  13.123 -0.9013  1.2369  0.8277
 1788TIP3    H226780   2.900   3.800  13.052 -1.6748  0.5994  1.3630
 1789TIP3   OH226781   5.623   0.556  11.164  0.1671 -0.2942 -0.1153
 1789TIP3    H126782   5.549   0.539  11.106  0.1281  2.0045 -0.8209
 1789TIP3    H226783   5.630   0.476  11.218 -1.5115 -1.3729 -1.3936
 1790TIP3   OH226784   5.299   0.336  11.766 -0.3682  0.1950  0.1072
 1790TIP3    H126785   5.231   0.393  11.801  1.1622  1.3487  1.3621
 1790TIP3    H226786   5.339   0.387  11.695  0.4866  0.3976  0.7141
 1791TIP3   OH226787   5.201   3.984  17.059 -0.2472  0.2774 -0.2717
 1791TIP3    H126788   5.296   3.989  17.045 -0.0579  0.3084  0.9043
 1791TIP3    H226789   5.175   4.073  17.082 -0.6336  0.3422 -0.9330
 1792TIP3   OH226790   5.990   0.770  17.158  0.3852 -0.0550 -0.4508
 1792TIP3    H126791   6.000   0.746  17.066  0.9305 -1.1197 -0.1357
 1792TIP3    H226792   5.957   0.690  17.200 -0.3921  0.5866  0.1796
 1793TIP3   OH226793   4.015   0.222  16.024 -0.2152  0.0858  0.5283
 1793TIP3    H126794   3.946   0.166  16.059 -0.9697  0.4730 -0.2849
 1793TIP3    H226795   4.005   0.216  15.929 -1.3557  2.7259  0.3586
 1794TIP3   OH226796   4.001   2.464   6.565 -0.0118  0.4078 -0.2865
 1794TIP3    H126797   3.983   2.554   6.537  0.1435  0.2765 -0.8259
 1794TIP3    H226798   4.005   2.468   6.660  0.0586  0.9844 -0.3141
 1795TIP3   OH226799   0.751   4.273  15.817 -0.1216  0.4104 -0.4823
 1795TIP3    H126800   0.695   4.201  15.847  0.3949 -0.2311 -1.0310
 1795TIP3    H226801   0.840   4.241  15.829  0.1120  0.6183 -1.5312
 1796TIP3   OH226802   1.226   3.826  16.033 -0.0698  0.4984 -0.1552
 1796TIP3    H126803   1.305   3.772  16.041 -0.4649 -0.0441  0.1556
 1796TIP3    H226804   1.219   3.869  16.118 -0.4762  0.0295  0.0515
 1797TIP3   OH226805   6.758   5.712   1.859  0.3602 -0.7914  0.2892
 1797TIP3    H126806   6.826   5.645   1.859  0.9720 -0.1792  0.0768
 1797TIP3    H226807   6.679   5.667   1.889  0.7555 -1.6112  0.1044
 1798TIP3   OH226808   5.062   3.610   3.141 -0.3752 -0.1187  0.3433
 1798TIP3    H126809   5.141   3.642   3.185  0.2356 -1.3165  0.1619
 1798TIP3    H226810   5.022   3.550   3.204 -1.0168  0.3055  0.3446
 1799TIP3   OH226811   0.739   6.308  15.368 -0.9432 -0.2024 -0.5564
 1799TIP3    H126812   0.764   6.236  15.311 -1.4710  1.4661 -3.0724
 1799TIP3    H226813   0.816   6.365  15.369 -0.1441 -1.1731  2.2463
 1800TIP3   OH226814   2.348   3.996  11.539 -0.1297  0.9615 -0.0625
 1800TIP3    H126815   2.334   3.985  11.633 -0.4829  1.2453 -0.0817
 1800TIP3    H226816   2.442   3.979  11.527 -0.1225  0.7315  0.3104
 1801TIP3   OH226817   1.548   2.308  16.844 -0.2515 -0.3445 -0.5755
 1801TIP3    H126818   1.465   2.326  16.798  0.8843 -0.1000 -2.6256
 1801TIP3    H226819   1.596   2.391  16.840 -0.8234  0.2987  2.8112
 1802TIP3   OH226820   4.405   0.572  11.238  0.2482 -0.3223 -0.8034
 1802TIP3    H126821   4.393   0.516  11.315  3.5835 -1.1542 -0.7357
 1802TIP3    H226822   4.420   0.511  11.166 -2.9186  0.4432 -2.3115
 1803TIP3   OH226823   2.556   4.197  14.642  0.0799  0.2365  0.2236
 1803TIP3    H126824   2.580   4.108  14.667  0.0434  0.5207  1.3422
 1803TIP3    H226825   2.618   4.221  14.573  0.8697 -0.2320  0.7563
 1804TIP3   OH226826   6.047   0.351  11.165 -1.0973 -0.9797 -0.1267
 1804TIP3    H126827   6.115   0.297  11.205 -0.7380 -1.0978 -0.8728
 1804TIP3    H226828   6.078   0.365  11.075 -1.7587 -0.5162 -0.2874
 1805TIP3   OH226829   3.407   6.570   6.453 -0.2600  0.6601 -0.4917
 1805TIP3    H126830   3.448   6.648   6.416  2.0776 -0.0107  0.5570
 1805TIP3    H226831   3.420   6.502   6.387 -1.4925  0.9073 -1.0116
 1806TIP3   OH226832   2.906   2.637  11.435 -0.1430 -0.1514 -0.7561
 1806TIP3    H126833   2.864   2.558  11.400  0.4375 -0.5311 -0.6214
 1806TIP3    H226834   2.999   2.616  11.435 -0.0215  0.3663 -0.2855
 1807TIP3   OH226835   5.753   4.139   4.110  0.1620  0.7342  0.5166
 1807TIP3    H126836   5.787   4.180   4.190  1.1405  1.1177 -0.0786
 1807TIP3    H226837   5.716   4.211   4.059  0.6822  0.6902  0.0664
 1808TIP3   OH226838   0.818   4.398   4.765  0.2252  0.0104  0.3790
 1808TIP3    H126839   0.836   4.308   4.736 -0.0588  0.1355 -0.1735
 1808TIP3    H226840   0.900   4.426   4.807  2.4917  1.5231 -4.4271
 1809TIP3   OH226841   5.320   3.463   4.622  0.4679  0.2570  0.1154
 1809TIP3    H126842   5.311   3.368   4.630  1.1516  0.1968  0.2059
 1809TIP3    H226843   5.410   3.476   4.594  0.9397  0.9676  1.8563
 1810TIP3   OH226844   2.867   1.314  11.493  0.2357 -0.5143  0.3045
 1810TIP3    H126845   2.809   1.240  11.515 -1.7435  0.7354 -0.4459
 1810TIP3    H226846   2.839   1.384  11.552  1.3884 -0.0419  0.3044
 1811TIP3   OH226847   5.984   0.027  13.278 -0.5407 -0.8698 -0.0426
 1811TIP3    H126848   5.990   0.121  13.296 -0.2742 -0.8220 -0.3748
 1811TIP3    H226849   5.951  -0.011  13.360  0.6374 -0.6504  0.5547
 1812TIP3   OH226850   2.063   0.690  16.217 -0.5669 -0.4996  0.0833
 1812TIP3    H126851   1.998   0.738  16.267  0.4409  0.3426  0.6106
 1812TIP3    H226852   2.114   0.643  16.282 -0.4928 -0.9756 -0.3101
 1813TIP3   OH226853   0.344   2.436  11.040  1.0781  0.5808  0.1692
 1813TIP3    H126854   0.306   2.370  11.098  1.5465  0.3200  0.1809
 1813TIP3    H226855   0.410   2.389  10.989  0.4207  0.7211 -0.8488
 1814TIP3   OH226856   0.843   5.640   4.701 -0.0341 -0.4518  0.4251
 1814TIP3    H126857   0.818   5.565   4.647  2.3232  0.2359 -1.8511
 1814TIP3    H226858   0.794   5.713   4.664  1.9121  0.1060 -1.2801
 1815TIP3   OH226859   1.495   0.606   2.575  0.8207 -0.3261 -0.3785
 1815TIP3    H126860   1.506   0.651   2.659 -3.1476 -2.3317  1.5058
 1815TIP3    H226861   1.531   0.518   2.591 -1.5016 -1.2827 -0.0486
 1816TIP3   OH226862   5.483   5.610  12.590  0.4209  0.3060  0.6764
 1816TIP3    H126863   5.505   5.520  12.617  1.7414  1.0119  2.0949
 1816TIP3    H226864   5.388   5.608  12.577  0.4780 -1.4000  0.2253
 1817TIP3   OH226865   4.640   4.295   0.053 -0.1923 -0.0686  0.4211
 1817TIP3    H126866   4.573   4.286   0.121 -1.3096 -0.3322 -0.6816
 1817TIP3    H226867   4.657   4.205   0.024 -0.3098  0.1091 -0.2039
 1818TIP3   OH226868   2.205   5.072   4.645  0.0425 -0.9430 -0.0443
 1818TIP3    H126869   2.242   4.984   4.648  1.2768 -0.5530 -1.9294
 1818TIP3    H226870   2.266   5.126   4.695  0.2193 -0.8706 -0.3364
 1819TIP3   OH226871   2.804   0.109   3.566  0.5441 -0.2951  0.1379
 1819TIP3    H126872   2.826   0.040   3.628  3.5391  0.5271  0.1724
 1819TIP3    H226873   2.759   0.175   3.619 -1.2593 -1.6273  0.3455
 1820TIP3   OH226874   3.255   3.814   1.538  0.2315  0.0087 -0.2425
 1820TIP3    H126875   3.210   3.816   1.454 -0.2135 -1.3376 -0.0706
 1820TIP3    H226876   3.291   3.725   1.543 -0.8880 -0.4011  1.5412
 1821TIP3   OH226877   5.952   5.334  16.746  0.0554 -0.2090 -0.1663
 1821TIP3    H126878   6.011   5.331  16.671 -0.3317 -0.4377 -0.4620
 1821TIP3    H226879   6.008   5.359  16.819  0.5562 -0.6045 -0.4103
 1822TIP3   OH226880   5.273   2.294   5.322 -0.2446  0.4832 -0.2705
 1822TIP3    H126881   5.259   2.324   5.232 -0.7170  0.7101 -0.1282
 1822TIP3    H226882   5.203   2.231   5.337  1.2399 -1.3945 -0.8524
 1823TIP3   OH226883   3.917   3.217   2.395  0.3988 -0.2342 -0.7270
 1823TIP3    H126884   3.944   3.129   2.421 -0.0629 -0.0342  0.5265
 1823TIP3    H226885   3.931   3.220   2.301  1.3453 -1.3173 -0.6444
 1824TIP3   OH226886   0.884   0.266   4.784 -0.6331  0.3056  0.4251
 1824TIP3    H126887   0.949   0.329   4.817 -0.9079  0.8391 -0.0429
 1824TIP3    H226888   0.932   0.217   4.717 -0.0783 -0.7683  1.5650
 1825TIP3   OH226889   0.454   0.234   0.262 -0.7637 -0.0985 -0.2039
 1825TIP3    H126890   0.379   0.210   0.209 -1.0846 -1.0175  0.6261
 1825TIP3    H226891   0.530   0.204   0.213 -1.0719 -1.2121 -0.0289
 1826TIP3   OH226892   6.441   1.382  16.765  0.0055  0.0080  0.0880
 1826TIP3    H126893   6.453   1.349  16.854  1.0484 -0.5099 -0.2270
 1826TIP3    H226894   6.375   1.324  16.727  2.0271 -2.0433 -0.5543
 1827TIP3   OH226895   3.405   3.751  11.056 -0.2122  0.6277  0.0819
 1827TIP3    H126896   3.418   3.699  11.135 -0.2037 -1.3100 -1.1387
 1827TIP3    H226897   3.485   3.740  11.006  0.2651  2.8009  0.2716
 1828TIP3   OH226898   6.179   2.062  13.165  0.2168 -0.5863 -0.0066
 1828TIP3    H126899   6.257   2.081  13.113  0.8954  1.7832  1.6898
 1828TIP3    H226900   6.213   2.038  13.251 -0.8460  1.0435  0.9325
 1829TIP3   OH226901   0.458   2.525  13.975 -0.0086  0.0948 -0.1707
 1829TIP3    H126902   0.460   2.439  14.017  0.2868 -0.7383 -1.8143
 1829TIP3    H226903   0.402   2.513  13.898  0.5982  1.1750 -0.8081
 1830TIP3   OH226904   0.554   1.514  16.186  0.1845  0.0403  0.5418
 1830TIP3    H126905   0.469   1.472  16.202 -0.4209  1.0382 -0.0128
 1830TIP3    H226906   0.602   1.451  16.132 -0.7401  0.0772 -0.3370
 1831TIP3   OH226907   1.329   3.422   3.952 -0.8795 -0.4988  0.1842
 1831TIP3    H126908   1.368   3.352   4.005  0.4237 -0.0664 -0.1930
 1831TIP3    H226909   1.402   3.464   3.908 -1.7378  0.5303 -0.3167
 1832TIP3   OH226910   6.723   1.921   3.639  0.3350  0.0369 -0.3253
 1832TIP3    H126911   6.736   1.992   3.577 -0.8168  1.2675  0.7856
 1832TIP3    H226912   6.671   1.856   3.592  0.4374  0.4373 -0.9972
 1833TIP3   OH226913   5.300   0.033  14.717  0.2162 -0.0689 -0.0061
 1833TIP3    H126914   5.290   0.121  14.680  0.7935  0.0217  0.0504
 1833TIP3    H226915   5.368   0.042  14.783 -1.2145 -0.0894  1.5558
 1834TIP3   OH226916   0.925   0.156   1.653  0.0779 -0.6522  1.0790
 1834TIP3    H126917   0.888   0.069   1.668  1.0613 -0.8881  2.2556
 1834TIP3    H226918   0.871   0.193   1.583 -1.0580 -1.7776  1.3234
 1835TIP3   OH226919   3.617   5.743   4.225 -0.2532 -0.7889  0.3765
 1835TIP3    H126920   3.545   5.804   4.237 -2.3178 -1.9770 -4.0102
 1835TIP3    H226921   3.688   5.795   4.187  0.2120 -0.1590  2.0333
 1836TIP3   OH226922   5.778   6.024   2.563 -0.6084 -0.3860  0.5862
 1836TIP3    H126923   5.723   5.946   2.550 -0.3531 -0.6973  1.3397
 1836TIP3    H226924   5.830   6.029   2.483 -4.2118  2.0284 -1.8805
 1837TIP3   OH226925   2.717   3.089  13.391 -0.1598  0.1773 -0.1450
 1837TIP3    H126926   2.783   3.023  13.371 -0.4752 -0.4213  0.7344
 1837TIP3    H226927   2.639   3.060  13.345 -0.8218 -1.0813  1.6397
 1838TIP3   OH226928   1.234   3.624   0.127 -0.6127  0.2843 -0.1446
 1838TIP3    H126929   1.142   3.599   0.118 -0.3051 -0.9650 -0.0148
 1838TIP3    H226930   1.234   3.687   0.199 -1.2006 -0.8454  0.8831
 1839TIP3   OH226931   0.034   6.481  16.292  0.3113 -0.4039 -0.2924
 1839TIP3    H126932  -0.009   6.518  16.215 -0.0576 -0.2655 -0.0189
 1839TIP3    H226933  -0.038   6.451  16.348  0.5909 -1.1528 -0.3185
 1840TIP3   OH226934   3.409   3.272  17.046 -0.2184 -0.2332  0.1732
 1840TIP3    H126935   3.335   3.212  17.034 -0.7740 -0.0569  2.3132
 1840TIP3    H226936   3.486   3.216  17.049 -0.1370 -0.3974 -2.4217
 1841TIP3   OH226937   2.111   0.334   2.710 -0.2773  0.5226  0.8584
 1841TIP3    H126938   2.063   0.352   2.791  1.1482  2.5936  1.3525
 1841TIP3    H226939   2.097   0.413   2.657 -1.6738 -1.0392 -1.2336
 1842TIP3   OH226940   5.235   5.791   1.394 -0.0953  0.5609  1.0810
 1842TIP3    H126941   5.243   5.751   1.307 -2.7625  0.9279  0.5985
 1842TIP3    H226942   5.168   5.739   1.438  1.6057  0.0098  3.2261
 1843TIP3   OH226943   5.046   6.369   0.346 -0.7585  0.0671  0.0224
 1843TIP3    H126944   5.019   6.388   0.436  0.9750  2.0935  0.1947
 1843TIP3    H226945   4.974   6.403   0.292 -2.5972 -2.6582  0.5917
 1844TIP3   OH226946   0.875   4.269   1.472 -0.0814  0.0018 -0.1488
 1844TIP3    H126947   0.881   4.278   1.567 -2.1989  0.5990 -0.0304
 1844TIP3    H226948   0.860   4.175   1.457 -0.5575  0.0278  0.1630
 1845TIP3   OH226949   5.160   6.280   2.083  0.2290  0.3163 -0.1543
 1845TIP3    H126950   5.252   6.258   2.071 -0.0730 -1.3841  0.3537
 1845TIP3    H226951   5.131   6.308   1.996  0.9786 -0.1116 -0.5534
 1846TIP3   OH226952   5.865   6.028  10.863  0.2880 -0.6685 -0.5937
 1846TIP3    H126953   5.896   6.023  10.772 -3.0192 -0.6493 -1.8542
 1846TIP3    H226954   5.860   5.937  10.892 -0.0230 -0.7830 -0.9862
 1847TIP3   OH226955   3.416   5.800  13.848  0.0731 -0.5290  0.0483
 1847TIP3    H126956   3.444   5.711  13.827  1.6844  0.2125 -1.1256
 1847TIP3    H226957   3.320   5.796  13.842  0.0760 -2.2824  0.5315
 1848TIP3   OH226958   4.692   6.148  15.732 -0.2210 -0.1033 -0.1488
 1848TIP3    H126959   4.739   6.192  15.661  0.6414  2.0816  1.6615
 1848TIP3    H226960   4.752   6.078  15.760 -0.8562 -1.4146 -1.9461
 1849TIP3   OH226961   2.133   0.372   1.448  0.8510  0.4684  0.8068
 1849TIP3    H126962   2.040   0.353   1.438  0.8424  0.8286  0.1426
 1849TIP3    H226963   2.177   0.297   1.407  0.8237  1.4329 -1.0693
 1850TIP3   OH226964   4.160   3.596  13.529 -0.0494  0.0780  0.4143
 1850TIP3    H126965   4.143   3.538  13.604 -1.8809 -0.2677 -0.2145
 1850TIP3    H226966   4.084   3.655  13.527 -1.5018 -1.6476 -2.7047
 1851TIP3   OH226967   3.671   6.590   5.663  0.6635 -0.8847  0.3312
 1851TIP3    H126968   3.733   6.644   5.615  0.6607 -0.7167  0.5183
 1851TIP3    H226969   3.720   6.558   5.739 -0.3763  1.9128  2.3142
 1852TIP3   OH226970   2.040   1.196   1.822 -0.2298 -0.3236 -0.0578
 1852TIP3    H126971   2.051   1.156   1.736 -0.3752 -1.7939  0.5791
 1852TIP3    H226972   1.984   1.272   1.806 -2.4895 -2.0679 -0.8940
 1853TIP3   OH226973   2.235   2.939   3.977  0.5850 -0.4187  0.4464
 1853TIP3    H126974   2.232   3.030   3.946  0.6510 -0.3464  0.6538
 1853TIP3    H226975   2.205   2.943   4.068 -0.5979 -0.7711  0.0899
 1854TIP3   OH226976   5.283   5.617  15.786  0.4353 -0.3473  0.3301
 1854TIP3    H126977   5.313   5.666  15.862 -1.4756  0.2555  0.7491
 1854TIP3    H226978   5.339   5.539  15.784  3.0304  1.3846  0.1014
 1855TIP3   OH226979   5.687   2.877  10.643  0.1662  0.3870 -0.3851
 1855TIP3    H126980   5.726   2.790  10.652  0.9264  0.8505  1.1685
 1855TIP3    H226981   5.724   2.912  10.562  2.2010  0.3933  0.4829
 1856TIP3   OH226982   1.721   2.429  13.102 -0.9870 -0.0949 -0.4123
 1856TIP3    H126983   1.707   2.335  13.110  0.1981 -0.6181 -3.1909
 1856TIP3    H226984   1.809   2.443  13.136 -0.8478 -0.1554 -0.7394
 1857TIP3   OH226985   5.426   5.019  14.366  0.1235  0.0969 -0.0951
 1857TIP3    H126986   5.450   4.987  14.279 -1.0911 -0.2426 -0.3171
 1857TIP3    H226987   5.444   4.946  14.424 -0.5163 -0.2126 -0.2824
 1858TIP3   OH226988   0.670   5.247   5.037 -0.0545  0.3682 -0.4732
 1858TIP3    H126989   0.669   5.162   5.081  1.0468 -0.1413 -1.3781
 1858TIP3    H226990   0.595   5.245   4.978  1.0591 -0.8003 -1.9211
 1859TIP3   OH226991   5.046   2.769  14.419 -0.2346  0.2799  0.1562
 1859TIP3    H126992   4.985   2.798  14.351  0.9655 -0.4763 -1.2896
 1859TIP3    H226993   5.033   2.831  14.490 -1.1746  1.4214 -0.9648
 1860TIP3   OH226994   1.148   0.772   4.402 -0.3012 -0.3182 -0.4631
 1860TIP3    H126995   1.198   0.790   4.482 -2.4109  0.9416  0.6487
 1860TIP3    H226996   1.128   0.678   4.408 -0.3840 -0.2530  0.4640
 1861TIP3   OH226997   5.582   6.436   0.249  0.5209 -0.0616  0.1023
 1861TIP3    H126998   5.520   6.379   0.205  1.0282  0.0891 -0.8255
 1861TIP3    H226999   5.666   6.389   0.243  0.3337 -0.8411  2.3786
 1862TIP3   OH227000   4.934   6.360  14.232 -0.2010  0.1078 -0.3845
 1862TIP3    H127001   5.000   6.429  14.235  1.1928 -1.1414 -0.7891
 1862TIP3    H227002   4.918   6.338  14.323  0.1443  0.2474 -0.2880
 1863TIP3   OH227003   1.211   6.271   0.888  0.1224  0.5835  0.1155
 1863TIP3    H127004   1.208   6.286   0.793 -3.6172  0.4335  0.0567
 1863TIP3    H227005   1.178   6.182   0.899  2.3994 -0.1784  1.5634
 1864TIP3   OH227006   1.542   1.203  11.783  0.1806 -0.5601 -0.3614
 1864TIP3    H127007   1.485   1.127  11.794 -0.3117 -0.3574 -1.3918
 1864TIP3    H227008   1.533   1.252  11.865  0.1177 -1.3441  0.1118
 1865TIP3   OH227009   0.197   2.280   5.923 -0.0277 -0.0187  0.5908
 1865TIP3    H127010   0.212   2.358   5.871  0.7373 -1.2887 -1.2073
 1865TIP3    H227011   0.264   2.284   5.992  1.1065  0.1008 -0.4836
 1866TIP3   OH227012   2.072   5.007   3.860 -0.5575 -0.2275  0.7404
 1866TIP3    H127013   2.085   4.987   3.768  2.5430  0.8652  0.8375
 1866TIP3    H227014   2.082   4.922   3.904 -1.7890 -0.7084  0.1418
 1867TIP3   OH227015   4.057   6.335   1.266  0.1981  0.0110 -0.4266
 1867TIP3    H127016   4.038   6.405   1.329  0.3531  0.0723 -0.4475
 1867TIP3    H227017   4.023   6.369   1.183  0.2756  0.0625 -0.4372
 1868TIP3   OH227018   6.005   6.755   5.687 -0.3592 -0.0153  0.1439
 1868TIP3    H127019   5.994   6.708   5.770 -0.4290 -0.8915 -0.3521
 1868TIP3    H227020   6.100   6.760   5.675 -0.3032  1.3014  0.9234
 1869TIP3   OH227021   5.991   1.060   5.652  0.8105  0.0694 -0.1021
 1869TIP3    H127022   5.985   1.136   5.710  0.4374  0.6401 -0.8727
 1869TIP3    H227023   5.900   1.034   5.637  0.9566 -1.5897  1.4863
 1870TIP3   OH227024   2.016   2.780   0.313  0.4543 -0.3924 -0.1716
 1870TIP3    H127025   1.922   2.769   0.323  0.5150 -0.3045  0.5218
 1870TIP3    H227026   2.052   2.691   0.319  0.5409 -0.2932  1.0303
 1871TIP3   OH227027   0.134   4.463  16.619  0.4820 -0.1032 -0.4338
 1871TIP3    H127028   0.134   4.397  16.550 -1.1700  0.9675 -1.5091
 1871TIP3    H227029   0.059   4.440  16.675  0.4880  0.2967 -0.2537
 1872TIP3   OH227030   2.581   2.009  12.645 -0.0822 -0.0976 -0.1069
 1872TIP3    H127031   2.602   1.995  12.737 -0.5077 -1.8486 -0.2381
 1872TIP3    H227032   2.515   2.078  12.645 -0.2558 -0.2515  0.9360
 1873TIP3   OH227033   6.329   3.059  10.707 -0.5504  0.1917 -0.4434
 1873TIP3    H127034   6.381   3.124  10.660 -0.2647  0.5196  0.3137
 1873TIP3    H227035   6.351   2.976  10.664 -0.0884  0.4440 -0.7123
 1874TIP3   OH227036   2.260   1.820  16.135  0.2899 -0.1395 -0.4361
 1874TIP3    H127037   2.319   1.843  16.207  0.5257 -0.9786 -0.3430
 1874TIP3    H227038   2.231   1.904  16.100  0.4700  0.2847  0.3920
 1875TIP3   OH227039   2.577   6.778   5.414  0.0521  0.2082 -0.3705
 1875TIP3    H127040   2.569   6.685   5.397 -0.4733  0.2014 -0.1023
 1875TIP3    H227041   2.641   6.783   5.486 -0.7003 -0.0239  0.3339
 1876TIP3   OH227042   0.123   4.539   0.344 -0.6304  0.1690 -0.4099
 1876TIP3    H127043   0.145   4.573   0.258 -0.7954 -0.2276 -0.6113
 1876TIP3    H227044   0.044   4.488   0.331 -0.4691 -0.1726 -0.0909
 1877TIP3   OH227045   4.428   4.684   0.130  0.5517  0.2315  0.6506
 1877TIP3    H127046   4.445   4.695   0.223  0.3360 -1.6327  0.9369
 1877TIP3    H227047   4.381   4.601   0.123 -0.9003  1.1161 -0.9680
 1878TIP3   OH227048   6.418   3.732  12.920 -0.3131  0.3466  0.0953
 1878TIP3    H127049   6.473   3.810  12.911 -1.1316  1.0354  0.8152
 1878TIP3    H227050   6.343   3.750  12.864  0.8465 -1.2526 -2.0876
 1879TIP3   OH227051   4.420   4.899  10.678 -0.4037  0.2802  0.5968
 1879TIP3    H127052   4.374   4.828  10.632 -0.9683  1.1301 -0.1772
 1879TIP3    H227053   4.421   4.871  10.769 -0.6661 -0.6944  0.3210
 1880TIP3   OH227054   6.172   6.390   5.999 -0.3301 -0.0539  0.3122
 1880TIP3    H127055   6.166   6.348   6.085 -1.8813 -1.8768 -0.6242
 1880TIP3    H227056   6.185   6.483   6.020  0.6018 -0.6060  2.4862
 1881TIP3   OH227057   6.595   0.956   1.555 -0.0465 -0.7197 -0.2208
 1881TIP3    H127058   6.661   1.015   1.592  0.5414 -0.2633 -1.9069
 1881TIP3    H227059   6.531   1.014   1.513 -0.0591 -1.2383 -0.9371
 1882TIP3   OH227060   0.258   3.752   6.421  0.5539  0.6488 -0.1732
 1882TIP3    H127061   0.348   3.741   6.450  1.1660  1.0022 -1.7939
 1882TIP3    H227062   0.205   3.703   6.484  2.1930 -2.7629 -1.2329
 1883TIP3   OH227063   5.639   3.413   1.413 -0.0213 -0.0162 -0.0400
 1883TIP3    H127064   5.602   3.411   1.325 -0.1724 -0.5819  0.0366
 1883TIP3    H227065   5.729   3.443   1.400 -0.4095  1.1223 -0.2511
 1884TIP3   OH227066   2.055   3.215   2.231  0.5292  0.0018  0.1205
 1884TIP3    H127067   2.079   3.204   2.139 -1.8573  1.1162 -0.7215
 1884TIP3    H227068   1.964   3.247   2.228  0.9068  1.6242  2.7972
 1885TIP3   OH227069   5.055   0.245   3.870 -0.1502  0.3476 -0.0980
 1885TIP3    H127070   5.131   0.243   3.811  0.0024 -1.9302  0.0946
 1885TIP3    H227071   5.048   0.337   3.896  1.0948  1.0385 -1.9592
 1886TIP3   OH227072   3.648   3.977   4.167 -0.1575 -0.4355  0.3637
 1886TIP3    H127073   3.587   4.010   4.233 -1.9353 -0.9504 -0.9066
 1886TIP3    H227074   3.670   4.053   4.114 -2.2226 -0.7067 -1.0178
 1887TIP3   OH227075   2.534   5.020   4.778 -0.2782  0.0865  0.5350
 1887TIP3    H127076   2.534   5.072   4.698  1.3315  1.2750  1.2532
 1887TIP3    H227077   2.582   4.940   4.755 -2.7357 -1.1955 -0.5641
 1888TIP3   OH227078   5.122   2.000  16.668 -0.0202 -0.2447  0.0167
 1888TIP3    H127079   5.097   1.952  16.747 -0.7159  0.8774  0.4991
 1888TIP3    H227080   5.212   1.972  16.650  0.0519 -0.7026  1.0567
 1889TIP3   OH227081   1.159   5.604  15.245  0.0855  0.4063 -0.2820
 1889TIP3    H127082   1.206   5.534  15.200 -0.5131  0.3504 -0.8344
 1889TIP3    H227083   1.204   5.684  15.219  0.7013  0.2483  0.2626
 1890TIP3   OH227084   2.350   4.042   4.533 -0.2414 -0.1053  0.6510
 1890TIP3    H127085   2.323   4.134   4.535 -0.6832 -0.1193 -1.7071
 1890TIP3    H227086   2.269   3.994   4.516  0.6061 -0.2054 -5.9274
 1891TIP3   OH227087   0.470   3.845  15.190  0.2785 -0.4743  0.3564
 1891TIP3    H127088   0.480   3.889  15.274 -0.0250  2.6400 -1.1131
 1891TIP3    H227089   0.537   3.776  15.191 -0.4003 -1.2424  3.4807
 1892TIP3   OH227090   2.242   4.080  14.740 -0.5724  0.3533 -0.2416
 1892TIP3    H127091   2.248   4.013  14.672  1.7132 -1.1625  1.3112
 1892TIP3    H227092   2.261   4.162  14.695  0.4732 -0.5505 -1.5260
 1893TIP3   OH227093   3.037   1.672   0.774 -0.1257  0.9288 -0.1835
 1893TIP3    H127094   3.039   1.580   0.802  0.6253  0.9724 -0.0777
 1893TIP3    H227095   3.129   1.697   0.769 -0.3302  2.2064  1.5420
 1894TIP3   OH227096   0.700   4.336  15.183 -0.1094  0.0344  0.4499
 1894TIP3    H127097   0.636   4.348  15.253 -0.8074 -0.2309 -0.1275
 1894TIP3    H227098   0.680   4.249  15.147  2.0343 -1.0735  1.7153
 1895TIP3   OH227099   5.393   2.005   2.116 -0.0680 -0.4394  0.1559
 1895TIP3    H127100   5.308   2.040   2.089  0.5445 -0.1646 -1.5000
 1895TIP3    H227101   5.439   1.988   2.034  1.8771  0.3755  1.0412
 1896TIP3   OH227102   5.336   2.977   4.736  0.1593  0.0238 -0.3004
 1896TIP3    H127103   5.413   3.032   4.724 -0.3331  0.6488 -0.6863
 1896TIP3    H227104   5.267   3.038   4.763 -0.4352 -0.3841 -0.8665
 1897TIP3   OH227105   2.274   1.770  13.746  0.2651  0.8239  0.3898
 1897TIP3    H127106   2.309   1.817  13.822  0.4234 -1.0468  1.5442
 1897TIP3    H227107   2.187   1.741  13.773  0.9978 -1.3816  0.5995
 1898TIP3   OH227108   6.083   6.165   4.095  0.1737  0.2158 -0.0553
 1898TIP3    H127109   6.080   6.237   4.158 -0.3940 -0.8755  1.2283
 1898TIP3    H227110   6.060   6.087   4.147 -0.9060 -0.6531 -1.7355
 1899TIP3   OH227111   3.827   2.437   1.149  0.0218 -0.2357 -0.0235
 1899TIP3    H127112   3.818   2.491   1.227  1.1024  0.9390 -0.6820
 1899TIP3    H227113   3.744   2.449   1.102 -0.2463 -0.1750  0.4584
 1900TIP3   OH227114   3.543   0.226  15.214  0.2603 -0.2596  0.3970
 1900TIP3    H127115   3.627   0.205  15.255  0.4228  1.3476  0.9884
 1900TIP3    H227116   3.566   0.286  15.143 -0.4014  0.6190  0.8970
 1901TIP3   OH227117   2.875   1.991   3.653  0.2631 -0.4303 -0.0214
 1901TIP3    H127118   2.885   1.971   3.746 -0.3831 -0.5363  0.0310
 1901TIP3    H227119   2.909   2.080   3.644 -1.2545  0.2569  0.6595
 1902TIP3   OH227120   2.789   2.833   4.595  0.0812 -0.6056  0.1987
 1902TIP3    H127121   2.770   2.838   4.689 -0.9364 -1.9497  0.1012
 1902TIP3    H227122   2.823   2.744   4.582  3.5777  0.6259 -0.2014
 1903TIP3   OH227123   2.099   2.401  13.506 -0.3301 -0.0416  0.5783
 1903TIP3    H127124   2.169   2.383  13.443 -0.0839  3.9973 -0.5858
 1903TIP3    H227125   2.140   2.459  13.571 -2.4647  2.4992 -0.1767
 1904TIP3   OH227126   2.409   5.731  12.070 -1.1001 -0.3074  0.1155
 1904TIP3    H127127   2.352   5.788  12.018 -0.7460 -0.4756 -0.4680
 1904TIP3    H227128   2.464   5.687  12.006  1.3390  1.5723  0.7600
 1905TIP3   OH227129   1.500   2.692  14.922  0.3867  0.1530  0.4437
 1905TIP3    H127130   1.503   2.753  14.848  1.2762  1.0390  1.1869
 1905TIP3    H227131   1.550   2.616  14.891 -1.6092 -0.7225 -0.8756
 1906TIP3   OH227132   4.952   0.934  16.949 -0.3920 -0.5079  0.3727
 1906TIP3    H127133   4.874   0.924  16.896  1.0757 -0.5596 -1.9090
 1906TIP3    H227134   4.937   1.013  17.000 -1.7898 -0.3650 -0.2238
 1907TIP3   OH227135   6.070   6.197   0.746  0.4432  0.3605  0.2072
 1907TIP3    H127136   6.086   6.285   0.782 -1.4289  0.1845  1.5549
 1907TIP3    H227137   6.110   6.201   0.658  0.1456  2.6571  0.1019
 1908TIP3   OH227138   3.567   4.821  15.276  0.1246  0.3813 -0.1165
 1908TIP3    H127139   3.535   4.907  15.249 -1.5660 -0.5201 -1.1696
 1908TIP3    H227140   3.511   4.796  15.350  0.0250 -0.1589 -0.3641
 1909TIP3   OH227141   1.564   2.434  16.321 -0.6493  0.0763  0.2025
 1909TIP3    H127142   1.496   2.371  16.345 -1.8561  1.1293 -0.2781
 1909TIP3    H227143   1.642   2.404  16.367 -0.5513 -3.0121 -1.7402
 1910TIP3   OH227144   2.387   5.478   2.429  0.2686  0.9074  0.1065
 1910TIP3    H127145   2.363   5.390   2.460 -0.4612  0.8390 -0.6222
 1910TIP3    H227146   2.422   5.521   2.507  1.6360 -0.3661  0.2515
 1911TIP3   OH227147   2.747   4.248   0.176  0.6422 -0.5027 -0.2484
 1911TIP3    H127148   2.819   4.229   0.116  1.7962  0.0010  0.9389
 1911TIP3    H227149   2.789   4.281   0.255 -0.9534  0.8400  0.0986
 1912TIP3   OH227150   5.097   5.086   4.144 -0.0519 -0.8078  0.5281
 1912TIP3    H127151   5.095   5.008   4.199  1.9414  0.0500  1.9338
 1912TIP3    H227152   5.025   5.140   4.178 -1.5934 -2.0626 -0.6068
 1913TIP3   OH227153   6.627   5.537   3.007  0.2548  0.7291 -0.6644
 1913TIP3    H127154   6.697   5.588   2.966 -0.3328  2.5070  0.4206
 1913TIP3    H227155   6.551   5.550   2.950  0.1860  0.8324 -0.5509
 1914TIP3   OH227156   6.794   2.552   2.001  0.1345  0.0680 -0.1310
 1914TIP3    H127157   6.851   2.587   2.069 -0.4274  0.5375  0.1007
 1914TIP3    H227158   6.764   2.628   1.952  0.1134 -0.2201 -0.5772
 1915TIP3   OH227159   6.104   3.946   4.652 -0.1214 -0.4481 -0.2375
 1915TIP3    H127160   6.076   3.973   4.564 -2.3967 -1.6233  0.0620
 1915TIP3    H227161   6.050   3.871   4.673  2.6171 -2.2544  0.9232
 1916TIP3   OH227162   1.433   2.785  15.434  0.0254  0.0784  0.0304
 1916TIP3    H127163   1.497   2.776  15.362  0.8822 -0.5862  0.8385
 1916TIP3    H227164   1.478   2.839  15.499  0.3386 -1.5108  1.1976
 1917TIP3   OH227165   5.114   2.802   4.963 -0.4004  0.1659  0.3668
 1917TIP3    H127166   5.187   2.861   4.946 -0.4574  0.6869  1.7452
 1917TIP3    H227167   5.045   2.832   4.904  0.0401  0.5803  0.0508
 1918TIP3   OH227168   4.599   4.664   4.642 -0.0074  0.9372 -0.0176
 1918TIP3    H127169   4.663   4.733   4.621  3.3308 -2.3369 -1.9196
 1918TIP3    H227170   4.561   4.641   4.557 -0.5695  0.0312  0.4664
 1919TIP3   OH227171   4.481   1.855  13.293 -0.3829 -0.8497  0.1914
 1919TIP3    H127172   4.551   1.790  13.282  0.2829 -0.4068  1.6326
 1919TIP3    H227173   4.483   1.906  13.212  1.1710 -0.6557  0.3294
 1920TIP3   OH227174   1.040   6.620  14.059  0.0193  0.3580  0.3085
 1920TIP3    H127175   0.954   6.623  14.101 -0.3488  0.8674 -0.4460
 1920TIP3    H227176   1.078   6.538  14.088 -0.4436  0.4359  1.1870
 1921TIP3   OH227177   6.185   2.557  14.980  0.0398  0.2831  0.4033
 1921TIP3    H127178   6.279   2.544  14.970 -0.0175  0.9345 -1.2753
 1921TIP3    H227179   6.157   2.488  15.040  1.6189  0.2379  1.1216
 1922TIP3   OH227180   3.503   2.448  11.109 -0.0616 -0.5235 -0.0153
 1922TIP3    H127181   3.415   2.472  11.136  0.8632  2.0134  1.0461
 1922TIP3    H227182   3.513   2.487  11.022  0.7419  1.3568  0.8542
 1923TIP3   OH227183   5.662   1.059   4.717  0.4492 -0.0656 -0.2328
 1923TIP3    H127184   5.642   1.093   4.804 -0.7046 -0.5737 -0.2830
 1923TIP3    H227185   5.577   1.054   4.672  0.6029 -2.4871 -0.4112
 1924TIP3   OH227186   5.662   0.282   2.342  0.0563  0.9959  0.0663
 1924TIP3    H127187   5.606   0.347   2.383 -1.0982 -0.3431  0.6960
 1924TIP3    H227188   5.694   0.228   2.415  0.3205  0.3433 -0.5155
 1925TIP3   OH227189   1.857   0.117  17.027  0.2440  0.3871  0.7385
 1925TIP3    H127190   1.792   0.058  16.989  0.3787  0.8648 -0.2938
 1925TIP3    H227191   1.940   0.087  16.990  0.4613  0.4694  1.1642
 1926TIP3   OH227192   6.430   5.935  13.548  0.0511 -0.1806  0.1407
 1926TIP3    H127193   6.396   6.022  13.568  0.3938 -0.1596  0.6219
 1926TIP3    H227194   6.423   5.929  13.452  1.6896  1.0768 -0.1037
 1927TIP3   OH227195   2.386   2.183  11.443  0.0688 -0.0891 -0.1028
 1927TIP3    H127196   2.430   2.240  11.506 -0.8899  1.1392 -0.5246
 1927TIP3    H227197   2.436   2.193  11.362  2.1903 -2.7524  0.6976
 1928TIP3   OH227198   2.493   2.306   4.471 -0.1040 -0.0328  0.0024
 1928TIP3    H127199   2.547   2.308   4.392 -0.0973  0.4849  0.0197
 1928TIP3    H227200   2.556   2.317   4.543 -0.3044  1.3436 -0.0143
 1929TIP3   OH227201   0.675   5.872  12.797 -0.4692  0.8327  0.1795
 1929TIP3    H127202   0.767   5.894  12.786 -0.0878 -0.1352  1.2121
 1929TIP3    H227203   0.650   5.826  12.717 -0.6771  2.9240 -1.0425
 1930TIP3   OH227204   2.853   4.733  10.583  0.2861  0.3648  0.1538
 1930TIP3    H127205   2.876   4.731  10.490  0.2066  1.9219  0.0794
 1930TIP3    H227206   2.893   4.655  10.619 -0.8231 -1.0341 -1.4433
 1931TIP3   OH227207   6.333   1.632  15.990  0.2274 -0.1350 -0.0645
 1931TIP3    H127208   6.258   1.581  15.961 -0.6298  0.8854  0.3050
 1931TIP3    H227209   6.305   1.670  16.074  1.1863  0.1880  0.1183
 1932TIP3   OH227210   0.801   2.912  10.964 -0.2872  0.6869  0.5089
 1932TIP3    H127211   0.757   2.996  10.957  0.2780  0.9670  0.3178
 1932TIP3    H227212   0.761   2.870  11.041 -1.2445  0.7203  0.0438
 1933TIP3   OH227213   2.698   4.884  12.005 -0.6876  0.3747 -0.0878
 1933TIP3    H127214   2.785   4.848  12.023 -0.5684 -0.1581 -1.5774
 1933TIP3    H227215   2.667   4.916  12.090  1.4568  1.6857  0.2580
 1934TIP3   OH227216   5.550   2.758  14.366 -0.2936 -0.1351  0.2329
 1934TIP3    H127217   5.593   2.808  14.297 -0.0101 -1.2472 -0.4158
 1934TIP3    H227218   5.597   2.674  14.369 -2.0917 -1.2112 -0.1845
 1935TIP3   OH227219   3.782   4.013  16.183 -0.1064  0.3323 -0.1666
 1935TIP3    H127220   3.813   3.997  16.272 -2.4114  0.0760  0.6729
 1935TIP3    H227221   3.857   3.993  16.127  0.9666 -0.9862  1.6320
 1936TIP3   OH227222   4.811   0.231  12.600 -0.0025  0.1629  0.3172
 1936TIP3    H127223   4.791   0.196  12.686  1.6515 -0.5361  0.4578
 1936TIP3    H227224   4.866   0.307  12.617  2.0578 -1.1530 -0.1023
 1937TIP3   OH227225   6.198   5.485  14.268  0.3453  0.3075 -0.3697
 1937TIP3    H127226   6.260   5.556  14.249  0.1772  1.2358  2.1086
 1937TIP3    H227227   6.253   5.414  14.301  0.3284  0.1363 -0.7142
 1938TIP3   OH227228   5.693   4.095  15.250  0.3171 -0.2489  0.1743
 1938TIP3    H127229   5.605   4.057  15.250  1.0188 -1.9723 -0.3175
 1938TIP3    H227230   5.731   4.070  15.334  0.0687  1.2273  0.7531
 1939TIP3   OH227231   6.332   4.925  12.622 -0.1716  0.0613  0.6509
 1939TIP3    H127232   6.313   4.832  12.615 -0.0869  0.1131 -0.4506
 1939TIP3    H227233   6.426   4.932  12.606 -0.2245  0.3592  0.4585
 1940TIP3   OH227234   0.528   2.688  16.975  0.6182  0.2516  0.4708
 1940TIP3    H127235   0.467   2.616  16.988  0.2491  0.4901  0.0827
 1940TIP3    H227236   0.609   2.660  17.019  0.8898 -0.9215 -0.7074
 1941TIP3   OH227237   1.539   1.514  16.521 -0.1658 -0.1510  0.3597
 1941TIP3    H127238   1.446   1.514  16.541 -0.6206 -0.1149 -1.6124
 1941TIP3    H227239   1.547   1.571  16.444  1.2244 -1.5755 -0.5951
 1942TIP3   OH227240   1.845   0.598   4.136 -0.3476  0.4655 -0.8126
 1942TIP3    H127241   1.884   0.588   4.049  1.5556  1.5927 -0.1318
 1942TIP3    H227242   1.824   0.691   4.142 -1.3571  0.2289 -0.3874
 1943TIP3   OH227243   6.044   4.206  16.625 -0.3878 -0.0562  0.0715
 1943TIP3    H127244   5.983   4.171  16.560 -0.2335 -1.0552  0.4382
 1943TIP3    H227245   6.004   4.288  16.654  0.5986  1.5712 -2.8279
 1944TIP3   OH227246   0.582   0.720   5.979  0.0940  0.1064  0.1844
 1944TIP3    H127247   0.499   0.707   5.933 -1.1080 -0.0805  2.2554
 1944TIP3    H227248   0.611   0.807   5.952  0.1694 -0.5300 -1.9266
 1945TIP3   OH227249   2.427   1.467  12.980  0.3633  0.2707 -0.4328
 1945TIP3    H127250   2.443   1.523  12.904 -0.8515 -1.1653 -1.8380
 1945TIP3    H227251   2.450   1.521  13.055 -0.4816  2.5615 -1.7080
 1946TIP3   OH227252   1.504   2.496   5.543 -0.0222 -0.5806 -0.4426
 1946TIP3    H127253   1.480   2.404   5.535 -1.1067 -0.3166 -0.3828
 1946TIP3    H227254   1.578   2.497   5.604  0.3806 -1.4556 -0.8993
 1947TIP3   OH227255   2.279   2.800  14.603  0.0138 -0.4924 -0.3286
 1947TIP3    H127256   2.265   2.817  14.510 -3.2188 -0.3655  0.0655
 1947TIP3    H227257   2.244   2.877  14.647  0.8282 -0.8691  1.0164
 1948TIP3   OH227258   3.224   3.275   2.721  0.5454 -0.0817 -0.0555
 1948TIP3    H127259   3.250   3.268   2.813 -0.8418 -1.9923  0.2752
 1948TIP3    H227260   3.242   3.188   2.685  1.8922  0.8862 -1.8777
 1949TIP3   OH227261   3.347   1.533   1.173  0.3598 -0.1177  0.8578
 1949TIP3    H127262   3.409   1.584   1.121  1.2853 -0.3508  1.6790
 1949TIP3    H227263   3.265   1.581   1.168  0.6092  0.2290 -0.2255
 1950TIP3   OH227264   1.239   5.552   3.355 -0.4709 -0.2504 -0.4575
 1950TIP3    H127265   1.251   5.597   3.438  3.0463  1.2347 -1.5986
 1950TIP3    H227266   1.229   5.460   3.379 -1.6768  0.3448  1.6347
 1951TIP3   OH227267   1.952   0.129   1.957 -0.0355 -0.0695  0.2148
 1951TIP3    H127268   1.880   0.191   1.943 -0.2760 -0.2390  0.6875
 1951TIP3    H227269   2.022   0.161   1.900  0.3088  1.4015  1.4092
 1952TIP3   OH227270   5.782   0.657  11.753  0.4688 -0.1085  0.0629
 1952TIP3    H127271   5.749   0.587  11.696  1.5597  0.1967 -0.9796
 1952TIP3    H227272   5.704   0.696  11.791 -0.2172 -1.1231 -0.2612
 1953TIP3   OH227273   0.366   1.062   0.317  0.3171 -0.0022 -0.1241
 1953TIP3    H127274   0.303   1.133   0.312  1.0512  0.7861  1.1457
 1953TIP3    H227275   0.437   1.097   0.371  1.0362 -1.4489 -0.0796
 1954TIP3   OH227276   1.644   0.391  16.007 -0.5109 -0.7390 -0.1070
 1954TIP3    H127277   1.656   0.332  15.933  2.4367 -1.0498  0.4651
 1954TIP3    H227278   1.587   0.344  16.068 -0.4365 -1.8065 -0.8553
 1955TIP3   OH227279   3.161   6.485  12.319 -0.3059 -0.5981 -0.2296
 1955TIP3    H127280   3.231   6.443  12.368 -0.3831 -0.7258 -0.2301
 1955TIP3    H227281   3.083   6.475  12.374 -0.1289  0.4091  0.2408
 1956TIP3   OH227282   2.895   5.625   0.928  0.1146  0.2346 -0.2202
 1956TIP3    H127283   2.822   5.563   0.922  0.7232 -0.5236  0.0490
 1956TIP3    H227284   2.886   5.681   0.850 -0.8941  0.3213 -0.0586
 1957TIP3   OH227285   3.377   1.386   3.323  0.0717  0.5181 -0.2136
 1957TIP3    H127286   3.451   1.331   3.351 -1.2422 -0.6200  1.1732
 1957TIP3    H227287   3.418   1.469   3.296  2.0719 -0.9111 -1.8969
 1958TIP3   OH227288   6.619   6.339  10.757  0.2848 -0.4275 -0.2385
 1958TIP3    H127289   6.677   6.305  10.825 -0.4298 -2.5899 -0.6323
 1958TIP3    H227290   6.533   6.308  10.781 -0.0821 -0.6851 -1.7977
 1959TIP3   OH227291   5.929   3.169   4.492 -0.0480  0.2596 -0.3145
 1959TIP3    H127292   5.976   3.226   4.430 -1.1682  0.6584 -0.8299
 1959TIP3    H227293   5.968   3.190   4.577  1.4032 -0.1727 -0.8422
 1960TIP3   OH227294   0.091   1.253  14.756 -0.1391 -0.0716  0.2935
 1960TIP3    H127295   0.168   1.287  14.801 -0.7925  0.6563  0.8783
 1960TIP3    H227296   0.112   1.162  14.738  2.0067  0.7520 -2.0313
 1961TIP3   OH227297   0.706   2.216   2.319  0.1104  0.0455 -0.5802
 1961TIP3    H127298   0.641   2.273   2.278 -1.7083 -0.4876  1.4047
 1961TIP3    H227299   0.687   2.129   2.283  2.2245  0.4067 -2.8273
 1962TIP3   OH227300   1.036   0.697   1.380 -0.1901  0.2308  0.3896
 1962TIP3    H127301   0.996   0.751   1.449 -0.5190 -1.3530  1.5002
 1962TIP3    H227302   1.002   0.609   1.396  1.1447 -0.5254 -0.7066
 1963TIP3   OH227303   4.236   5.375  15.442  0.3074 -0.3023 -0.1102
 1963TIP3    H127304   4.249   5.283  15.418  0.1397  0.1322 -2.0509
 1963TIP3    H227305   4.325   5.410  15.450  0.3867 -0.7808  1.4045
 1964TIP3   OH227306   5.293   0.409   1.662  0.2446 -0.3562 -0.2018
 1964TIP3    H127307   5.204   0.384   1.635  0.5591 -2.1918  0.3279
 1964TIP3    H227308   5.283   0.437   1.753 -0.0536  1.2373 -0.6932
 1965TIP3   OH227309   2.713   0.023  12.875 -0.1591  0.3352 -0.1032
 1965TIP3    H127310   2.700  -0.045  12.809 -0.4077 -0.1871  0.4742
 1965TIP3    H227311   2.806   0.017  12.898  0.2512  1.3904 -1.3258
 1966TIP3   OH227312   4.603   4.742  14.464 -0.2692  0.5386 -0.3612
 1966TIP3    H127313   4.524   4.796  14.469 -2.4999 -2.0868 -3.3647
 1966TIP3    H227314   4.660   4.788  14.403 -0.4668  1.2771  0.0008
 1967TIP3   OH227315   6.183   5.202  13.820 -0.2781  0.5361 -0.5061
 1967TIP3    H127316   6.111   5.264  13.831 -0.1272  0.7118 -0.4992
 1967TIP3    H227317   6.141   5.117  13.816 -0.3621  0.4766  1.1163
 1968TIP3   OH227318   3.134   0.809   3.037  0.0873  0.3909  0.3230
 1968TIP3    H127319   3.098   0.745   3.099  0.1778 -0.5502 -0.5625
 1968TIP3    H227320   3.093   0.892   3.062 -0.6961 -0.1668  0.9659
 1969TIP3   OH227321   3.699   2.908   5.856  0.2631  0.0744  0.0529
 1969TIP3    H127322   3.614   2.866   5.841  0.0405  1.0479 -1.8010
 1969TIP3    H227323   3.685   2.999   5.831  2.6872 -0.4324 -4.0505
 1970TIP3   OH227324   5.897   6.594   3.208 -0.5283 -0.3602 -0.1699
 1970TIP3    H127325   5.864   6.587   3.298 -2.2675 -0.9402 -0.8169
 1970TIP3    H227326   5.871   6.512   3.166 -1.3486  0.6194 -1.6929
 1971TIP3   OH227327   3.843   3.350  12.951  0.2750  0.1289 -0.1062
 1971TIP3    H127328   3.749   3.335  12.956  0.3353 -1.0191 -1.7495
 1971TIP3    H227329   3.855   3.406  12.874  0.9338  0.2900  0.1056
 1972TIP3   OH227330   2.828   6.225  16.928 -0.3457 -0.0824 -0.5971
 1972TIP3    H127331   2.781   6.146  16.902  0.0132 -0.6549  0.4040
 1972TIP3    H227332   2.765   6.274  16.980  0.2010 -1.0107  1.0306
 1973TIP3   OH227333   4.946   3.624  14.454  0.2261 -0.0071 -0.2907
 1973TIP3    H127334   4.877   3.682  14.486 -1.3274 -1.7146 -0.3833
 1973TIP3    H227335   4.947   3.639  14.359 -0.4141 -0.3463 -0.3605
 1974TIP3   OH227336   3.516   6.033  13.793 -0.2720 -0.5495  0.5795
 1974TIP3    H127337   3.455   5.961  13.810 -2.1122  0.4956 -1.1974
 1974TIP3    H227338   3.467   6.111  13.815  0.1161  0.3792 -1.6671
 1975TIP3   OH227339   1.455   5.079  13.537  0.6635 -0.3464  0.0661
 1975TIP3    H127340   1.512   5.155  13.549 -1.3662  1.8452 -2.7362
 1975TIP3    H227341   1.468   5.053  13.445 -0.5016 -1.8291  0.2727
 1976TIP3   OH227342   2.803   5.189  16.533  0.0396 -0.3997 -0.4161
 1976TIP3    H127343   2.747   5.265  16.516 -0.2306 -0.5946 -0.4115
 1976TIP3    H227344   2.807   5.183  16.628  1.1715  0.4141 -0.3952
 1977TIP3   OH227345   1.361   3.168  16.770 -0.0953  0.6171 -0.4285
 1977TIP3    H127346   1.288   3.126  16.816 -0.2752  0.3235 -0.9844
 1977TIP3    H227347   1.326   3.252  16.741  0.1616  1.0178  0.3777
 1978TIP3   OH227348   4.271   1.136  13.963 -0.0063  0.5788  0.8559
 1978TIP3    H127349   4.210   1.121  13.891  0.9761  0.8993 -0.0645
 1978TIP3    H227350   4.317   1.052  13.972 -0.4444  0.3937  1.4294
 1979TIP3   OH227351   6.676   0.677   3.378 -0.2085  0.3657 -0.7099
 1979TIP3    H127352   6.672   0.655   3.471 -1.4777 -0.8252 -1.0094
 1979TIP3    H227353   6.758   0.639   3.348  0.1833  0.7154 -0.0932
 1980TIP3   OH227354   3.711   3.232  12.007 -0.0421 -0.2932 -0.2936
 1980TIP3    H127355   3.650   3.196  12.070 -0.1558  2.5112  1.3732
 1980TIP3    H227356   3.794   3.237  12.054  0.4627 -0.3024 -1.1604
 1981TIP3   OH227357   4.268   5.442   3.206  0.0274 -0.3804 -1.3976
 1981TIP3    H127358   4.181   5.475   3.182 -0.4519 -0.5750 -0.0142
 1981TIP3    H227359   4.260   5.347   3.202 -1.4597 -0.7422  3.5766
 1982TIP3   OH227360   5.336   0.815  15.863  0.6581  0.2536  0.1328
 1982TIP3    H127361   5.286   0.733  15.866  0.7296  0.2228  0.6111
 1982TIP3    H227362   5.392   0.812  15.941  0.6914  0.7392  0.1306
 1983TIP3   OH227363   0.221   4.754  13.113 -0.1393  0.4484  0.0048
 1983TIP3    H127364   0.137   4.710  13.121 -0.1914  0.4968 -0.2766
 1983TIP3    H227365   0.213   4.831  13.170 -0.2545  0.4090  0.0419
 1984TIP3   OH227366   5.542   4.814  13.465  0.4537  0.3421 -0.1534
 1984TIP3    H127367   5.589   4.731  13.474  1.5875  1.0366  0.5413
 1984TIP3    H227368   5.458   4.789  13.426  0.2455 -1.2952  1.2025
 1985TIP3   OH227369   0.932   1.176   2.109 -0.4114 -0.5845 -0.5360
 1985TIP3    H127370   0.993   1.113   2.072 -0.4050 -0.9764  0.1247
 1985TIP3    H227371   0.982   1.258   2.114 -0.7675 -0.2164 -2.4418
 1986TIP3   OH227372   2.822   4.935   3.746 -0.0581  0.0966  0.8218
 1986TIP3    H127373   2.894   4.998   3.738 -0.3291  0.8503  3.4641
 1986TIP3    H227374   2.856   4.855   3.707  0.9100  1.3646 -1.1022
 1987TIP3   OH227375   0.367   1.407  15.445  0.1233  0.8335  0.3034
 1987TIP3    H127376   0.362   1.502  15.443  1.9476  0.9490 -0.2448
 1987TIP3    H227377   0.414   1.387  15.526  3.3931  0.6910 -1.4624
 1988TIP3   OH227378   3.195   0.175  12.498 -0.2784  0.5500 -0.1283
 1988TIP3    H127379   3.252   0.220  12.561  1.4596  1.5683 -2.2930
 1988TIP3    H227380   3.223   0.084  12.501  0.4936  0.7791 -0.1335
 1989TIP3   OH227381   0.013   6.086   4.996  0.1931 -0.7672  0.0384
 1989TIP3    H127382   0.012   5.992   5.018 -1.2026 -0.8227 -0.1655
 1989TIP3    H227383  -0.067   6.099   4.946  0.3958  0.5363  0.0372
 1990TIP3   OH227384   0.482   1.355   6.413 -0.3418 -0.2790  0.4600
 1990TIP3    H127385   0.569   1.379   6.380 -1.4149  0.6291 -2.0069
 1990TIP3    H227386   0.459   1.276   6.364 -1.4267  0.2682  0.0498
 1991TIP3   OH227387   6.452   2.983   0.365  0.2297  0.0888  0.5892
 1991TIP3    H127388   6.412   2.899   0.387 -1.8645  0.8394 -0.1441
 1991TIP3    H227389   6.389   3.026   0.308  3.1914  0.3467 -2.8390
 1992TIP3   OH227390   1.389   2.346  14.104  0.5466  0.8061  1.2300
 1992TIP3    H127391   1.370   2.263  14.059  0.0860  1.1887  0.7159
 1992TIP3    H227392   1.484   2.343  14.118  0.7972  0.8956 -0.2232
 1993TIP3   OH227393   3.656   3.596   3.582  0.4415 -0.5179 -0.4045
 1993TIP3    H127394   3.630   3.541   3.655  3.7270 -1.5076  0.1833
 1993TIP3    H227395   3.708   3.666   3.622  1.4983 -0.5417 -1.6510
 1994TIP3   OH227396   2.449   5.980   6.767  0.0759  0.5216 -0.0265
 1994TIP3    H127397   2.353   5.981   6.762  0.0052 -0.2514  0.9690
 1994TIP3    H227398   2.475   6.062   6.726 -0.8182 -0.7875 -3.5639
 1995TIP3   OH227399   3.110   5.957  15.996  0.4323  0.5665 -0.5007
 1995TIP3    H127400   3.112   5.881  16.056 -0.9974  0.5265 -0.4812
 1995TIP3    H227401   3.069   6.026  16.047  2.2298  1.5723 -0.3271
 1996TIP3   OH227402   2.119   2.258   5.173 -0.1335  0.1419 -0.0661
 1996TIP3    H127403   2.044   2.205   5.148 -0.2418  1.0071 -1.7177
 1996TIP3    H227404   2.188   2.233   5.111  0.0555  1.3195 -0.3614
 1997TIP3   OH227405   4.982   0.073   0.886 -0.0647 -0.1363  0.1128
 1997TIP3    H127406   5.042   0.070   0.811 -0.4109 -1.8813 -0.1403
 1997TIP3    H227407   4.897   0.094   0.847  0.1518  1.3009  0.3457
 1998TIP3   OH227408   3.385   4.723  12.095 -0.2254 -0.4893 -0.1906
 1998TIP3    H127409   3.398   4.817  12.086  0.5541 -0.6330 -0.7039
 1998TIP3    H227410   3.317   4.714  12.162 -0.3841  0.4348 -0.2139
 1999TIP3   OH227411   0.294   2.367   1.667  0.1121 -0.3059 -0.6298
 1999TIP3    H127412   0.261   2.333   1.750 -1.7357 -3.6156 -2.5024
 1999TIP3    H227413   0.368   2.310   1.645  0.3518  0.2801 -1.4191
 2000TIP3   OH227414   0.683   4.690   2.122  0.0569  0.1950  0.2729
 2000TIP3    H127415   0.669   4.656   2.034 -0.7680 -1.7926  1.1054
 2000TIP3    H227416   0.775   4.671   2.141  0.6465  1.9299 -0.6338
 2001TIP3   OH227417   5.116   3.058   0.892 -0.5263  0.0587  0.1646
 2001TIP3    H127418   5.132   2.984   0.834 -0.5897 -0.2753  0.5721
 2001TIP3    H227419   5.193   3.060   0.950 -1.2751 -0.6795  1.2073
 2002TIP3   OH227420   2.064   2.864   0.752 -0.1239  0.1220  0.2820
 2002TIP3    H127421   2.150   2.851   0.793 -1.2631  0.5765  3.0732
 2002TIP3    H227422   2.049   2.958   0.757 -0.7472  0.0535 -0.2379
 2003TIP3   OH227423   0.972   1.696   1.792  0.0045 -0.2278 -0.6481
 2003TIP3    H127424   1.049   1.646   1.764  1.4229  1.6022 -0.2341
 2003TIP3    H227425   0.957   1.668   1.882  0.8770  0.1459 -0.3718
 2004TIP3   OH227426   1.749   5.245   5.649 -0.2844 -0.7253  0.1730
 2004TIP3    H127427   1.815   5.314   5.654 -0.4612 -0.5712  0.3631
 2004TIP3    H227428   1.711   5.241   5.736 -0.3435 -0.9969  0.1366
 2005TIP3   OH227429   4.342   2.670   0.141 -0.0436  0.3549 -0.1757
 2005TIP3    H127430   4.427   2.680   0.183  1.0538  0.9365 -2.3892
 2005TIP3    H227431   4.362   2.630   0.056 -2.3764 -2.9611  0.6415
 2006TIP3   OH227432   6.287   1.441  14.080  0.3152  0.3232 -0.1692
 2006TIP3    H127433   6.293   1.423  14.173 -0.2804 -0.0013 -0.1839
 2006TIP3    H227434   6.254   1.359  14.042 -1.3431  1.0517 -0.3900
 2007TIP3   OH227435   1.953   0.083  12.451 -0.0827 -0.2032  0.1970
 2007TIP3    H127436   1.966   0.001  12.498 -2.0880  0.3137  1.7736
 2007TIP3    H227437   2.006   0.147  12.500  0.2080 -0.2395 -0.0672
 2008TIP3   OH227438   5.195   0.826   5.190 -0.2023  0.0708 -0.2573
 2008TIP3    H127439   5.249   0.749   5.211  0.2094  0.1362 -1.0333
 2008TIP3    H227440   5.107   0.801   5.217  0.3937  0.4789  2.3322
 2009TIP3   OH227441   3.102   4.656  13.614 -0.1566 -0.4844  0.4048
 2009TIP3    H127442   3.193   4.635  13.594 -0.4414 -0.0853 -1.5580
 2009TIP3    H227443   3.096   4.654  13.710  2.0950  0.2517  0.6055
 2010TIP3   OH227444   2.802   5.993   2.300  0.2860 -0.0010 -0.1643
 2010TIP3    H127445   2.846   5.930   2.244  0.1959  0.3854 -0.6783
 2010TIP3    H227446   2.841   6.077   2.277 -0.9780  0.4096 -0.9013
 2011TIP3   OH227447   0.063   3.817   2.372 -0.3871  0.4688 -0.0690
 2011TIP3    H127448  -0.018   3.859   2.401  0.4590  3.2079 -1.3416
 2011TIP3    H227449   0.042   3.785   2.284 -0.5347 -0.3374  0.2492
 2012TIP3   OH227450   6.363   4.335  14.087 -0.1056 -0.4763 -0.4644
 2012TIP3    H127451   6.415   4.352  14.165  1.1393 -1.2367 -1.0889
 2012TIP3    H227452   6.400   4.254  14.052 -1.0319 -0.4569 -1.5121
 2013TIP3   OH227453   2.797   4.475   1.176  0.5733 -0.3252  0.2500
 2013TIP3    H127454   2.781   4.532   1.101  2.2274 -1.9677 -1.4263
 2013TIP3    H227455   2.717   4.482   1.228 -1.4366 -0.5666 -2.5975
 2014TIP3   OH227456   6.729   3.408  15.637  0.4111 -0.4434 -0.6206
 2014TIP3    H127457   6.641   3.416  15.601  0.2194 -1.0895 -0.3101
 2014TIP3    H227458   6.765   3.497  15.633  0.7081 -0.5807 -3.1805
 2015TIP3   OH227459   3.305   2.800   6.481  0.6355  0.0904 -0.0379
 2015TIP3    H127460   3.225   2.849   6.501  0.6053  1.7419 -3.5223
 2015TIP3    H227461   3.275   2.714   6.452  0.2984  0.0014  0.5603
 2016TIP3   OH227462   5.562   5.748  11.458  0.2832  0.4763  0.3433
 2016TIP3    H127463   5.548   5.757  11.552  0.1579 -0.5281  0.4304
 2016TIP3    H227464   5.500   5.809  11.419 -0.7144 -0.1599  0.8846
 2017TIP3   OH227465   5.008   3.622  10.751 -0.2112 -0.2829 -0.5216
 2017TIP3    H127466   4.998   3.704  10.704  1.3662  1.1688  1.4883
 2017TIP3    H227467   5.077   3.639  10.816 -0.3505 -2.9600  0.4814
 2018TIP3   OH227468   5.280   4.870  15.808  0.0145 -0.2376 -0.1163
 2018TIP3    H127469   5.270   4.817  15.887  1.1908  0.5674  0.6127
 2018TIP3    H227470   5.270   4.960  15.838 -1.0335  0.0222 -1.1755
 2019TIP3   OH227471   4.253   0.799   4.314  0.6931 -0.3092  0.2622
 2019TIP3    H127472   4.241   0.743   4.390 -0.4725 -0.8163 -0.2760
 2019TIP3    H227473   4.347   0.794   4.295  0.7234 -1.4814  0.6751
 2020TIP3   OH227474   1.990   3.512   3.953  0.1412 -0.2711  0.1132
 2020TIP3    H127475   2.037   3.595   3.961 -1.0340  0.2844  1.7587
 2020TIP3    H227476   1.921   3.529   3.889  0.3698 -0.2123 -0.1180
 2021TIP3   OH227477   0.973   2.976  14.050  0.5397  0.3288  0.1707
 2021TIP3    H127478   0.999   2.948  13.963  1.7841  0.0547  0.6065
 2021TIP3    H227479   1.043   3.036  14.078 -1.4224  3.0196 -0.2563
 2022TIP3   OH227480   2.341   0.499   4.961 -0.0585 -0.5228  0.3704
 2022TIP3    H127481   2.290   0.458   4.890 -1.6057  0.8830  0.6079
 2022TIP3    H227482   2.275   0.528   5.024  1.0954  0.7595  1.0321
 2023TIP3   OH227483   1.503   4.309   3.767  0.3093  0.0956 -0.0662
 2023TIP3    H127484   1.504   4.370   3.693 -1.4493 -0.2163 -0.4094
 2023TIP3    H227485   1.537   4.359   3.840  1.6828  0.5464 -0.9812
 2024TIP3   OH227486   4.275   5.246   5.237 -0.2326 -0.4864  0.3041
 2024TIP3    H127487   4.331   5.213   5.308 -1.5020 -0.4676  1.3546
 2024TIP3    H227488   4.276   5.341   5.249  0.0877 -0.4325 -0.1308
 2025TIP3   OH227489   6.533   4.645  12.302 -0.1494 -0.5202 -0.4259
 2025TIP3    H127490   6.525   4.699  12.223  2.0047 -0.6872 -0.8110
 2025TIP3    H227491   6.624   4.655  12.329 -0.9686  0.0424  2.4636
 2026TIP3   OH227492   0.282   2.001   1.543  0.2412 -0.1049 -0.3157
 2026TIP3    H127493   0.209   2.062   1.547  0.4699  0.1054  1.4043
 2026TIP3    H227494   0.341   2.039   1.478 -0.3673  0.6630 -0.4381
 2027TIP3   OH227495   2.964   4.264   5.598  0.1785  0.2411  0.3630
 2027TIP3    H127496   2.974   4.169   5.591 -0.0552  0.0890  1.8155
 2027TIP3    H227497   2.925   4.290   5.514 -1.0569 -1.1235  0.4667
 2028TIP3   OH227498   2.718   5.277  14.694  0.6216 -0.6705 -0.4135
 2028TIP3    H127499   2.658   5.258  14.766  0.3093 -2.1590 -1.0207
 2028TIP3    H227500   2.670   5.337  14.638  0.8985  0.5674  0.6331
 2029TIP3   OH227501   5.596   1.594  14.769  0.7429 -0.5732  0.2612
 2029TIP3    H127502   5.568   1.651  14.841  0.3489 -1.0851  0.5246
 2029TIP3    H227503   5.519   1.587  14.713  0.9088 -0.5361  0.0315
 2030TIP3   OH227504   0.000   3.943   5.500 -0.1845  0.2105  0.3727
 2030TIP3    H127505   0.029   3.948   5.591 -2.9559  1.8515  1.2908
 2030TIP3    H227506   0.023   4.028   5.463  0.7957 -0.3956 -0.4714
 2031TIP3   OH227507   3.756   5.551  14.206  0.2550 -0.0836 -0.1051
 2031TIP3    H127508   3.762   5.628  14.149 -0.5528  0.0004 -0.0810
 2031TIP3    H227509   3.666   5.552  14.238 -1.1411 -3.2566 -3.2615
 2032TIP3   OH227510   2.335   5.601   0.184  0.1378  0.5093 -0.4421
 2032TIP3    H127511   2.268   5.552   0.138  0.0947  0.7574 -0.6452
 2032TIP3    H227512   2.293   5.683   0.208 -0.0410  0.1182  0.6237
 2033TIP3   OH227513   3.755   0.399  15.580 -0.2250 -0.3443 -0.2822
 2033TIP3    H127514   3.828   0.439  15.628  1.1421 -0.6763 -2.0006
 2033TIP3    H227515   3.725   0.467  15.521 -0.3623 -0.6565 -0.5768
 2034TIP3   OH227516   1.034   5.046   4.289 -0.4396 -0.0472 -0.0784
 2034TIP3    H127517   1.040   5.082   4.200 -1.6801  0.2643 -0.0467
 2034TIP3    H227518   1.124   5.020   4.310 -0.2245 -0.6720 -1.6438
 2035TIP3   OH227519   3.983   1.888   1.344  0.5871 -0.5753  0.0778
 2035TIP3    H127520   3.897   1.851   1.365  0.8527 -0.4807  1.4302
 2035TIP3    H227521   4.045   1.834   1.392  1.0079  1.3944  1.8995
 2036TIP3   OH227522   0.739   3.317   1.409 -0.1365 -1.0010  0.2204
 2036TIP3    H127523   0.667   3.328   1.348  0.5346  1.9587 -0.2030
 2036TIP3    H227524   0.697   3.303   1.494 -1.3504  1.7898  0.1816
 2037TIP3   OH227525   5.458   2.884   2.044 -0.6317 -0.1364  0.5752
 2037TIP3    H127526   5.510   2.834   1.982 -0.3027  1.8829 -0.8923
 2037TIP3    H227527   5.470   2.839   2.128  1.5352 -1.1202 -0.1875
 2038TIP3   OH227528   5.251   4.965  15.302  0.1867 -0.1074 -0.1970
 2038TIP3    H127529   5.328   4.987  15.250 -1.4763  1.3911 -2.1653
 2038TIP3    H227530   5.214   5.049  15.328 -1.2846 -0.7571 -0.0844
 2039TIP3   OH227531   1.041   2.468   5.615 -0.0064 -0.3665 -0.0772
 2039TIP3    H127532   0.946   2.473   5.622 -0.1188 -2.3324  0.2789
 2039TIP3    H227533   1.058   2.465   5.521 -0.4405 -1.7496 -0.1299
 2040TIP3   OH227534   6.568   3.105   1.551 -0.0478  0.4395  0.2392
 2040TIP3    H127535   6.618   3.062   1.483 -0.6176 -0.3682  0.3227
 2040TIP3    H227536   6.623   3.099   1.629 -0.0960 -0.0874  0.2349
 2041TIP3   OH227537   6.223   1.234  10.866 -0.0030 -0.0757 -0.4647
 2041TIP3    H127538   6.224   1.326  10.891  1.7659  0.1131 -1.0302
 2041TIP3    H227539   6.274   1.189  10.934  2.3563  0.0067 -2.0275
 2042TIP3   OH227540   1.537   0.073   5.955  0.0123 -0.5494  0.1581
 2042TIP3    H127541   1.573   0.041   6.037  1.1294 -0.8107 -0.4081
 2042TIP3    H227542   1.500   0.159   5.977  2.3842  0.4626  0.5073
 2043TIP3   OH227543   2.905   3.776   3.826  0.2134 -0.2393  0.2599
 2043TIP3    H127544   2.933   3.855   3.872  0.2591  0.0834 -0.3076
 2043TIP3    H227545   2.943   3.785   3.738  0.7891 -1.2191  0.3954
 2044TIP3   OH227546   3.187   0.402   3.159 -0.1447 -0.0871  0.3280
 2044TIP3    H127547   3.218   0.492   3.170 -0.3614 -0.1432  1.5951
 2044TIP3    H227548   3.092   0.410   3.153 -0.1702 -0.2264  0.5230
 2045TIP3   OH227549   0.341   4.391   3.204  0.5993  0.2403  0.0974
 2045TIP3    H127550   0.247   4.382   3.223  0.3076  0.6076 -1.0610
 2045TIP3    H227551   0.372   4.301   3.192  0.6444  0.0475  1.5200
 2046TIP3   OH227552   5.984   5.786  12.685  0.2956 -0.1589  0.4219
 2046TIP3    H127553   6.059   5.793  12.744  1.0180  1.1825 -0.5955
 2046TIP3    H227554   6.003   5.848  12.614 -1.2698 -0.5817 -0.4212
 2047TIP3   OH227555   0.190   4.016   4.077 -0.5195  0.5912  0.0978
 2047TIP3    H127556   0.188   3.941   4.137  0.7548 -0.2415 -0.8506
 2047TIP3    H227557   0.277   4.055   4.091 -0.3088  0.5374 -1.0102
 2048TIP3   OH227558   5.157   4.701   1.655 -0.6665  0.2218 -0.2236
 2048TIP3    H127559   5.146   4.693   1.561 -0.3688 -0.8898 -0.1766
 2048TIP3    H227560   5.251   4.714   1.667 -0.7065  0.3853 -0.0738
 2049TIP3   OH227561   1.741   2.754   2.655 -0.8857 -0.6902 -0.0556
 2049TIP3    H127562   1.733   2.666   2.691 -2.2600 -1.1889 -1.4566
 2049TIP3    H227563   1.772   2.808   2.728 -1.0041 -2.1421  1.0995
 2050TIP3   OH227564   3.233   2.608   1.084  0.2781  0.3155 -0.4036
 2050TIP3    H127565   3.182   2.628   1.006  1.6918 -0.4849 -1.5780
 2050TIP3    H227566   3.244   2.513   1.083  3.0283  0.5545 -1.0710
 2051TIP3   OH227567   5.104   2.636  11.828 -0.0385  0.2802 -0.0958
 2051TIP3    H127568   5.109   2.724  11.792  0.8390  0.3638  0.2035
 2051TIP3    H227569   5.122   2.578  11.754  1.0484  0.4242  0.0405
 2052TIP3   OH227570   0.972   4.649  15.762 -0.0363  0.2906  0.1664
 2052TIP3    H127571   1.066   4.656  15.742 -0.1598 -0.0624 -0.5630
 2052TIP3    H227572   0.939   4.584  15.700 -0.9279  1.0387 -0.1711
 2053TIP3   OH227573   5.022   3.622  13.622 -0.2279 -0.0429  0.0557
 2053TIP3    H127574   5.000   3.559  13.554 -0.3463 -2.3113  2.0520
 2053TIP3    H227575   5.069   3.571  13.688  1.9725  2.5379  0.6604
 2054TIP3   OH227576   3.962   3.038   5.363 -0.3024 -0.0591 -0.3089
 2054TIP3    H127577   3.906   3.001   5.295  0.0353  1.3829 -1.4203
 2054TIP3    H227578   3.990   3.123   5.328 -0.2880  0.8279  1.7264
 2055TIP3   OH227579   0.889   6.541  13.179 -0.1252 -0.5396  0.5031
 2055TIP3    H127580   0.965   6.483  13.187  1.2260  1.3063  1.5976
 2055TIP3    H227581   0.838   6.525  13.259  0.2824 -0.1798  0.8370
 2056TIP3   OH227582   2.439   3.721  13.829 -0.1875 -0.4339 -0.1172
 2056TIP3    H127583   2.469   3.754  13.744  0.0645 -2.0769 -0.6908
 2056TIP3    H227584   2.374   3.654  13.807 -1.4957  0.3859  1.0444
 2057TIP3   OH227585   4.425   3.798  13.078 -0.1329  0.2888 -0.0274
 2057TIP3    H127586   4.477   3.878  13.076 -0.1350  0.2830 -0.2787
 2057TIP3    H227587   4.482   3.730  13.042  0.3962 -0.1365  1.5187
 2058TIP3   OH227588   6.201   5.904  11.004  0.5374 -0.0456 -0.1078
 2058TIP3    H127589   6.234   5.824  11.044 -0.2733  0.7486  2.3304
 2058TIP3    H227590   6.270   5.969  11.020 -0.0559  0.4295  0.5843
 2059TIP3   OH227591   1.991   1.294  13.910 -0.5590  0.4739  0.2235
 2059TIP3    H127592   1.998   1.242  13.830  0.9262 -0.0671  0.6623
 2059TIP3    H227593   2.077   1.336  13.918 -0.5749  0.2605  1.6926
 2060TIP3   OH227594   0.939   5.306   1.301  0.1650  0.0846 -0.3739
 2060TIP3    H127595   0.965   5.266   1.218  1.8625 -2.3892  1.2124
 2060TIP3    H227596   1.014   5.359   1.326 -1.3490  3.0480 -1.5318
 2061TIP3   OH227597   1.869   4.978   5.227  0.0824 -0.3283 -0.1155
 2061TIP3    H127598   1.942   4.928   5.191  0.3083  0.4670 -0.8053
 2061TIP3    H227599   1.817   5.004   5.151  0.4152  1.1424  0.1230
 2062TIP3   OH227600   2.935   4.829   3.163  0.1650 -0.4013  0.0154
 2062TIP3    H127601   2.953   4.862   3.075  1.2171 -0.1521  0.3119
 2062TIP3    H227602   2.879   4.752   3.148 -0.8357  0.4521 -0.7753
 2063TIP3   OH227603   3.397   1.561  15.274 -0.3818  0.1381  0.1823
 2063TIP3    H127604   3.347   1.604  15.343 -0.4647  0.3287  0.0085
 2063TIP3    H227605   3.485   1.598  15.282 -0.2097 -0.3557  0.6244
 2064TIP3   OH227606   1.385   3.520   2.570 -0.0372 -0.0990 -0.4210
 2064TIP3    H127607   1.328   3.453   2.531 -1.5105  1.2558 -0.7242
 2064TIP3    H227608   1.341   3.544   2.652  0.7454  0.1506 -0.0606
 2065TIP3   OH227609   4.322   1.292  12.442  0.5640 -0.4029 -0.6168
 2065TIP3    H127610   4.365   1.323  12.522 -0.1895  1.9785 -1.0415
 2065TIP3    H227611   4.388   1.239  12.398  2.0441  0.7213  0.1668
 2066TIP3   OH227612   5.864   4.496  15.775 -0.2243  0.5581 -0.5668
 2066TIP3    H127613   5.792   4.434  15.784 -0.9924  1.5083  0.0436
 2066TIP3    H227614   5.830   4.578  15.812  0.9309  1.2105 -0.8997
 2067TIP3   OH227615   2.547   3.358   2.514 -0.2961 -0.0114  0.0079
 2067TIP3    H127616   2.487   3.434   2.513 -0.7633 -0.3826 -0.8339
 2067TIP3    H227617   2.506   3.295   2.455  0.9485 -0.2619 -0.6169
 2068TIP3   OH227618   2.103   6.354  12.228  0.2989  0.2266  0.1211
 2068TIP3    H127619   2.059   6.347  12.144 -1.7516 -0.3505  1.1870
 2068TIP3    H227620   2.076   6.439  12.263 -0.8244 -0.5497  1.2109
 2069TIP3   OH227621   3.147   4.460  17.167  0.1031  0.1943  0.1489
 2069TIP3    H127622   3.205   4.394  17.206  0.5073  0.7772  0.5616
 2069TIP3    H227623   3.186   4.478  17.082  0.7819  0.8877  0.5948
 2070TIP3   OH227624   4.057   0.201   6.184  0.2540 -0.3172 -0.4342
 2070TIP3    H127625   3.973   0.246   6.171 -0.5533 -1.7115 -0.2408
 2070TIP3    H227626   4.066   0.195   6.279  0.6075 -0.1109 -0.4549
 2071TIP3   OH227627   5.616   0.691   1.707  0.2479  0.3951  0.0038
 2071TIP3    H127628   5.554   0.711   1.636 -0.7635  2.3919  1.3498
 2071TIP3    H227629   5.667   0.771   1.717  0.4282  0.1231  1.4581
 2072TIP3   OH227630   2.557   5.956   1.582  0.0447 -0.2561 -0.0123
 2072TIP3    H127631   2.630   5.900   1.605  0.2919  0.7329  1.7942
 2072TIP3    H227632   2.491   5.939   1.650 -0.1061  1.1782  0.2324
 2073TIP3   OH227633   0.798   4.689   1.135  0.0247 -0.3213  0.2295
 2073TIP3    H127634   0.845   4.765   1.168 -0.7240  1.3927 -2.3372
 2073TIP3    H227635   0.816   4.620   1.199  1.1543  1.8348  2.3962
 2074TIP3   OH227636   5.239   1.541  13.122 -0.3082  0.0886  0.2312
 2074TIP3    H127637   5.309   1.607  13.129 -0.0477 -0.2219  0.6098
 2074TIP3    H227638   5.286   1.457  13.122 -0.6301 -0.0926 -0.3745
 2075TIP3   OH227639   4.247   6.592  12.370  0.0546 -0.3428 -0.7703
 2075TIP3    H127640   4.258   6.646  12.448  0.2922 -1.4513  0.0023
 2075TIP3    H227641   4.246   6.654  12.297  0.6591  0.6608  0.0458
 2076TIP3   OH227642   0.100   0.628  14.515 -0.0335 -0.3907 -0.5579
 2076TIP3    H127643   0.102   0.615  14.610  1.2858 -0.8095 -0.6276
 2076TIP3    H227644   0.007   0.633  14.494 -0.3494 -0.2500  0.7605
 2077TIP3   OH227645   0.007   1.207  10.421 -0.2847 -0.0630  0.0595
 2077TIP3    H127646   0.070   1.213  10.349  0.4108  0.2030  0.6797
 2077TIP3    H227647   0.046   1.144  10.482 -1.4381 -1.2043 -0.3438
 2078TIP3   OH227648   3.393   2.239  16.182 -0.1417 -0.3858 -0.2524
 2078TIP3    H127649   3.443   2.319  16.199 -0.1810 -0.1224 -1.3015
 2078TIP3    H227650   3.351   2.219  16.265  1.7805 -0.6702  0.7198
 2079TIP3   OH227651   6.168   3.565  11.653 -0.5233 -0.7544  0.3396
 2079TIP3    H127652   6.216   3.587  11.733 -0.2139  1.4224 -0.3821
 2079TIP3    H227653   6.233   3.523  11.596  0.0101  0.3024  0.1535
 2080TIP3   OH227654   3.858   2.333   0.411 -0.3455 -1.0708 -0.3465
 2080TIP3    H127655   3.923   2.366   0.473  0.0268  2.4086 -2.3002
 2080TIP3    H227656   3.903   2.262   0.365  1.9466  0.7972 -1.1780
 2081TIP3   OH227657   4.061   6.757  14.992  0.4003  0.3750  0.7357
 2081TIP3    H127658   4.119   6.830  15.016  1.5039  0.8717 -2.8651
 2081TIP3    H227659   4.014   6.788  14.914  0.3446 -2.4629 -0.4795
 2082TIP3   OH227660   5.486   0.478  15.727  0.0745  0.5451 -0.1738
 2082TIP3    H127661   5.468   0.475  15.821  0.5935  0.1998 -0.0869
 2082TIP3    H227662   5.506   0.570  15.709 -1.1274  0.8262 -0.1557
 2083TIP3   OH227663   5.731   4.752  15.312 -0.3306  0.2174 -0.1601
 2083TIP3    H127664   5.648   4.707  15.328 -0.0207 -0.1136  0.5702
 2083TIP3    H227665   5.798   4.693  15.348  0.1603  0.8299 -0.0460
 2084TIP3   OH227666   1.739   0.712  15.225  1.2704  0.2045 -0.1383
 2084TIP3    H127667   1.733   0.625  15.185 -0.1657  0.7119 -1.1249
 2084TIP3    H227668   1.831   0.720  15.252  0.9358 -2.5235  2.1663
 2085TIP3   OH227669   5.853   3.432   4.105 -0.0503 -0.5137  0.5656
 2085TIP3    H127670   5.859   3.368   4.034 -1.4717  0.3795 -0.4122
 2085TIP3    H227671   5.863   3.517   4.062  0.0895  0.0038  1.5886
 2086TIP3   OH227672   0.177   5.585  14.058 -0.3539 -0.1639  0.3959
 2086TIP3    H127673   0.134   5.592  13.973  0.7788  0.5242 -0.1275
 2086TIP3    H227674   0.267   5.560  14.038  0.6442  2.5170  1.1990
 2087TIP3   OH227675   6.297   4.705  13.443  0.1464 -0.0612  0.2119
 2087TIP3    H127676   6.236   4.667  13.379 -0.3350  0.7558  0.1695
 2087TIP3    H227677   6.384   4.682  13.410 -0.0495  1.1606 -1.3125
 2088TIP3   OH227678   4.587   5.454   2.702 -0.6976  0.2178  0.1630
 2088TIP3    H127679   4.540   5.386   2.749  0.0087 -1.5330 -1.5027
 2088TIP3    H227680   4.599   5.525   2.765 -1.8419 -1.0289  1.8345
 2089TIP3   OH227681   3.477   1.147   2.284  0.1386 -0.3393  0.4571
 2089TIP3    H127682   3.476   1.191   2.199  0.2809 -1.2469 -0.0292
 2089TIP3    H227683   3.512   1.212   2.344 -1.6375  0.9476  0.1999
 2090TIP3   OH227684   5.805   2.495  14.706  0.3607 -0.1974  0.2422
 2090TIP3    H127685   5.771   2.523  14.792 -0.6385  2.3335 -0.8661
 2090TIP3    H227686   5.734   2.443  14.669  0.9176 -1.5625  1.0247
 2091TIP3   OH227687   0.381   1.513   4.134  0.3178 -0.1411 -0.5708
 2091TIP3    H127688   0.299   1.559   4.151 -0.9864 -1.7940 -2.1305
 2091TIP3    H227689   0.414   1.550   4.053 -0.0275 -0.9747 -1.1022
 2092TIP3   OH227690   2.387   6.511   0.850 -0.0168  0.2906  0.0130
 2092TIP3    H127691   2.414   6.439   0.906 -0.2813  0.1516 -0.0347
 2092TIP3    H227692   2.353   6.468   0.771 -0.3378  0.4585  0.0559
 2093TIP3   OH227693   0.722   2.789  12.076  0.4882  0.1948  0.1439
 2093TIP3    H127694   0.718   2.806  12.170  0.7730 -2.0154  0.6190
 2093TIP3    H227695   0.815   2.783  12.057  0.4415  1.0750 -0.3807
 2094TIP3   OH227696   1.483   5.278  14.359  0.0590  0.3768  0.3545
 2094TIP3    H127697   1.389   5.260  14.355 -0.3306  2.2264 -0.2571
 2094TIP3    H227698   1.525   5.192  14.364 -1.5608 -0.6220 -1.7809
 2095TIP3   OH227699   4.431   2.217   0.033  0.1454 -0.0319  0.2838
 2095TIP3    H127700   4.341   2.194   0.058  0.5746 -1.7352  0.3969
 2095TIP3    H227701   4.452   2.157  -0.038  1.7329 -0.8001  1.3377
 2096TIP3   OH227702   4.028   4.123  11.482 -0.5408 -0.3205 -0.4506
 2096TIP3    H127703   3.987   4.210  11.477 -0.6783 -0.4163 -0.9853
 2096TIP3    H227704   4.120   4.142  11.498 -0.7916 -0.1046  0.9551
 2097TIP3   OH227705   1.498   3.101   3.128 -0.2499 -0.1089 -0.1149
 2097TIP3    H127706   1.439   3.172   3.154  0.5329  0.4110  0.2842
 2097TIP3    H227707   1.443   3.042   3.077 -0.5804  1.5948 -1.8486
 2098TIP3   OH227708   5.466   0.538   5.555 -0.1345 -0.1279 -0.7775
 2098TIP3    H127709   5.472   0.632   5.575 -0.8837 -0.1510 -0.4098
 2098TIP3    H227710   5.557   0.510   5.547  0.1065  0.5963 -0.7269
 2099TIP3   OH227711   6.219   1.865  16.876 -0.2883  0.7195  0.4925
 2099TIP3    H127712   6.274   1.930  16.920  0.0580 -0.7875  2.4640
 2099TIP3    H227713   6.250   1.781  16.910 -1.7508 -0.3824 -0.7551
 2100TIP3   OH227714   2.591   0.484  15.963  0.1199  0.6991 -0.7695
 2100TIP3    H127715   2.516   0.520  15.916 -1.2520  0.7390  1.2946
 2100TIP3    H227716   2.603   0.542  16.038  0.3170 -0.9177  0.5227
 2101TIP3   OH227717   3.083   4.221   1.244  0.0331  0.0544 -0.1570
 2101TIP3    H127718   3.038   4.305   1.235 -0.0057  0.2489  1.4972
 2101TIP3    H227719   3.173   4.245   1.267 -0.0719 -0.3317  0.7011
 2102TIP3   OH227720   2.419   2.177   1.206 -0.0825  0.0070 -0.3049
 2102TIP3    H127721   2.384   2.226   1.131 -0.7914 -0.0264 -0.0060
 2102TIP3    H227722   2.513   2.193   1.204 -0.3014  1.4357 -0.1800
 2103TIP3   OH227723   5.011   6.097  14.718 -0.1493  0.4074  0.3984
 2103TIP3    H127724   4.990   6.189  14.705  1.7529  0.4418 -5.1174
 2103TIP3    H227725   4.926   6.052  14.711 -0.8195  1.5613  0.8650
 2104TIP3   OH227726   4.364   5.481   0.190  0.4623 -0.5679  0.2559
 2104TIP3    H127727   4.271   5.502   0.178  0.7116  0.5021  0.0981
 2104TIP3    H227728   4.395   5.461   0.102  0.6423  0.2192  0.1356
 2105TIP3   OH227729   3.719   5.321   5.607 -0.4519  0.5243 -0.1395
 2105TIP3    H127730   3.806   5.320   5.647 -0.9046  0.4491  0.8739
 2105TIP3    H227731   3.702   5.230   5.585  0.5165  0.7837 -2.1602
 2106TIP3   OH227732   1.562   4.609   0.819 -0.7920  0.4950  0.0814
 2106TIP3    H127733   1.592   4.518   0.821 -0.4410  0.5736 -0.8901
 2106TIP3    H227734   1.548   4.632   0.911  2.1342  0.4336  0.6435
 2107TIP3   OH227735   6.450   4.993   2.163  0.5118 -0.4571  0.0770
 2107TIP3    H127736   6.494   4.976   2.246 -1.7873  0.4371  1.5556
 2107TIP3    H227737   6.417   4.908   2.135 -0.2703 -0.4870  1.0470
 2108TIP3   OH227738   6.306   6.108  12.767  0.0668  0.8004 -0.2360
 2108TIP3    H127739   6.214   6.135  12.756 -0.3576  0.7192  2.5328
 2108TIP3    H227740   6.340   6.165  12.835  2.4047  1.3930 -1.7813
 2109TIP3   OH227741   1.579   3.662  14.206 -0.4375  0.2677 -0.2199
 2109TIP3    H127742   1.575   3.749  14.247 -0.9108  0.2523 -0.2266
 2109TIP3    H227743   1.487   3.637  14.195 -0.3553 -1.3247  2.1124
 2110TIP3   OH227744   3.143   5.145   6.385  1.2863 -0.0764  0.1985
 2110TIP3    H127745   3.200   5.081   6.342  1.3160  0.4707 -0.5895
 2110TIP3    H227746   3.189   5.229   6.376 -0.6079  0.8151 -2.4561
 2111TIP3   OH227747   6.746   2.623   3.730  0.4658 -0.0121 -0.4717
 2111TIP3    H127748   6.664   2.574   3.726  0.5524 -0.3430  1.2589
 2111TIP3    H227749   6.725   2.707   3.688 -0.4969 -0.4269 -0.8584
 2112TIP3   OH227750   4.878   0.406  15.617 -0.4678 -0.5431 -0.0900
 2112TIP3    H127751   4.837   0.465  15.681 -1.8232 -0.3403 -1.1042
 2112TIP3    H227752   4.965   0.389  15.653 -0.6875  0.6708  1.1077
 2113TIP3   OH227753   4.061   3.372   1.761  0.2724  0.2199 -0.5741
 2113TIP3    H127754   4.101   3.341   1.679  2.7981  0.0950  0.6298
 2113TIP3    H227755   4.077   3.301   1.824 -1.8558  0.2025  0.0413
 2114TIP3   OH227756   2.098   4.863   5.160  0.4435 -0.3624 -0.0564
 2114TIP3    H127757   2.166   4.899   5.218  1.7118 -2.1596 -0.3591
 2114TIP3    H227758   2.120   4.898   5.074  1.7484 -1.8539 -0.3733
 2115TIP3   OH227759   6.397   2.139  15.184  0.2581 -0.5339  0.0406
 2115TIP3    H127760   6.381   2.045  15.188  0.0323 -0.5277 -0.6181
 2115TIP3    H227761   6.316   2.176  15.148  0.1258 -0.0183  0.8252
 2116TIP3   OH227762   0.804   2.847   1.902  0.2457 -0.8460 -0.1331
 2116TIP3    H127763   0.717   2.808   1.914  0.2398 -0.7038  0.3036
 2116TIP3    H227764   0.793   2.938   1.928 -0.1999 -0.0102 -2.8979
 2117TIP3   OH227765   0.610   5.250  12.851  0.5690  0.0801 -0.2266
 2117TIP3    H127766   0.597   5.257  12.946  1.4969  0.7500 -0.1406
 2117TIP3    H227767   0.657   5.330  12.827  1.5275 -0.6977 -1.0374
 2118TIP3   OH227768   6.078   4.320   4.678  0.2207  0.3549 -0.6644
 2118TIP3    H127769   6.004   4.347   4.623  1.7220 -0.0047 -2.9874
 2118TIP3    H227770   6.145   4.386   4.662  0.5820  0.4796  1.1401
 2119TIP3   OH227771   6.266   2.086   2.282  0.0613 -0.1668  0.0189
 2119TIP3    H127772   6.216   2.005   2.295 -1.7280  0.9071  0.0665
 2119TIP3    H227773   6.251   2.137   2.362  1.0657  0.2900 -0.0667
 2120TIP3   OH227774   3.712   2.652   3.194 -0.2672  0.4039  0.3971
 2120TIP3    H127775   3.771   2.693   3.131 -1.0552 -2.7360 -2.6409
 2120TIP3    H227776   3.767   2.590   3.241 -0.5052 -0.3471 -0.2974
 2121TIP3   OH227777   0.458   0.143   5.356 -0.4673  0.0060  0.6231
 2121TIP3    H127778   0.440   0.156   5.263  0.7413  0.0007  0.3768
 2121TIP3    H227779   0.392   0.078   5.383 -0.2405 -0.7148 -0.4549
 2122TIP3   OH227780   5.186   6.490  13.998  0.5000 -0.1984  0.2200
 2122TIP3    H127781   5.117   6.508  13.935  1.9022 -0.7854 -1.5523
 2122TIP3    H227782   5.180   6.396  14.014  0.4580 -0.1326  0.6032
 2123TIP3   OH227783   6.297   0.849  14.060  0.3956 -0.1764  0.2358
 2123TIP3    H127784   6.292   0.869  14.154  0.6133 -2.2462  0.7254
 2123TIP3    H227785   6.385   0.879  14.035 -0.3673  2.2011  0.1835
 2124TIP3   OH227786   6.785   5.665  14.508  0.3940 -0.3399 -0.2001
 2124TIP3    H127787   6.829   5.684  14.425  0.2579  0.8781 -0.0066
 2124TIP3    H227788   6.751   5.577  14.497  0.3206 -0.1697 -1.4707
 2125TIP3   OH227789   5.351   1.896  16.591  0.1524  0.0971  0.1744
 2125TIP3    H127790   5.409   1.824  16.613  0.3862  0.6055  1.3235
 2125TIP3    H227791   5.403   1.951  16.531  0.4692  0.0088  0.3649
 2126TIP3   OH227792   0.034   0.670  11.508  0.0948 -0.2340 -0.4322
 2126TIP3    H127793   0.090   0.597  11.535  0.6928  0.5637  0.6078
 2126TIP3    H227794   0.056   0.740  11.570  0.0549  1.0531 -1.8142
 2127TIP3   OH227795   0.697   2.804   0.417 -0.2794 -0.0911 -0.6631
 2127TIP3    H127796   0.716   2.716   0.385  0.7722 -0.7964  1.6765
 2127TIP3    H227797   0.617   2.795   0.468 -0.0483  0.2404 -0.2303
 2128TIP3   OH227798   4.604   4.809   1.598  0.3370  0.0171 -0.2032
 2128TIP3    H127799   4.644   4.780   1.680  0.3354 -0.1494 -0.2594
 2128TIP3    H227800   4.591   4.903   1.608 -1.0397 -0.2334  0.5597
 2129TIP3   OH227801   2.120   3.579  13.247  0.0787  0.3717  0.3498
 2129TIP3    H127802   2.084   3.657  13.290 -0.2074  0.5204 -0.1540
 2129TIP3    H227803   2.050   3.515  13.250 -0.6790  1.0447 -1.6656
 2130TIP3   OH227804   3.372   3.700   1.239  0.1994  0.2411 -0.2816
 2130TIP3    H127805   3.394   3.618   1.194  2.1568  0.8801 -0.5975
 2130TIP3    H227806   3.349   3.761   1.169 -1.4239 -0.0401 -0.0355
 2131TIP3   OH227807   5.610   3.537  15.207 -0.0877  0.1665 -0.0656
 2131TIP3    H127808   5.524   3.523  15.167 -0.6064  1.7511  0.4133
 2131TIP3    H227809   5.594   3.603  15.275  1.7583  1.7018 -1.0166
 2132TIP3   OH227810   4.410   1.154   0.403  0.2098  0.3103  0.4438
 2132TIP3    H127811   4.356   1.195   0.470  0.1165 -0.1171  0.6299
 2132TIP3    H227812   4.499   1.159   0.437  0.3526  1.3700 -0.0376
 2133TIP3   OH227813   4.531   1.080   4.570 -0.2246  0.0972  0.3093
 2133TIP3    H127814   4.604   1.092   4.509 -1.1438  2.3587 -0.4454
 2133TIP3    H227815   4.552   1.136   4.644  0.0239 -1.2550  1.2831
 2134TIP3   OH227816   1.740   5.205   4.763  0.5467  0.1297 -0.0884
 2134TIP3    H127817   1.730   5.298   4.739  0.8080 -0.0041 -0.7377
 2134TIP3    H227818   1.693   5.158   4.694  0.1944 -0.2154  0.3790
 2135TIP3   OH227819   5.272   3.343   5.560 -0.0148  0.2562  0.3021
 2135TIP3    H127820   5.202   3.284   5.533  1.6240 -1.7902  0.2930
 2135TIP3    H227821   5.255   3.360   5.653 -0.4559 -0.2790  0.3205
 2136TIP3   OH227822   1.913   2.286  16.372  0.1624 -0.3861 -0.1367
 2136TIP3    H127823   1.986   2.230  16.398  1.4230  0.6451 -1.3429
 2136TIP3    H227824   1.867   2.236  16.305  1.1324 -0.1298 -1.0221
 2137TIP3   OH227825   4.459   5.078   1.666  0.2225  0.2982  0.5988
 2137TIP3    H127826   4.390   5.063   1.601  1.0595  2.3938 -0.8619
 2137TIP3    H227827   4.435   5.021   1.739 -1.9712 -0.4919 -0.6389
 2138TIP3   OH227828   3.843   0.232  15.234  0.0531 -0.2654  0.1460
 2138TIP3    H127829   3.878   0.168  15.297 -1.0748  0.0771  1.1633
 2138TIP3    H227830   3.917   0.290  15.216  0.6214 -0.8483  0.5189
 2139TIP3   OH227831   1.506   0.545  13.468 -0.1768  0.0098 -0.0208
 2139TIP3    H127832   1.568   0.472  13.477 -0.2205  0.1484  1.6074
 2139TIP3    H227833   1.511   0.568  13.375 -0.9734 -2.7709 -0.8677
 2140TIP3   OH227834   5.963   3.998   5.881  0.4004 -0.1097  0.0570
 2140TIP3    H127835   5.972   4.081   5.835 -0.5437 -0.8663 -1.5714
 2140TIP3    H227836   5.909   4.019   5.957  0.2566  0.7878 -0.2849
 2141TIP3   OH227837   2.889   0.121  11.435  0.0653 -0.1206  0.1009
 2141TIP3    H127838   2.890   0.180  11.511  0.7169  0.1329 -0.0963
 2141TIP3    H227839   2.945   0.164  11.371  0.4320 -0.8766 -0.1032
 2142TIP3   OH227840   2.946   5.005  13.324  0.3210 -0.1800 -0.0803
 2142TIP3    H127841   2.999   5.002  13.403 -0.4655  0.1396  0.4768
 2142TIP3    H227842   2.878   4.939  13.337 -1.5243  1.7372  0.8299
 2143TIP3   OH227843   2.869   0.689  13.412 -0.5628  0.4217  0.1468
 2143TIP3    H127844   2.889   0.706  13.320 -0.5869  1.7162  0.3602
 2143TIP3    H227845   2.909   0.762  13.459  3.6406 -2.5076  1.7462
 2144TIP3   OH227846   1.656   4.107   1.117  0.6332  0.8160 -0.4896
 2144TIP3    H127847   1.577   4.139   1.073 -0.2091  0.2944  0.5719
 2144TIP3    H227848   1.626   4.084   1.205  1.6121 -1.0248 -0.5871
 2145TIP3   OH227849   2.982   0.666   3.907 -0.4826 -0.1510  0.1095
 2145TIP3    H127850   3.077   0.654   3.910 -0.4585  0.1805  1.3917
 2145TIP3    H227851   2.969   0.742   3.850 -0.1820 -1.7303 -2.1716
 2146TIP3   OH227852   1.272   6.089   0.127  0.0822  0.1368  0.5125
 2146TIP3    H127853   1.342   6.076   0.064 -0.1047 -1.4306  0.6071
 2146TIP3    H227854   1.311   6.066   0.212  0.8013  3.6331  1.2952
 2147TIP3   OH227855   2.881   5.860  11.175 -0.1679  0.6117 -0.4989
 2147TIP3    H127856   2.800   5.810  11.166  0.3662 -0.2735 -0.5280
 2147TIP3    H227857   2.904   5.885  11.085  0.0798  0.0578 -0.5928
 2148TIP3   OH227858   3.166   1.012  15.870  0.0844 -0.1375 -0.1169
 2148TIP3    H127859   3.095   0.975  15.922  1.6317 -3.1880 -0.0053
 2148TIP3    H227860   3.144   0.989  15.780  1.3797 -2.1357  0.0098
 2149TIP3   OH227861   4.236   3.199   3.134  0.5342  0.1991  0.0726
 2149TIP3    H127862   4.166   3.186   3.199 -0.1926 -0.5480 -0.8358
 2149TIP3    H227863   4.276   3.112   3.125  1.4154  0.5599  0.3722
 2150TIP3   OH227864   6.762   2.787  14.879 -0.1619  0.0111 -0.5104
 2150TIP3    H127865   6.797   2.775  14.968 -0.9837  0.7529 -0.0640
 2150TIP3    H227866   6.799   2.715  14.828  1.0986  0.1157  0.1997
 2151TIP3   OH227867   3.562   1.669  16.935 -0.1902  0.2624 -0.3215
 2151TIP3    H127868   3.479   1.662  16.982 -0.0604  1.1939  0.0533
 2151TIP3    H227869   3.540   1.647  16.844 -0.7773  0.1820 -0.1611
 2152TIP3   OH227870   5.261   0.360   4.529  0.3938 -0.4089  0.5541
 2152TIP3    H127871   5.311   0.382   4.450  1.5737 -3.0179  0.4835
 2152TIP3    H227872   5.221   0.276   4.509 -2.1852  0.4998  1.5153
 2153TIP3   OH227873   6.744   3.211   3.516 -0.3045 -0.5527 -0.0478
 2153TIP3    H127874   6.814   3.274   3.538 -1.4871  0.5992  0.5435
 2153TIP3    H227875   6.791   3.134   3.483  1.1945  0.6029 -0.7439
 2154TIP3   OH227876   2.277   3.559   1.008 -0.1794  0.0699  0.0393
 2154TIP3    H127877   2.316   3.645   1.026 -0.2965  0.0717  0.2819
 2154TIP3    H227878   2.347   3.509   0.966  1.0646 -0.9505  3.1265
 2155TIP3   OH227879   3.686   3.502  10.758  0.1448 -0.5278 -0.8745
 2155TIP3    H127880   3.704   3.409  10.748 -1.8728 -1.0826  0.2758
 2155TIP3    H227881   3.593   3.512  10.742  0.3259  1.3288 -1.0898
 2156TIP3   OH227882   5.445   5.877  12.202 -0.5904 -0.2985  0.1256
 2156TIP3    H127883   5.452   5.785  12.227 -0.4533 -0.5139 -0.6578
 2156TIP3    H227884   5.534   5.900  12.173 -0.6419  0.0612  0.2489
 2157TIP3   OH227885   2.217   3.389   4.109  0.8275  0.2510 -0.1384
 2157TIP3    H127886   2.271   3.460   4.143 -0.5990  1.2569  0.1631
 2157TIP3    H227887   2.155   3.433   4.050  1.9356 -1.1770 -2.5117
 2158TIP3   OH227888   4.433   5.930  13.497  0.3331 -0.3714  0.4264
 2158TIP3    H127889   4.373   5.898  13.565  0.4527 -0.0262  0.6971
 2158TIP3    H227890   4.395   5.897  13.416 -0.5844  0.3590  0.5325
 2159TIP3   OH227891   0.706   1.657   5.067  0.0252  0.6717 -0.0944
 2159TIP3    H127892   0.766   1.668   5.141  1.3633  0.6010 -1.1364
 2159TIP3    H227893   0.657   1.739   5.064  0.2447  0.8407  0.6038
 2160TIP3   OH227894   4.707   2.294  12.084 -0.7756 -0.0666 -0.0602
 2160TIP3    H127895   4.627   2.346  12.071 -0.3890  0.5683  0.0593
 2160TIP3    H227896   4.777   2.350  12.052 -0.0285  0.6600  2.6538
 2161TIP3   OH227897   6.725   2.382   0.771 -0.2035  0.2111  0.3379
 2161TIP3    H127898   6.748   2.289   0.768  0.9291  0.4539  0.7816
 2161TIP3    H227899   6.682   2.393   0.856  0.4031  0.2332  0.6526
 2162TIP3   OH227900   3.017   5.798   1.477 -0.0705 -0.0440  0.5210
 2162TIP3    H127901   3.045   5.716   1.438 -1.6447 -0.4700  0.2326
 2162TIP3    H227902   3.085   5.861   1.452  0.7544 -1.0806  0.1017
 2163TIP3   OH227903   6.016   4.177  11.544  0.9163  0.5563 -0.2811
 2163TIP3    H127904   5.962   4.126  11.605  1.6506  0.2508  0.1303
 2163TIP3    H227905   6.004   4.134  11.459 -0.3387  1.1590 -0.4285
 2164TIP3   OH227906   0.859   5.851   5.579 -0.0633 -0.2167 -0.1108
 2164TIP3    H127907   0.897   5.937   5.563  0.4251 -0.0662  1.6427
 2164TIP3    H227908   0.907   5.793   5.520 -0.1092  0.6231 -1.0074
 2165TIP3   OH227909   3.412   3.031   2.651  0.0266 -0.0869  0.1689
 2165TIP3    H127910   3.477   3.053   2.718 -0.9341  0.5965  0.9144
 2165TIP3    H227911   3.423   2.937   2.636  1.1540  0.0136  0.2945
 2166TIP3   OH227912   2.508   5.334  14.331  0.3086 -0.0122  0.4371
 2166TIP3    H127913   2.451   5.410  14.314  3.0033  2.2425  0.7706
 2166TIP3    H227914   2.577   5.368  14.387  1.6898 -2.7738  0.5775
 2167TIP3   OH227915   3.431   1.780  11.626  0.1300 -0.0346  0.1438
 2167TIP3    H127916   3.363   1.744  11.683 -0.0147  0.3259  0.2020
 2167TIP3    H227917   3.409   1.747  11.539  1.2070 -1.8232  0.5126
 2168TIP3   OH227918   0.546   3.146  16.411 -0.6394 -0.0401 -0.0383
 2168TIP3    H127919   0.489   3.085  16.364 -0.9419  0.5116 -0.4068
 2168TIP3    H227920   0.523   3.134  16.503 -0.9180 -0.2568 -0.1349
 2169TIP3   OH227921   1.683   1.039  11.411  0.3322 -0.4994  0.1642
 2169TIP3    H127922   1.743   0.979  11.456  0.7071  0.0489  0.4143
 2169TIP3    H227923   1.656   1.101  11.479 -0.6976 -0.8675  0.1040
 2170TIP3   OH227924   1.603   1.128  13.119 -0.0038  0.1263 -0.0667
 2170TIP3    H127925   1.602   1.176  13.202  1.8914 -0.7880  0.5364
 2170TIP3    H227926   1.640   1.191  13.056  0.7292  0.0830  0.3092
 2171TIP3   OH227927   1.616   1.024  15.110  0.5402  0.3932  0.0569
 2171TIP3    H127928   1.611   0.930  15.124  1.5040  0.2344 -0.5891
 2171TIP3    H227929   1.598   1.062  15.196 -0.2445 -0.3603  0.2358
 2172TIP3   OH227930   3.309   0.629   2.102  0.0159 -0.9876 -0.3519
 2172TIP3    H127931   3.360   0.606   2.180  1.4472  0.2624 -0.8599
 2172TIP3    H227932   3.311   0.551   2.048 -0.7812 -1.7864  0.7331
 2173TIP3   OH227933   4.685   2.042   2.302  0.3180 -0.1583  0.9561
 2173TIP3    H127934   4.598   2.014   2.273  1.6486 -3.0084 -0.7713
 2173TIP3    H227935   4.686   2.025   2.396 -0.6078 -1.4035  0.7731
 2174TIP3   OH227936   3.892   2.748   2.159 -0.5631 -0.1158  0.1881
 2174TIP3    H127937   3.885   2.840   2.132 -0.9217  0.2214  1.3845
 2174TIP3    H227938   3.805   2.727   2.192 -0.0648 -0.4194  1.3345
 2175TIP3   OH227939   4.260   4.352  13.177 -0.4086  0.5097 -0.6770
 2175TIP3    H127940   4.342   4.334  13.131 -0.5207  0.1397 -0.7346
 2175TIP3    H227941   4.203   4.392  13.111 -0.5417  0.0547 -0.8371
 2176TIP3   OH227942   3.546   1.031   2.730  0.2740 -0.8754 -0.2509
 2176TIP3    H127943   3.524   1.110   2.681  1.3421 -0.0928  0.4964
 2176TIP3    H227944   3.471   1.018   2.789  1.1551  1.0326  1.3849
 2177TIP3   OH227945   0.300   3.817  14.926 -0.2377  0.2864 -0.1986
 2177TIP3    H127946   0.370   3.841  14.864  0.3237  1.1972  0.7490
 2177TIP3    H227947   0.328   3.856  15.009 -2.1808  1.2233  0.0637
 2178TIP3   OH227948   0.041   5.776  14.252  0.0940 -0.3481  0.3637
 2178TIP3    H127949   0.047   5.866  14.219 -1.5037 -0.9780 -1.9375
 2178TIP3    H227950   0.117   5.732  14.214  0.4583 -0.1434  0.8557
 2179TIP3   OH227951   2.597   1.425  16.051 -0.2381  0.1720  0.4626
 2179TIP3    H127952   2.525   1.488  16.046 -1.1944 -0.6983  2.3719
 2179TIP3    H227953   2.625   1.428  16.142  1.0454 -0.7237  0.1252
 2180TIP3   OH227954   6.309   4.160   5.756  0.3332  1.1255 -0.0071
 2180TIP3    H127955   6.271   4.102   5.822  1.5400  0.7314  0.3687
 2180TIP3    H227956   6.244   4.160   5.685  0.0545 -0.2721  0.2032
 2181TIP3   OH227957   1.679   0.246   1.881 -0.3932 -0.4917 -0.2124
 2181TIP3    H127958   1.706   0.168   1.833  1.4455 -0.2838  0.4161
 2181TIP3    H227959   1.648   0.307   1.814 -0.4407 -1.2106 -0.8457
 2182TIP3   OH227960   1.399   6.273   4.550 -0.0448 -0.1302  0.0196
 2182TIP3    H127961   1.359   6.235   4.628  1.6127 -0.7856  0.5718
 2182TIP3    H227962   1.421   6.197   4.495  0.5172  0.2195 -0.2387
 2183TIP3   OH227963   6.576   5.076   0.243  0.0721 -0.0925  0.3502
 2183TIP3    H127964   6.507   5.014   0.265 -0.3372  0.1221 -0.3050
 2183TIP3    H227965   6.547   5.159   0.282  1.4602 -0.6508  2.7674
 2184TIP3   OH227966   6.237   2.873   4.479  0.2904 -0.3327  0.2175
 2184TIP3    H127967   6.156   2.912   4.447  0.4216 -0.6023 -0.4431
 2184TIP3    H227968   6.244   2.905   4.569 -0.6574 -0.4849  0.3555
 2185TIP3   OH227969   1.948   0.499   4.948 -0.2183  0.5033  0.1929
 2185TIP3    H127970   1.941   0.556   5.025 -1.5129 -1.7312  1.8362
 2185TIP3    H227971   1.993   0.421   4.980  1.5662  0.5287 -2.0153
 2186TIP3   OH227972   4.438   5.818   0.854 -0.1145 -0.2609 -0.0720
 2186TIP3    H127973   4.475   5.775   0.777  1.5562  0.8417  0.0493
 2186TIP3    H227974   4.370   5.875   0.819  1.4317  1.1496 -0.9639
 2187TIP3   OH227975   0.007   6.164   4.448 -0.4251 -0.0471  0.0130
 2187TIP3    H127976   0.016   6.238   4.508  0.4045  0.9500 -1.2737
 2187TIP3    H227977   0.028   6.201   4.362 -0.8777 -1.5871 -0.7889
 2188TIP3   OH227978   5.304   0.201  15.391 -0.3481 -0.0468  0.5156
 2188TIP3    H127979   5.292   0.296  15.380  0.0640 -0.1380 -0.8582
 2188TIP3    H227980   5.322   0.190  15.485 -1.9167  1.0594  0.9867
 2189TIP3   OH227981   6.502   1.109   1.318 -0.0291  0.0699 -0.4245
 2189TIP3    H127982   6.592   1.078   1.327 -0.2448 -0.7363 -0.9169
 2189TIP3    H227983   6.509   1.204   1.311  0.6547  0.1540  1.0762
 2190TIP3   OH227984   5.289   0.793  15.402 -0.1830  0.3621 -0.4004
 2190TIP3    H127985   5.330   0.834  15.325 -1.0239  1.4569 -0.2756
 2190TIP3    H227986   5.284   0.862  15.467 -2.4421  0.3455 -0.4879
 2191TIP3   OH227987   4.943   4.364   4.125  0.0157 -0.3982  0.2770
 2191TIP3    H127988   5.009   4.319   4.072  0.8652  1.8340 -0.6816
 2191TIP3    H227989   4.962   4.337   4.215  1.6690 -0.5214 -0.0791
 2192TIP3   OH227990   4.203   1.544   0.742  0.1350  1.0660  0.0668
 2192TIP3    H127991   4.244   1.525   0.826 -0.5233 -0.6950  0.0347
 2192TIP3    H227992   4.129   1.601   0.764  0.4301  1.2680  0.5629
 2193TIP3   OH227993   1.103   2.567   4.865 -0.5294  0.0316 -0.1528
 2193TIP3    H127994   1.112   2.604   4.778  1.0118 -1.5626 -0.7296
 2193TIP3    H227995   1.009   2.571   4.884 -0.5575  3.3467 -0.4730
 2194TIP3   OH227996   3.094   4.422  14.713  0.0815  0.2524  0.0722
 2194TIP3    H127997   3.113   4.515  14.725  3.6727 -0.4580  1.0704
 2194TIP3    H227998   3.038   4.400  14.787 -1.2270  1.6482 -0.4344
 2195TIP3   OH227999   4.360   0.345  13.730 -0.0346 -0.2582 -0.8708
 2195TIP3    H128000   4.311   0.296  13.796  1.1880 -1.4571 -0.8061
 2195TIP3    H228001   4.365   0.286  13.655  2.9416 -1.0526 -0.1853
 2196TIP3   OH228002   4.505   2.246   6.506  0.1351  0.5495 -0.3913
 2196TIP3    H128003   4.431   2.281   6.555  0.0858  0.8332 -0.6603
 2196TIP3    H228004   4.530   2.318   6.447  1.8188  1.1879  0.9866
 2197TIP3   OH228005   5.651   3.459   3.666 -0.0500 -0.1391  0.1996
 2197TIP3    H128006   5.716   3.451   3.596 -1.2157 -2.8240 -0.7414
 2197TIP3    H228007   5.571   3.486   3.620 -0.2462  0.4995  0.9109
 2198TIP3   OH228008   0.182   5.525  16.675  0.1587  0.2582  0.0978
 2198TIP3    H128009   0.140   5.591  16.730 -1.5542 -1.0063  0.3770
 2198TIP3    H228010   0.110   5.477  16.635  1.2269 -2.7377  1.4408
 2199TIP3   OH228011   1.531   0.498  11.422  0.1863 -0.5196 -0.4955
 2199TIP3    H128012   1.593   0.429  11.396 -1.6942 -1.9775 -1.3550
 2199TIP3    H228013   1.487   0.523  11.341  0.0792  0.9809 -0.0152
 2200TIP3   OH228014   2.124   2.682   1.492  0.1898  0.5490 -0.4630
 2200TIP3    H128015   2.189   2.751   1.507  1.4813 -0.4820 -1.0537
 2200TIP3    H228016   2.074   2.677   1.573  1.1132  1.1070  0.1543
 2201TIP3   OH228017   6.304   5.441  14.003 -0.3412 -0.1155 -0.1810
 2201TIP3    H128018   6.271   5.361  13.962  0.9150 -1.0352  0.5515
 2201TIP3    H228019   6.237   5.463  14.069 -0.4067 -0.8925  0.0155
 2202TIP3   OH228020   1.016   4.672   3.058  0.1252 -0.0116 -0.0108
 2202TIP3    H128021   0.979   4.761   3.060  1.1732  0.5409 -1.9954
 2202TIP3    H228022   0.941   4.616   3.040 -0.4561  0.5354  0.6434
 2203TIP3   OH228023   3.352   5.315  12.733 -0.1133 -0.6871 -0.0150
 2203TIP3    H128024   3.371   5.298  12.640 -0.2749 -0.0040 -0.1762
 2203TIP3    H228025   3.329   5.229  12.768 -0.4383 -0.8919 -0.7061
 2204TIP3   OH228026   6.792   3.752   3.977  0.7004  0.5736 -0.0517
 2204TIP3    H128027   6.742   3.830   3.956  1.5236  0.8378 -1.1470
 2204TIP3    H228028   6.881   3.771   3.946  0.9412 -0.7521 -0.2616
 2205TIP3   OH228029   0.046   6.731  13.885  0.4341  0.2427 -0.7365
 2205TIP3    H128030   0.031   6.648  13.838 -0.2853  0.2188 -0.4743
 2205TIP3    H228031   0.021   6.712  13.975 -0.3504  0.9206 -0.7991
 2206TIP3   OH228032   4.522   5.557  11.636  0.0472 -0.0210 -0.3629
 2206TIP3    H128033   4.488   5.468  11.623  0.5095 -0.3910  0.8359
 2206TIP3    H228034   4.480   5.587  11.717  1.2102  0.1987  0.1660
 2207TIP3   OH228035   3.836   2.609  11.234 -0.1475  0.7001  0.8222
 2207TIP3    H128036   3.893   2.683  11.216  1.3914 -0.6470 -0.0705
 2207TIP3    H228037   3.780   2.602  11.156  0.0124  0.6422  0.7138
 2208TIP3   OH228038   5.323   6.700  11.620 -0.4690 -0.5318 -0.0144
 2208TIP3    H128039   5.377   6.632  11.579 -1.8853 -1.5527 -0.2696
 2208TIP3    H228040   5.301   6.758  11.548  0.3055 -0.0753  0.1015
 2209TIP3   OH228041   0.415   2.023   4.539  0.1154 -0.3945  0.0042
 2209TIP3    H128042   0.390   2.073   4.617 -2.0579  0.1662 -0.9900
 2209TIP3    H228043   0.487   2.073   4.501  0.7558 -0.3139  1.2600
 2210TIP3   OH228044   3.076   6.327  16.193  0.1137  0.5098  0.7765
 2210TIP3    H128045   3.163   6.347  16.228  0.7563 -1.4458  0.4385
 2210TIP3    H228046   3.021   6.401  16.220  1.7170  1.4499  1.5928
 2211TIP3   OH228047   2.714   3.130   0.971 -0.3699  0.6805 -0.3794
 2211TIP3    H128048   2.754   3.046   0.950  0.1748  0.6015  0.8761
 2211TIP3    H228049   2.762   3.194   0.920 -0.6027  0.2651 -1.1277
 2212TIP3   OH228050   0.189   6.786   1.879 -0.2753  0.0980 -0.2607
 2212TIP3    H128051   0.261   6.726   1.896 -0.9166 -0.7657 -0.4786
 2212TIP3    H228052   0.190   6.847   1.952  1.4474  0.8835 -0.8962
 2213TIP3   OH228053   0.247   5.893   0.425  0.6064  0.3774 -0.2178
 2213TIP3    H128054   0.199   5.820   0.463 -0.3116  1.0403 -0.0829
 2213TIP3    H228055   0.263   5.866   0.334  1.7997 -0.7157  0.2898
 2214TIP3   OH228056   4.550   6.194  13.679 -0.2523 -0.1110 -0.2367
 2214TIP3    H128057   4.485   6.173  13.745 -1.7500  2.7069 -0.6383
 2214TIP3    H228058   4.503   6.184  13.596  0.1885  0.7511 -0.6015
 2215TIP3   OH228059   0.278   3.330  12.170  0.1107  0.2158  0.1301
 2215TIP3    H128060   0.325   3.394  12.116  0.5796  0.8807  1.2805
 2215TIP3    H228061   0.317   3.339  12.257 -0.5567 -0.8937  0.5694
 2216TIP3   OH228062   0.494   0.157   5.076  0.6987  0.3284 -0.0203
 2216TIP3    H128063   0.493   0.065   5.051  1.0399 -0.1483  1.6455
 2216TIP3    H228064   0.569   0.194   5.029  0.8337 -0.3348 -0.3373
 2217TIP3   OH228065   3.861   2.315   4.294  0.5346  0.3108  0.1676
 2217TIP3    H128066   3.923   2.245   4.274 -0.7251 -0.5308 -0.9290
 2217TIP3    H228067   3.811   2.282   4.369  0.5017  0.4138  0.1911
 2218TIP3   OH228068   4.665   1.889   0.168  0.3866  0.3630  0.2952
 2218TIP3    H128069   4.665   1.795   0.185 -0.6695 -0.4858 -3.4385
 2218TIP3    H228070   4.586   1.921   0.212 -1.1454 -1.2399 -1.0989
 2219TIP3   OH228071   1.467   4.745   4.696  0.0901  0.4591 -0.1414
 2219TIP3    H128072   1.538   4.734   4.633 -0.6253  0.4783 -0.9757
 2219TIP3    H228073   1.506   4.723   4.780  0.9387 -0.0565 -0.6506
 2220TIP3   OH228074   2.304   5.077  15.579  0.3052 -0.4463 -0.1931
 2220TIP3    H128075   2.324   5.028  15.659 -0.2496  0.8402  0.7703
 2220TIP3    H228076   2.389   5.112  15.551  0.7320 -2.0106 -0.9707
 2221TIP3   OH228077   2.130   5.964   1.543 -0.1369  0.0769  0.3630
 2221TIP3    H128078   2.053   5.950   1.488  0.4526 -2.0168 -0.0484
 2221TIP3    H228079   2.098   5.954   1.633 -0.5341  0.2894  0.2464
 2222TIP3   OH228080   1.211   6.129  13.075  0.7998  0.1522 -0.1771
 2222TIP3    H128081   1.190   6.046  13.032  0.5709 -0.7703  1.6183
 2222TIP3    H228082   1.304   6.122  13.096  1.2152  1.1194 -1.5543
 2223TIP3   OH228083   1.614   0.120  14.776  0.0781  0.0572  0.0187
 2223TIP3    H128084   1.587   0.106  14.866 -0.6965  1.6130  0.0656
 2223TIP3    H228085   1.704   0.152  14.782  0.0940 -0.0301  0.2243
 2224TIP3   OH228086   6.042   5.282  14.802 -0.3811  0.0721 -0.4078
 2224TIP3    H128087   5.980   5.293  14.729 -0.3779 -0.4319 -0.4908
 2224TIP3    H228088   5.987   5.272  14.879 -0.3791  1.0932 -0.2642
 2225TIP3   OH228089   3.143   5.570   4.225 -0.4747 -0.0770  0.5387
 2225TIP3    H128090   3.059   5.614   4.210 -0.3139  0.7191  1.7917
 2225TIP3    H228091   3.189   5.577   4.141 -1.1092  0.7147  0.2381
 2226TIP3   OH228092   0.067   6.400   3.359  0.2201  0.6413 -0.0177
 2226TIP3    H128093  -0.010   6.437   3.402  0.7631  1.0367  0.6428
 2226TIP3    H228094   0.129   6.386   3.431  0.0736 -1.5028 -0.2298
 2227TIP3   OH228095   1.086   2.617  11.638  0.1542 -0.4986  0.3729
 2227TIP3    H128096   1.051   2.568  11.712  0.7900 -0.0403  0.9935
 2227TIP3    H228097   1.180   2.621  11.655  0.4888 -1.4562 -1.1083
 2228TIP3   OH228098   4.077   1.009   3.176 -0.1724 -0.1944 -0.2344
 2228TIP3    H128099   4.055   0.974   3.090 -3.2979 -1.4760  0.9653
 2228TIP3    H228100   4.022   0.961   3.238  1.2274  1.3404  2.4297
 2229TIP3   OH228101   0.482   3.756  16.838 -0.2709  0.1892  0.2025
 2229TIP3    H128102   0.543   3.691  16.873  1.0375  1.5516  0.5593
 2229TIP3    H228103   0.534   3.836  16.832 -2.0879  1.4624  0.7365
 2230TIP3   OH228104   0.915   2.886  14.642  0.1702  0.1190  0.2606
 2230TIP3    H128105   0.936   2.955  14.579 -0.3192  0.4212  0.4233
 2230TIP3    H228106   1.000   2.860  14.678  0.3493  0.7049  0.2742
 2231TIP3   OH228107   4.471   6.134   0.647  0.0213  0.6356 -0.3557
 2231TIP3    H128108   4.497   6.199   0.712  0.0498  1.2752 -0.9900
 2231TIP3    H228109   4.531   6.061   0.660 -0.7722  0.2161  1.1647
 2232TIP3   OH228110   0.087   5.291  15.374 -0.2719  0.1622 -0.2673
 2232TIP3    H128111   0.020   5.312  15.309 -0.4579 -2.2270 -0.9539
 2232TIP3    H228112   0.086   5.365  15.435 -1.1226  1.7885 -2.1373
 2233TIP3   OH228113   6.082   0.080   2.646 -0.3270  0.1378 -0.3217
 2233TIP3    H128114   6.151   0.038   2.596  1.5465  0.4279  1.8261
 2233TIP3    H228115   6.128   0.132   2.712 -2.6020  1.5602  0.2765
 2234TIP3   OH228116   3.553   4.293  15.376  0.8275 -0.0156  0.2761
 2234TIP3    H128117   3.557   4.321  15.284 -1.3779 -1.6395 -0.4078
 2234TIP3    H228118   3.531   4.373  15.424  1.3511  0.7311 -0.6715
 2235TIP3   OH228119   5.747   4.532   2.421 -0.6717  0.1486  0.0222
 2235TIP3    H128120   5.831   4.487   2.430 -0.7721  0.3504  2.9834
 2235TIP3    H228121   5.767   4.624   2.440 -1.5095  0.2250  0.6002
 2236TIP3   OH228122   5.992   1.370   4.113  0.1844 -0.7661  0.3420
 2236TIP3    H128123   6.020   1.461   4.100  0.8366 -1.0300 -0.1414
 2236TIP3    H228124   5.979   1.336   4.025 -0.2774 -1.0784  0.5292
 2237TIP3   OH228125   0.027   3.399  13.407 -0.1762 -0.0733  0.1053
 2237TIP3    H128126  -0.005   3.310  13.390  1.2432 -0.6218  0.1316
 2237TIP3    H228127   0.014   3.412  13.500 -1.4931  0.2225 -0.1038
 2238TIP3   OH228128   6.355   5.209   0.928 -0.1463 -0.0595  0.3287
 2238TIP3    H128129   6.402   5.199   0.845  3.0629 -1.9164  2.1484
 2238TIP3    H228130   6.374   5.299   0.955  0.3116 -0.0222 -0.1019
 2239TIP3   OH228131   2.973   4.180  12.253  0.0599  0.5774 -0.0832
 2239TIP3    H128132   2.916   4.239  12.203 -1.0171 -1.9011 -2.0025
 2239TIP3    H228133   3.062   4.206  12.229 -0.4216  0.4849 -2.1159
 2240TIP3   OH228134   1.501   5.915   4.115  0.0122  0.3365  0.6583
 2240TIP3    H128135   1.444   5.840   4.098 -0.2938  0.1614  2.3545
 2240TIP3    H228136   1.589   5.877   4.123 -0.1442  0.1422  1.5280
 2241TIP3   OH228137   3.452   5.893   2.360  0.2334  0.1061  0.4415
 2241TIP3    H128138   3.490   5.973   2.397  1.1499 -0.1495  0.0782
 2241TIP3    H228139   3.413   5.848   2.435 -2.4656  2.0146  0.3360
 2242TIP3   OH228140   5.078   1.929  13.726  0.3991 -0.0430  0.1945
 2242TIP3    H128141   5.044   1.989  13.659 -2.9898 -1.8224  0.0922
 2242TIP3    H228142   5.013   1.932  13.796  1.0569 -2.2796  0.9724
 2243TIP3   OH228143   0.504   0.250  14.387 -0.1972 -0.4730 -0.1908
 2243TIP3    H128144   0.512   0.216  14.298 -1.1606  1.5487 -1.1085
 2243TIP3    H228145   0.413   0.233  14.411 -0.6303  1.1151 -0.5746
 2244TIP3   OH228146   0.515   1.388   4.728 -0.2308 -0.1784 -0.0491
 2244TIP3    H128147   0.570   1.314   4.701 -0.5384 -0.1667 -0.7329
 2244TIP3    H228148   0.468   1.357   4.805  1.6234  0.2145  1.3284
 2245TIP3   OH228149   6.389   4.599  13.977  0.0554 -0.2543  0.1644
 2245TIP3    H128150   6.413   4.508  13.994 -2.4560 -1.2438 -1.0131
 2245TIP3    H228151   6.358   4.599  13.886  1.5175  2.1602 -0.4111
 2246TIP3   OH228152   6.361   3.879   4.192 -0.0601  0.5428  0.2276
 2246TIP3    H128153   6.392   3.944   4.255  1.9625  1.0017 -1.1440
 2246TIP3    H228154   6.343   3.929   4.112 -0.1107 -0.3490 -0.3363
 2247TIP3   OH228155   5.409   1.142  17.072 -0.0114 -0.2607  0.0304
 2247TIP3    H128156   5.476   1.151  17.005  0.8806  1.5358  1.0847
 2247TIP3    H228157   5.369   1.057  17.055  0.2891  0.0570 -2.6408
 2248TIP3   OH228158   5.028   0.413   1.702  0.2266 -0.0874  0.1015
 2248TIP3    H128159   4.985   0.328   1.688 -0.1817  0.1180  0.0856
 2248TIP3    H228160   4.985   0.448   1.781  0.5069  0.0338  0.2024
 2249TIP3   OH228161   5.241   0.820  14.634  0.4281  0.4591 -0.2298
 2249TIP3    H128162   5.279   0.846  14.550 -0.3634 -1.9632 -1.4292
 2249TIP3    H228163   5.285   0.738  14.657  0.7227  1.1318  1.8270
 2250TIP3   OH228164   0.036   4.979   2.457 -0.0396  0.1928  0.0046
 2250TIP3    H128165   0.043   5.060   2.407  0.8647 -0.7086 -1.3903
 2250TIP3    H228166  -0.056   4.956   2.452 -0.3084  1.1094  0.4047
 2251TIP3   OH228167   3.895   6.747   5.523 -0.0735  0.3064 -0.3405
 2251TIP3    H128168   3.935   6.661   5.508  0.4737  0.5723 -0.4277
 2251TIP3    H228169   3.902   6.792   5.439  2.3848  1.5437  0.4295
 2252TIP3   OH228170   4.951   4.524   1.692 -0.7344  0.1026  0.0521
 2252TIP3    H128171   5.008   4.467   1.743  0.2714  0.4260 -0.6680
 2252TIP3    H228172   5.003   4.604   1.678 -1.7947  0.8719  0.3321
 2253TIP3   OH228173   2.419   3.988   6.046 -0.0587  0.0442 -0.1554
 2253TIP3    H128174   2.391   3.962   5.958  1.2171  0.7888 -0.8086
 2253TIP3    H228175   2.415   4.084   6.045  3.2695  0.2949 -0.6232
 2254TIP3   OH228176   0.844   1.915   0.064 -0.4622 -0.1863 -0.1779
 2254TIP3    H128177   0.830   1.894   0.157  0.5403  0.1039  0.0576
 2254TIP3    H228178   0.827   1.833   0.018  1.4482 -1.0561  0.5275
 2255TIP3   OH228179   6.444   4.919   6.462 -0.0503  0.6638 -0.0318
 2255TIP3    H128180   6.455   4.892   6.553  1.2169  2.2929  0.3457
 2255TIP3    H228181   6.404   4.843   6.419 -1.0236  0.0007  1.9407
 2256TIP3   OH228182   0.486   4.649   1.866  0.3530  0.4985 -0.3313
 2256TIP3    H128183   0.516   4.558   1.857  0.8711  0.6668 -0.3670
 2256TIP3    H228184   0.451   4.671   1.779  0.8169  0.5354 -0.5136
 2257TIP3   OH228185   5.415   0.325  15.026  0.2859 -0.2646 -0.3291
 2257TIP3    H128186   5.471   0.248  15.012  1.2342  0.3043  0.2408
 2257TIP3    H228187   5.444   0.361  15.109  0.8215  1.5084 -1.2419
 2258TIP3   OH228188   6.029   0.519  16.289  0.3538  0.0810 -0.1075
 2258TIP3    H128189   6.012   0.514  16.382 -0.8421 -1.0544 -0.3758
 2258TIP3    H228190   6.110   0.470  16.276  0.2784 -0.1355  0.2590
 2259TIP3   OH228191   2.323   2.733  16.451 -0.0809 -0.1575 -0.1673
 2259TIP3    H128192   2.367   2.800  16.399  0.9001  0.3194  1.2404
 2259TIP3    H228193   2.387   2.663  16.460 -0.1307 -0.1135  0.6218
 2260TIP3   OH228194   6.270   5.332  14.972  0.3573  0.1225  0.1462
 2260TIP3    H128195   6.210   5.334  14.897  2.1135  1.3973 -1.3408
 2260TIP3    H228196   6.216   5.305  15.046 -2.0651  1.3723 -1.0432
 2261TIP3   OH228197   6.385   4.098   6.178 -0.0297 -0.2379  0.1851
 2261TIP3    H128198   6.319   4.094   6.109 -0.5147  0.4118  0.6067
 2261TIP3    H228199   6.364   4.024   6.235  0.6772 -1.0799 -0.6222
 2262TIP3   OH228200   4.911   3.499  11.674  0.4609  0.0865 -0.2890
 2262TIP3    H128201   4.915   3.410  11.637 -0.5719  0.4848 -1.4503
 2262TIP3    H228202   4.818   3.521  11.671  0.5003  0.5832  1.5837
 2263TIP3   OH228203   1.685   0.855  11.800 -0.0216 -0.3112  0.3241
 2263TIP3    H128204   1.730   0.797  11.861  0.6496  0.4553  0.5716
 2263TIP3    H228205   1.596   0.864  11.835  0.2907 -0.0662  1.0591
 2264TIP3   OH228206   4.171   0.534   2.796 -0.5503 -0.2855  0.5025
 2264TIP3    H128207   4.216   0.611   2.762 -2.1100  1.0397  1.2876
 2264TIP3    H228208   4.102   0.516   2.732 -0.3078 -0.9106  0.4169
 2265TIP3   OH228209   5.516   0.884   2.916 -0.0649 -0.1520 -0.4031
 2265TIP3    H128210   5.475   0.800   2.897  1.4490 -0.8187 -0.8668
 2265TIP3    H228211   5.547   0.877   3.006 -2.2156  0.9104  0.4856
 2266TIP3   OH228212   5.067   5.730   4.481 -0.0723  0.1181 -0.3400
 2266TIP3    H128213   5.155   5.755   4.505 -0.0181 -1.3270  1.1497
 2266TIP3    H228214   5.049   5.652   4.533 -2.6065  0.9468  0.1706
 2267TIP3   OH228215   1.850   4.052  12.516 -0.5206 -0.3404 -0.2694
 2267TIP3    H128216   1.884   4.069  12.604 -0.8541 -0.5272 -0.1037
 2267TIP3    H228217   1.884   4.124  12.463 -0.4242 -0.1575  0.0379
 2268TIP3   OH228218   5.539   5.262   2.033 -0.4076 -0.0149  0.6128
 2268TIP3    H128219   5.550   5.193   1.967  1.8694  1.3243 -0.5177
 2268TIP3    H228220   5.562   5.219   2.116  2.4124 -0.3988 -0.2383
 2269TIP3   OH228221   0.313   6.577  12.172  0.7392  0.5255  0.6295
 2269TIP3    H128222   0.365   6.591  12.251 -0.0763  1.5596  1.0062
 2269TIP3    H228223   0.345   6.642  12.109  1.0840 -0.0018  0.2484
 2270TIP3   OH228224   1.973   6.276   1.627 -0.4605  0.5078  0.4559
 2270TIP3    H128225   1.888   6.320   1.634 -0.5871  0.3508 -0.0602
 2270TIP3    H228226   1.956   6.199   1.574  0.1320  0.8171 -0.1950
 2271TIP3   OH228227   0.667   1.124  12.885 -0.3054  0.0141  0.1451
 2271TIP3    H128228   0.602   1.054  12.881  0.5836 -1.0758  2.7957
 2271TIP3    H228229   0.741   1.092  12.833 -0.1351 -0.7675  0.8650
 2272TIP3   OH228230   1.174   5.219  16.507  0.3169  0.0282  0.0085
 2272TIP3    H128231   1.151   5.166  16.431 -0.7918 -1.9276  1.5882
 2272TIP3    H228232   1.215   5.157  16.567  0.9834  1.4637  1.0975
 2273TIP3   OH228233   0.112   3.994  14.795 -0.3277  0.4167  0.2106
 2273TIP3    H128234   0.120   3.940  14.874 -0.7592  1.7614  1.2127
 2273TIP3    H228235   0.017   4.002  14.781 -0.2589 -0.1381 -0.7080
 2274TIP3   OH228236   1.249   3.552  11.081  0.0561 -0.0263  0.0446
 2274TIP3    H128237   1.220   3.564  10.990 -0.0047  1.8047  0.2850
 2274TIP3    H228238   1.284   3.462  11.082  0.6122  0.1065 -1.9409
 2275TIP3   OH228239   2.118   2.642   3.974  0.0566 -0.2836 -0.3464
 2275TIP3    H128240   2.135   2.607   4.062 -0.0912 -1.9436 -0.9288
 2275TIP3    H228241   2.170   2.722   3.970  1.5820 -1.1509  0.6180
 2276TIP3   OH228242   0.477   2.803   3.236 -0.1172  0.1321 -0.0073
 2276TIP3    H128243   0.510   2.717   3.260  0.6065  0.4255  0.0806
 2276TIP3    H228244   0.504   2.860   3.308 -0.5539  0.4448 -0.0824
 2277TIP3   OH228245   4.284   6.554   4.982 -0.0108 -1.1163 -0.6787
 2277TIP3    H128246   4.297   6.644   5.014  1.5866 -1.2432 -0.8999
 2277TIP3    H228247   4.270   6.564   4.888 -1.4704 -1.0026 -0.4793
 2278TIP3   OH228248   2.157   6.565   3.668 -0.0996 -0.0644 -0.5826
 2278TIP3    H128249   2.191   6.482   3.635 -1.2709 -0.3807 -1.0348
 2278TIP3    H228250   2.155   6.622   3.591 -0.0701  0.1260 -0.4424
 2279TIP3   OH228251   4.080   6.526   1.460  0.4838  0.8581  0.1893
 2279TIP3    H128252   4.057   6.617   1.478 -0.9532  0.2805  1.5035
 2279TIP3    H228253   4.166   6.515   1.500  0.6622  1.6136  0.0381
 2280TIP3   OH228254   1.355   6.584   3.971 -0.0003  0.2011  0.0700
 2280TIP3    H128255   1.422   6.516   3.973 -0.2203  0.0052  1.3546
 2280TIP3    H228256   1.273   6.538   3.990 -0.4313  0.5407 -0.8761
 2281TIP3   OH228257   2.551   4.980  15.393  0.0469 -0.2260 -0.2531
 2281TIP3    H128258   2.553   4.884  15.390 -0.8119 -0.2671 -0.0230
 2281TIP3    H228259   2.617   5.008  15.330 -0.3858 -0.9727 -1.0661
 2282TIP3   OH228260   2.615   0.627   0.538 -0.1577  0.4108 -0.3300
 2282TIP3    H128261   2.676   0.688   0.498 -0.8663  1.3354 -0.0519
 2282TIP3    H228262   2.633   0.633   0.632 -1.1408  1.2467 -0.1766
 2283TIP3   OH228263   4.001   5.788  14.207  0.1590 -0.1776  0.7414
 2283TIP3    H128264   3.913   5.787  14.169  0.7669  1.0412 -0.8282
 2283TIP3    H228265   4.036   5.701  14.189 -0.9162 -0.8792  1.9224
 2284TIP3   OH228266   4.407   5.930  13.909 -0.4061 -0.7963 -0.0351
 2284TIP3    H128267   4.390   5.904  13.818  0.6691 -0.4200 -0.3498
 2284TIP3    H228268   4.332   5.894  13.958 -0.5816 -1.7086 -0.9374
 2285TIP3   OH228269   4.770   5.353   2.441 -0.0782  0.1029 -0.2040
 2285TIP3    H128270   4.753   5.409   2.366  0.2344  2.0499  1.0897
 2285TIP3    H228271   4.718   5.391   2.512  0.2143 -1.2065  0.7669
 2286TIP3   OH228272   6.108   6.464  13.568  0.4853 -0.0571  0.2033
 2286TIP3    H128273   6.044   6.457  13.639  0.6559 -0.9844  0.2838
 2286TIP3    H228274   6.185   6.504  13.609  0.3829 -0.0586  0.3988
 2287TIP3   OH228275   6.185   2.640  13.474 -0.0801  0.1954 -0.1776
 2287TIP3    H128276   6.118   2.623  13.407 -0.1894  1.0690 -0.3056
 2287TIP3    H228277   6.199   2.556  13.516 -0.9819 -0.0885 -0.4185
 2288TIP3   OH228278   5.543   1.883  11.022 -0.3472 -0.3315  0.2031
 2288TIP3    H128279   5.457   1.899  11.061 -0.6537 -0.7940 -0.2863
 2288TIP3    H228280   5.527   1.880  10.928  0.4562  1.2083 -0.0226
 2289TIP3   OH228281   0.313   4.179   6.305  0.5624  0.1959  0.6764
 2289TIP3    H128282   0.406   4.201   6.313  0.2981  1.9193 -0.5156
 2289TIP3    H228283   0.270   4.262   6.286 -1.1408 -0.6942  0.4318
 2290TIP3   OH228284   2.620   0.183   2.725 -0.2948 -0.0197  0.2456
 2290TIP3    H128285   2.614   0.112   2.789 -0.3863  1.0106  1.4119
 2290TIP3    H228286   2.714   0.195   2.711 -0.2576  0.1269  0.6183
 2291TIP3   OH228287   0.063   4.742  16.608 -0.2423  0.1993 -0.9485
 2291TIP3    H128288   0.148   4.785  16.602 -0.5484  0.8460 -0.7868
 2291TIP3    H228289   0.083   4.652  16.634  0.2631  1.1560  2.5407
 2292TIP3   OH228290   2.232   1.448  15.468 -0.0147 -0.1451 -0.6509
 2292TIP3    H128291   2.170   1.448  15.541 -0.9799  1.0553 -1.4279
 2292TIP3    H228292   2.302   1.507  15.495  0.3805 -0.8453 -0.1147
 2293TIP3   OH228293   5.473   0.482  12.225 -0.2047  0.9630 -0.0361
 2293TIP3    H128294   5.395   0.531  12.250 -3.0252 -2.2251 -1.7003
 2293TIP3    H228295   5.474   0.487  12.129  2.6811  2.2036 -0.0433
 2294TIP3   OH228296   3.212   0.051  12.839 -0.0880 -0.2683  0.8569
 2294TIP3    H128297   3.234   0.000  12.760 -1.2296 -1.4096  1.2423
 2294TIP3    H228298   3.297   0.076  12.876  0.4703  0.2753 -0.7034
 2295TIP3   OH228299   3.293   3.363  12.097 -0.5610  0.1239 -0.4744
 2295TIP3    H128300   3.281   3.270  12.076 -1.0640 -0.3079  1.4920
 2295TIP3    H228301   3.204   3.396  12.112 -0.3145  0.6142 -0.0438
 2296TIP3   OH228302   2.381   1.047  15.602  0.5201 -0.0792  0.5086
 2296TIP3    H128303   2.380   0.976  15.666  0.3994 -0.5868 -0.0421
 2296TIP3    H228304   2.290   1.075  15.596  0.1448 -1.4343 -0.9355
 2297TIP3   OH228305   0.919   2.148   3.127 -0.0793  0.1198 -0.1047
 2297TIP3    H128306   0.923   2.055   3.107  0.2224  0.0535  0.2554
 2297TIP3    H228307   0.965   2.190   3.054  1.6830 -0.1723  0.7810
 2298TIP3   OH228308   0.202   0.924   3.315  0.4366  0.3328  0.5882
 2298TIP3    H128309   0.226   0.852   3.373  0.6608 -0.2019 -0.1453
 2298TIP3    H228310   0.120   0.957   3.351 -0.3748 -1.1577  0.1958
 2299TIP3   OH228311   1.328   6.749   2.615  0.1241  0.0595  0.3382
 2299TIP3    H128312   1.345   6.747   2.709 -0.1444 -0.7701  0.3736
 2299TIP3    H228313   1.264   6.680   2.600  1.1498 -0.7250 -0.6403
 2300TIP3   OH228314   6.213   1.441  15.113 -0.3336  0.3315  0.0975
 2300TIP3    H128315   6.135   1.429  15.167 -0.5994 -0.8469 -0.5137
 2300TIP3    H228316   6.192   1.515  15.057  0.0999  1.8486  1.8305
 2301TIP3   OH228317   2.942   5.837   2.137 -0.8540 -0.2349  0.1341
 2301TIP3    H128318   2.988   5.807   2.058 -1.2524  0.3353 -0.3166
 2301TIP3    H228319   2.917   5.756   2.182 -1.0903 -0.5692 -0.5906
 2302TIP3   OH228320   2.806   2.907  14.264 -0.6080 -0.0789 -0.1995
 2302TIP3    H128321   2.890   2.945  14.237 -0.2412 -0.6098  0.1890
 2302TIP3    H228322   2.792   2.940  14.353 -0.0007 -1.3103  0.3659
 2303TIP3   OH228323   4.798   5.307  16.822 -0.6155 -0.1347  0.1150
 2303TIP3    H128324   4.874   5.346  16.778 -1.5737  0.8605 -0.7191
 2303TIP3    H228325   4.826   5.218  16.844  0.8624  0.2755  0.0429
 2304TIP3   OH228326   1.821   1.298   3.464  0.3587  0.1630 -0.2458
 2304TIP3    H128327   1.739   1.250   3.474  0.3045  0.3668  0.3574
 2304TIP3    H228328   1.884   1.250   3.519  0.0460  1.3501  1.2371
 2305TIP3   OH228329   3.290   5.396   6.388  0.2287  0.2054  0.0188
 2305TIP3    H128330   3.295   5.489   6.412 -0.6790  0.1093  0.6162
 2305TIP3    H228331   3.310   5.394   6.294  1.2470  0.8826  0.1993
 2306TIP3   OH228332   1.963   0.062   0.131  0.1497  0.1921  0.0519
 2306TIP3    H128333   1.931   0.061   0.041 -1.4554  1.1867  0.5688
 2306TIP3    H228334   2.026   0.134   0.132 -0.7701  1.0282 -0.0127
 2307TIP3   OH228335   4.403   3.276  11.711 -0.1977 -0.6646  0.0833
 2307TIP3    H128336   4.307   3.279  11.706 -0.2448 -2.6177 -1.4506
 2307TIP3    H228337   4.432   3.355  11.667 -1.0823  0.4191  1.3649
 2308TIP3   OH228338   6.535   4.806  16.979  0.3068  0.5810  0.5241
 2308TIP3    H128339   6.607   4.749  17.007  0.5485  0.5824 -0.0845
 2308TIP3    H228340   6.456   4.759  17.006  0.3686 -1.3570 -2.1725
 2309TIP3   OH228341   2.315   6.431   5.936  0.1657 -0.3241  0.0188
 2309TIP3    H128342   2.403   6.410   5.906 -0.1477 -0.5940 -0.7474
 2309TIP3    H228343   2.317   6.417   6.030  1.2360  0.7000  0.1774
 2310TIP3   OH228344   1.699   0.450   0.257  0.0924  0.1254 -0.0247
 2310TIP3    H128345   1.735   0.393   0.190 -0.1356  0.4480 -0.4251
 2310TIP3    H228346   1.766   0.518   0.270  1.1544 -1.1507  1.6911
 2311TIP3   OH228347   4.791   3.931  13.933  0.1925  0.2748 -0.5850
 2311TIP3    H128348   4.731   3.977  13.875  0.0292 -0.1705 -0.7764
 2311TIP3    H228349   4.736   3.896  14.003  0.1599 -0.4455 -0.9553
 2312TIP3   OH228350   4.713   1.099  13.931  0.8469  0.0682 -0.6783
 2312TIP3    H128351   4.751   1.012  13.915  2.6460  0.3247  1.6529
 2312TIP3    H228352   4.620   1.082  13.945  1.1642 -1.5046 -0.2511
 2313TIP3   OH228353   3.733   0.621  13.773 -0.1545 -0.0464  0.0589
 2313TIP3    H128354   3.697   0.673  13.700  0.1962  0.4334  0.2222
 2313TIP3    H228355   3.707   0.531  13.753 -2.1041  0.3583  0.5494
 2314TIP3   OH228356   3.677   0.838   2.097  0.2293 -0.6603  0.2999
 2314TIP3    H128357   3.586   0.849   2.072  0.5359  1.2203 -0.0728
 2314TIP3    H228358   3.695   0.910   2.158  1.5198 -0.8752  0.2084
 2315TIP3   OH228359   2.791   1.360   5.159  0.0240  0.4326  0.4768
 2315TIP3    H128360   2.879   1.321   5.156 -0.5600 -1.0487  1.5283
 2315TIP3    H228361   2.773   1.368   5.253 -0.6382  1.5257  0.2651
 2316TIP3   OH228362   0.258   4.397  17.045  0.6670 -0.0249 -1.0460
 2316TIP3    H128363   0.214   4.458  16.986  1.6743  1.5308 -0.2751
 2316TIP3    H228364   0.350   4.401  17.019  0.8112 -0.9457 -0.7274
 2317TIP3   OH228365   2.884   3.814  14.080 -0.2576 -0.7618 -0.0730
 2317TIP3    H128366   2.890   3.718  14.081 -0.9017 -0.8306 -1.0954
 2317TIP3    H228367   2.830   3.833  14.003  1.3159  0.5011 -0.9371
 2318TIP3   OH228368   4.340   4.263   6.304 -0.1655  0.0975  0.0954
 2318TIP3    H128369   4.315   4.313   6.382 -0.9438  0.8861 -0.6318
 2318TIP3    H228370   4.354   4.330   6.237 -1.1124 -0.6385 -0.8676
 2319TIP3   OH228371   1.759   6.629  13.590  0.1363 -0.5017 -0.3911
 2319TIP3    H128372   1.777   6.543  13.626 -2.7644 -1.7308 -1.5457
 2319TIP3    H228373   1.706   6.673  13.656  0.9192  0.1251 -0.1556
 2320TIP3   OH228374   6.333   3.392  12.880  0.5640  0.7084  0.3854
 2320TIP3    H128375   6.424   3.375  12.901  0.6260  1.0829  0.4276
 2320TIP3    H228376   6.325   3.487  12.883  0.0458  0.6528  0.9196
 2321TIP3   OH228377   3.857   4.621   1.428  0.4027 -0.0819  0.4295
 2321TIP3    H128378   3.820   4.676   1.359  0.1110 -0.1841  0.5057
 2321TIP3    H228379   3.818   4.535   1.414  1.3821 -0.4527 -0.1196
 2322TIP3   OH228380   3.732   1.228   4.162  0.2951  0.3444 -0.0035
 2322TIP3    H128381   3.669   1.295   4.190 -0.3708  0.5467 -1.8142
 2322TIP3    H228382   3.677   1.156   4.131  0.9220  0.5526 -1.6945
 2323TIP3   OH228383   5.883   0.118  11.317  0.1872  0.4361 -0.1657
 2323TIP3    H128384   5.823   0.191  11.305 -0.3010  0.2510  0.9666
 2323TIP3    H228385   5.827   0.041  11.319  0.1866  0.4065  2.6290
 2324TIP3   OH228386   0.792   6.604  14.195  0.1176  0.4436 -0.6092
 2324TIP3    H128387   0.760   6.534  14.138  2.2459 -0.8922 -0.2504
 2324TIP3    H228388   0.756   6.684  14.156 -1.5693 -0.7157 -1.6065
 2325TIP3   OH228389   4.647   4.263   1.304 -0.3580  0.1100 -0.0285
 2325TIP3    H128390   4.670   4.230   1.217 -1.4611  0.6032 -0.5303
 2325TIP3    H228391   4.702   4.213   1.364  0.3141 -0.3473 -0.9947
 2326TIP3   OH228392   2.155   3.077  14.583  0.0313  0.4666  0.2363
 2326TIP3    H128393   2.076   3.130  14.575 -1.8684 -2.3077 -0.8782
 2326TIP3    H228394   2.181   3.057  14.493 -0.2166 -1.6617  0.5920
 2327TIP3   OH228395   5.643   1.859   3.628  0.2401  0.0277  0.0857
 2327TIP3    H128396   5.587   1.917   3.576  0.3766 -0.3603 -0.4987
 2327TIP3    H228397   5.732   1.890   3.611  0.3644 -0.7586 -0.7462
 2328TIP3   OH228398   4.844   1.936  13.859  0.2236 -1.3778 -0.3210
 2328TIP3    H128399   4.768   1.932  13.918  1.0099  0.3399  0.9002
 2328TIP3    H228400   4.810   1.907  13.774 -2.0996  0.2345 -0.0549
 2329TIP3   OH228401   1.866   0.848   2.795 -0.0799  0.7990  0.1779
 2329TIP3    H128402   1.890   0.825   2.705 -0.3834  0.7124  0.1192
 2329TIP3    H228403   1.809   0.777   2.823 -1.3858  1.6901 -0.1473
 2330TIP3   OH228404   0.812   2.316  16.090 -0.5366 -0.1790 -0.5725
 2330TIP3    H128405   0.859   2.311  16.173 -1.1067 -0.7406 -0.2701
 2330TIP3    H228406   0.725   2.281  16.110 -0.8270  0.1056 -1.3010
 2331TIP3   OH228407   1.411   0.003  16.253 -0.5563  0.2941  0.4290
 2331TIP3    H128408   1.360   0.029  16.330 -1.0700 -1.4551  0.7075
 2331TIP3    H228409   1.395  -0.090  16.243  2.7114 -0.4083  0.6175
 2332TIP3   OH228410   6.233   1.978   3.996 -0.0046  0.9637  0.0423
 2332TIP3    H128411   6.306   2.040   4.005  0.9509 -0.1657  0.2265
 2332TIP3    H228412   6.158   2.033   3.972  0.6317  2.2942  0.9778
 2333TIP3   OH228413   4.596   0.521   3.538 -0.0279 -0.1605  0.0478
 2333TIP3    H128414   4.544   0.597   3.515  0.0570 -0.4872 -1.3008
 2333TIP3    H228415   4.684   0.541   3.506 -0.6161 -1.9808 -3.1510
 2334TIP3   OH228416   4.075   4.181   3.224  0.4219 -0.2646  0.2892
 2334TIP3    H128417   4.133   4.107   3.209  1.0923  0.3271 -0.1496
 2334TIP3    H228418   4.000   4.165   3.166 -0.7151 -1.8985  2.1119
 2335TIP3   OH228419   4.560   1.713   3.290 -0.7869  0.0382  0.5011
 2335TIP3    H128420   4.580   1.698   3.383 -0.6679 -3.0425  0.0831
 2335TIP3    H228421   4.631   1.668   3.243 -0.7658  1.6612 -1.1381
 2336TIP3   OH228422   4.508   0.482   6.212 -0.3265 -0.2099 -0.4983
 2336TIP3    H128423   4.488   0.550   6.276  0.2353  0.4471 -1.0086
 2336TIP3    H228424   4.549   0.412   6.263 -0.1820  0.1695 -0.0914
 2337TIP3   OH228425   0.709   3.729   2.916 -0.7658  0.1318  0.0432
 2337TIP3    H128426   0.672   3.667   2.853 -0.3823 -1.5819  1.3948
 2337TIP3    H228427   0.788   3.762   2.874 -1.4676  0.4128 -1.0788
 2338TIP3   OH228428   0.704   1.728   3.661  0.4167 -0.1083 -0.4769
 2338TIP3    H128429   0.654   1.737   3.580  1.8579  0.0392 -1.3942
 2338TIP3    H228430   0.695   1.636   3.685 -0.4045 -0.0466 -0.5362
 2339TIP3   OH228431   5.783   1.847  12.269  0.1821  0.1955  0.4155
 2339TIP3    H128432   5.783   1.868  12.176 -0.1529 -1.5552 -0.0140
 2339TIP3    H228433   5.857   1.787  12.280  0.1411  0.2856  1.2574
 2340TIP3   OH228434   1.021   0.543   2.046  0.0827 -0.0272  0.1877
 2340TIP3    H128435   0.998   0.475   1.982 -1.0625  0.9180 -0.4569
 2340TIP3    H228436   0.951   0.539   2.111  2.1763 -2.2276  2.5236
 2341TIP3   OH228437   1.263   2.162  11.507  0.0254  0.2642  0.4760
 2341TIP3    H128438   1.254   2.134  11.598  0.2559 -1.1236  0.0945
 2341TIP3    H228439   1.350   2.200  11.502  0.6485 -1.1199  0.4839
 2342TIP3   OH228440   4.397   0.809  15.869 -0.6210  0.0022  0.4973
 2342TIP3    H128441   4.301   0.801  15.869 -0.6468  0.2660  1.1425
 2342TIP3    H228442   4.417   0.856  15.950  0.0675 -0.1695  0.4309
 2343TIP3   OH228443   0.216   6.681  12.882  0.2521 -0.3558 -0.0279
 2343TIP3    H128444   0.210   6.752  12.946 -1.7506 -1.6977  1.4290
 2343TIP3    H228445   0.253   6.608  12.931 -1.5026 -1.4746 -0.2861
 2344TIP3   OH228446   1.584   3.037   1.552  0.0839  0.0093 -0.1498
 2344TIP3    H128447   1.546   3.115   1.513 -1.4295 -1.0198 -0.8290
 2344TIP3    H228448   1.621   2.988   1.478  1.2678  0.1876  0.2981
 2345TIP3   OH228449   2.892   5.756  15.611 -0.5238  0.0323 -0.4615
 2345TIP3    H128450   2.866   5.745  15.702  2.5362  1.8619  0.7894
 2345TIP3    H228451   2.894   5.851  15.598 -0.4757 -0.1886 -2.3045
 2346TIP3   OH228452   2.004   4.751  11.773  0.1907 -0.2207  0.1667
 2346TIP3    H128453   1.972   4.750  11.683 -1.6095 -0.6765  0.7805
 2346TIP3    H228454   2.048   4.666  11.784  0.7300 -0.0199 -0.3683
 2347TIP3   OH228455   4.916   6.660  12.674 -0.1871  0.2365 -0.3279
 2347TIP3    H128456   4.844   6.672  12.612  1.6628 -0.2030 -2.6788
 2347TIP3    H228457   4.951   6.573  12.654 -0.2373 -0.4791  2.2241
 2348TIP3   OH228458   4.789   1.871  13.589 -0.3545 -0.4159  0.4202
 2348TIP3    H128459   4.875   1.851  13.551 -0.0292 -0.9040  1.3620
 2348TIP3    H228460   4.739   1.907  13.517  0.5335 -0.4520 -0.2404
 2349TIP3   OH228461   0.973   6.392   1.003  0.1441  0.9789 -0.2269
 2349TIP3    H128462   1.038   6.355   0.943 -1.0127 -0.3274 -0.7284
 2349TIP3    H228463   0.972   6.331   1.077 -0.2755  1.1699 -0.0746
 2350TIP3   OH228464   1.324   0.850   0.313  0.1353 -0.6769 -0.2031
 2350TIP3    H128465   1.253   0.878   0.371  1.1972  0.6050  0.5417
 2350TIP3    H228466   1.385   0.805   0.372  1.0174  0.2549 -0.3795
 2351TIP3   OH228467   5.595   0.527   0.363 -0.1748 -0.3923 -0.1663
 2351TIP3    H128468   5.666   0.578   0.325 -0.3569  1.2776  1.6378
 2351TIP3    H228469   5.631   0.439   0.371  1.8290  0.4771  1.0128
 2352TIP3   OH228470   5.542   2.404   5.447 -0.1179  0.4948  0.1352
 2352TIP3    H128471   5.617   2.431   5.394  0.6770 -0.7108  0.6119
 2352TIP3    H228472   5.473   2.387   5.384  0.6431 -0.3621 -0.4828
 2353TIP3   OH228473   4.576   1.609  16.449  0.1076 -0.6221 -0.3921
 2353TIP3    H128474   4.519   1.552  16.501 -0.5955 -0.3169 -0.8257
 2353TIP3    H228475   4.558   1.697  16.481 -0.6076 -0.3899 -1.4050
 2354TIP3   OH228476   2.256   1.131   3.081  0.0685  0.1094 -0.0365
 2354TIP3    H128477   2.214   1.111   2.998  0.1282  0.5309 -0.1699
 2354TIP3    H228478   2.197   1.094   3.147 -1.1156  1.6425 -0.1560
 2355TIP3   OH228479   4.604   6.349   2.600 -0.1657  0.6648  0.1553
 2355TIP3    H128480   4.527   6.373   2.651 -0.2760 -1.7484  1.2547
 2355TIP3    H228481   4.574   6.279   2.543  1.1068  0.0081  0.2640
 2356TIP3   OH228482   2.463   0.308  15.123  0.2851  0.0825  0.0609
 2356TIP3    H128483   2.423   0.384  15.080 -2.4657 -1.3981 -0.2164
 2356TIP3    H228484   2.504   0.344  15.201  0.9735  2.1343 -1.1757
 2357TIP3   OH228485   0.120   2.854   5.974  0.4694  0.0060 -0.0669
 2357TIP3    H128486   0.122   2.772   6.023 -1.2446 -0.0512 -0.0379
 2357TIP3    H228487   0.045   2.902   6.011  0.5985  0.9767 -1.0313
 2358TIP3   OH228488   5.143   4.042  15.040 -0.2996 -0.1386 -0.3249
 2358TIP3    H128489   5.168   4.133  15.021  0.9099 -0.3157  0.3275
 2358TIP3    H228490   5.125   4.004  14.955 -0.3425  0.5834 -0.6477
 2359TIP3   OH228491   0.485   2.018   3.356 -0.6672  0.3514 -0.1852
 2359TIP3    H128492   0.480   2.059   3.269 -0.7081 -2.3425 -1.5501
 2359TIP3    H228493   0.570   2.046   3.390 -1.1322  2.3625 -0.5777
 2360TIP3   OH228494   5.430   2.678   3.768 -0.0446  0.4499 -0.1745
 2360TIP3    H128495   5.493   2.620   3.725 -1.8866 -2.0151  0.2287
 2360TIP3    H228496   5.438   2.761   3.721  3.4838  0.3352 -0.0821
 2361TIP3   OH228497   2.397   0.793  11.919  0.4300 -0.2418 -0.6711
 2361TIP3    H128498   2.487   0.792  11.952  0.4618 -2.6502 -0.6574
 2361TIP3    H228499   2.342   0.791  11.997  0.3130  1.5347 -0.6709
 2362TIP3   OH228500   3.354   3.796   3.568 -0.1064 -0.2850  0.7072
 2362TIP3    H128501   3.448   3.811   3.554 -0.2183 -0.6753 -0.4884
 2362TIP3    H228502   3.318   3.884   3.577  0.2116 -0.0797  0.0533
 2363TIP3   OH228503   5.783   4.995  14.046  0.1138 -0.1200  0.0774
 2363TIP3    H128504   5.797   5.011  13.953 -2.2957  2.2970 -0.0055
 2363TIP3    H228505   5.822   4.909  14.062  0.7640 -0.5388 -3.0907
 2364TIP3   OH228506   5.744   3.857   4.199 -0.0311  0.0766 -0.1281
 2364TIP3    H128507   5.730   3.920   4.128 -0.6041  0.1545  0.0474
 2364TIP3    H228508   5.834   3.827   4.187  0.2216  0.8696 -0.2624
 2365TIP3   OH228509   2.661   5.672   1.966 -0.2324  0.3484  0.0231
 2365TIP3    H128510   2.631   5.714   2.047 -0.2530  0.6890 -0.1564
 2365TIP3    H228511   2.583   5.631   1.930 -0.1741  0.0008  0.2925
 2366TIP3   OH228512   2.516   0.955   4.444 -0.7720 -0.7689 -0.2711
 2366TIP3    H128513   2.452   0.901   4.399 -0.1266 -1.8173  0.0369
 2366TIP3    H228514   2.586   0.968   4.380 -0.2221 -1.5898  0.1567
 2367TIP3   OH228515   4.230   2.555  12.797  0.4156 -0.0158  0.1975
 2367TIP3    H128516   4.195   2.524  12.880  1.3882  0.5341  0.8315
 2367TIP3    H228517   4.316   2.512  12.790 -0.1700 -1.0536 -1.1448
 2368TIP3   OH228518   5.722   6.105   0.393 -0.2314  0.4523  0.2377
 2368TIP3    H128519   5.697   6.054   0.317 -1.7686  0.7043  0.5543
 2368TIP3    H228520   5.809   6.141   0.371  1.1146 -2.5792  0.1775
 2369TIP3   OH228521   2.079   0.276   1.151 -0.5127 -0.3019  0.4909
 2369TIP3    H128522   2.059   0.212   1.083 -0.3929  0.8001 -0.6264
 2369TIP3    H228523   2.173   0.263   1.168 -0.1970  0.3686 -0.6229
 2370TIP3   OH228524   1.062   4.380  12.647 -0.0981 -0.9458  0.6412
 2370TIP3    H128525   1.153   4.376  12.619  0.0930 -1.2215  1.2989
 2370TIP3    H228526   1.012   4.390  12.565  0.6107  0.8588  0.3830
 2371TIP3   OH228527   5.023   3.928   1.344 -0.6573 -0.0165 -0.4921
 2371TIP3    H128528   5.096   3.986   1.368 -0.1675  0.5992 -3.1403
 2371TIP3    H228529   5.066   3.846   1.322 -0.8412  0.1100 -1.3233
 2372TIP3   OH228530   4.001   0.418   5.093 -0.1213 -0.3214  0.2048
 2372TIP3    H128531   3.953   0.444   5.172  0.1171  0.1030  0.2070
 2372TIP3    H228532   4.087   0.459   5.101 -0.8334  1.6196 -1.3532
 2373TIP3   OH228533   6.234   4.326  11.194  0.0468  0.0782  0.5537
 2373TIP3    H128534   6.270   4.346  11.108 -2.0688 -0.1960 -0.4527
 2373TIP3    H228535   6.257   4.234  11.209  0.8180  0.2551  0.5202
 2374TIP3   OH228536   4.951   0.966   1.604  0.1960  0.4656 -0.0049
 2374TIP3    H128537   5.034   0.975   1.558 -0.0122 -0.0649 -0.4957
 2374TIP3    H228538   4.938   1.050   1.647  1.4731  0.2170  0.9021
 2375TIP3   OH228539   3.757   1.130   6.398  0.0146  0.0295  0.1463
 2375TIP3    H128540   3.831   1.129   6.458  0.8254 -0.4405 -0.8519
 2375TIP3    H228541   3.719   1.217   6.409  0.8619  0.3633  0.4771
 2376TIP3   OH228542   4.684   0.959  16.825  1.0326  0.0869  0.0500
 2376TIP3    H128543   4.705   1.045  16.861  0.4839  0.6573 -0.9727
 2376TIP3    H228544   4.710   0.964  16.733 -0.0514 -0.4695 -0.2948
 2377TIP3   OH228545   3.271   5.300   4.732 -0.1734 -0.3775  0.3327
 2377TIP3    H128546   3.205   5.293   4.662 -0.3330 -1.7940  0.5985
 2377TIP3    H228547   3.300   5.391   4.727 -1.0358 -0.1262 -0.8040
 2378TIP3   OH228548   5.211   4.299   4.303  0.3679 -0.6078  0.2251
 2378TIP3    H128549   5.257   4.237   4.246 -2.5167 -0.7286 -2.2739
 2378TIP3    H228550   5.145   4.245   4.348 -0.8360  0.2755 -0.4218
 2379TIP3   OH228551   1.852   1.770  15.804  0.2854 -0.3678  0.0024
 2379TIP3    H128552   1.948   1.766  15.797  0.6026  0.9763  2.4723
 2379TIP3    H228553   1.832   1.718  15.881 -1.3879 -3.1233 -2.1063
 2380TIP3   OH228554   3.503   1.951   3.889 -0.4512 -0.0801  0.0254
 2380TIP3    H128555   3.447   1.953   3.967  0.6195  0.0046  0.8147
 2380TIP3    H228556   3.520   1.858   3.874  0.0923 -0.0549  0.4568
 2381TIP3   OH228557   2.370   1.767  12.387 -0.0523 -0.4568  0.6174
 2381TIP3    H128558   2.397   1.851  12.350 -0.2130 -0.1890  1.0967
 2381TIP3    H228559   2.361   1.784  12.481 -2.3830 -0.3855  0.4402
 2382TIP3   OH228560   5.010   3.171  15.106  0.0359 -0.5449  0.0004
 2382TIP3    H128561   4.916   3.158  15.101 -0.2852  1.2528  0.4915
 2382TIP3    H228562   5.035   3.136  15.192 -0.4343  0.1681  0.4387
 2383TIP3   OH228563   4.390   0.514  16.150 -0.3291 -0.2783 -0.4985
 2383TIP3    H128564   4.430   0.497  16.065 -1.8632 -0.5748 -1.1907
 2383TIP3    H228565   4.397   0.431  16.197 -2.1258 -1.0283 -1.4819
 2384TIP3   OH228566   0.647   2.198   4.195 -0.2237  0.0011  0.0736
 2384TIP3    H128567   0.578   2.250   4.153 -0.0234  0.3517  0.1777
 2384TIP3    H228568   0.728   2.228   4.154 -0.0569  0.1262  0.4920
 2385TIP3   OH228569   3.893   6.138  15.705  0.0191 -0.0883  0.1238
 2385TIP3    H128570   3.920   6.161  15.616  2.2911 -0.7051  0.5762
 2385TIP3    H228571   3.862   6.047  15.697 -0.2583  0.0247 -0.1142
 2386TIP3   OH228572   3.196   6.461  13.259 -0.4794 -0.5848  0.5248
 2386TIP3    H128573   3.279   6.438  13.300  0.7649  1.7445 -0.5152
 2386TIP3    H228574   3.151   6.377  13.248  0.8179 -1.6942  2.9431
 2387TIP3   OH228575   0.983   5.551   6.036  0.0555 -0.1896 -0.7039
 2387TIP3    H128576   0.902   5.597   6.059 -0.7957 -1.7985 -0.3496
 2387TIP3    H228577   0.972   5.528   5.944  0.5252  0.3739 -0.9096
 2388TIP3   OH228578   2.643   4.896  17.055  0.1571  0.2131 -0.5139
 2388TIP3    H128579   2.660   4.823  17.115 -1.5736  0.0877 -0.1217
 2388TIP3    H228580   2.669   4.974  17.104  0.8177 -0.0384 -0.4509
 2389TIP3   OH228581   5.477   1.566  17.154  0.1064 -0.4517  0.1301
 2389TIP3    H128582   5.481   1.609  17.239  3.6448 -0.8033  0.2834
 2389TIP3    H228583   5.550   1.604  17.104 -0.9047 -1.3637 -2.2114
 2390TIP3   OH228584   5.923   1.419  10.964 -0.4022  0.0262  0.2053
 2390TIP3    H128585   5.864   1.345  10.979  0.9947 -2.0613 -3.2161
 2390TIP3    H228586   5.865   1.492  10.943 -1.7891 -0.6258  1.5702
 2391TIP3   OH228587   1.143   0.002   3.552  0.0064  0.2106  0.1467
 2391TIP3    H128588   1.203   0.042   3.616  1.5385 -0.9561 -0.5130
 2391TIP3    H228589   1.058   0.005   3.595  0.6738  1.0911  1.4958
 2392TIP3   OH228590   2.440   3.587   3.071  0.1643 -0.7657 -0.7622
 2392TIP3    H128591   2.357   3.594   3.118  1.8996 -1.5491  2.7099
 2392TIP3    H228592   2.463   3.677   3.049 -0.8408 -0.3935 -0.3480
 2393TIP3   OH228593   5.760   0.459  14.099  0.0048  0.1242  0.0970
 2393TIP3    H128594   5.671   0.428  14.083  0.0954 -0.1416  0.1063
 2393TIP3    H228595   5.782   0.425  14.186  0.8904 -1.6396 -0.7543
 2394TIP3   OH228596   2.902   6.208   4.331 -0.6557 -0.0025 -0.1558
 2394TIP3    H128597   2.854   6.139   4.377 -1.0244 -0.3659 -1.0525
 2394TIP3    H228598   2.951   6.253   4.399 -0.1102 -1.4026  0.4220
 2395TIP3   OH228599   3.326   0.050   0.460 -0.2823  0.2100  0.7516
 2395TIP3    H128600   3.405   0.023   0.506 -0.1175  1.1805  1.0695
 2395TIP3    H228601   3.320   0.144   0.476 -0.5527  0.4708 -0.7202
 2396TIP3   OH228602   3.944   3.433  14.251 -0.0307 -0.1146  0.4389
 2396TIP3    H128603   3.870   3.395  14.203 -0.2151 -0.0101  0.6405
 2396TIP3    H228604   3.990   3.486  14.186 -1.1111  1.2141  0.7170
 2397TIP3   OH228605   4.086   3.055  13.570  0.8741  0.3954 -0.1143
 2397TIP3    H128606   3.997   3.022  13.580  0.9009  0.5549  0.6845
 2397TIP3    H228607   4.077   3.133  13.515  0.4922  0.5725  0.2050
 2398TIP3   OH228608   0.177   5.506   4.051 -0.2311 -0.1002  0.5138
 2398TIP3    H128609   0.198   5.526   4.143 -0.8373 -2.4279  1.2237
 2398TIP3    H228610   0.088   5.539   4.040 -0.3648 -0.3010  0.9451
 2399TIP3   OH228611   0.056   6.565  12.673 -0.0448 -0.0220  0.2532
 2399TIP3    H128612   0.118   6.626  12.714 -0.2885 -0.5510  1.4591
 2399TIP3    H228613   0.089   6.555  12.584 -0.7804  2.9275 -0.4656
 2400TIP3   OH228614   6.574   5.801  14.634  0.2534 -0.9756 -0.3104
 2400TIP3    H128615   6.658   5.777  14.593  1.2149  1.1469  0.2961
 2400TIP3    H228616   6.541   5.873  14.582  1.5258  1.8310  2.4641
 2401TIP3   OH228617   1.614   0.833   2.329 -0.0608  0.0576 -0.3626
 2401TIP3    H128618   1.551   0.771   2.293 -0.8305  1.3267 -1.2950
 2401TIP3    H228619   1.608   0.910   2.272  3.0928 -0.1139 -1.1195
 2402TIP3   OH228620   3.705   4.718   4.024  0.2656  0.1889  0.0578
 2402TIP3    H128621   3.626   4.768   4.006 -0.8272 -1.1118  1.0547
 2402TIP3    H228622   3.729   4.742   4.114  0.4530 -0.1346  0.0976
 2403TIP3   OH228623   1.416   5.620   1.578 -0.2222  1.0361 -0.2014
 2403TIP3    H128624   1.440   5.595   1.667  0.8112  0.0392 -0.7276
 2403TIP3    H228625   1.320   5.616   1.577 -0.2063 -2.0271  0.0743
 2404TIP3   OH228626   0.565   2.118   3.062 -0.3704  0.7556 -0.0121
 2404TIP3    H128627   0.566   2.177   2.987 -1.4922  1.7571  0.7096
 2404TIP3    H228628   0.640   2.060   3.049 -0.5978  0.8290 -1.9454
 2405TIP3   OH228629   0.115   3.370  11.287  0.0528 -0.0314 -0.6306
 2405TIP3    H128630   0.192   3.418  11.317  0.6189 -1.3012 -0.0023
 2405TIP3    H228631   0.062   3.436  11.242  0.4819  1.3208  0.7823
 2406TIP3   OH228632   5.315   3.159   3.572  0.0582  0.1656 -0.3384
 2406TIP3    H128633   5.240   3.180   3.628 -2.0242 -2.1034 -2.0279
 2406TIP3    H228634   5.300   3.210   3.493 -0.0564 -0.7121 -0.9017
 2407TIP3   OH228635   1.499   1.063  11.192  0.2683  0.2297 -0.7787
 2407TIP3    H128636   1.450   1.094  11.268  0.9680  1.8077 -0.9456
 2407TIP3    H228637   1.578   1.023  11.228 -0.7785 -1.7443 -0.5457
 2408TIP3   OH228638   3.913   1.423   1.280  0.5738  0.0971 -0.0303
 2408TIP3    H128639   3.941   1.486   1.346  0.8860  0.9332 -0.9337
 2408TIP3    H228640   3.981   1.355   1.280  1.7478  1.2354 -1.0221
 2409TIP3   OH228641   0.914   0.829   0.209 -0.2532  0.4676  0.4290
 2409TIP3    H128642   0.951   0.812   0.122 -1.3708  2.0303 -0.4002
 2409TIP3    H228643   0.925   0.747   0.256 -1.8933 -1.3104 -2.0404
 2410TIP3   OH228644   6.302   3.729   2.657  0.1187  1.0229  0.2157
 2410TIP3    H128645   6.370   3.796   2.654  0.7012  0.4027 -1.3876
 2410TIP3    H228646   6.220   3.777   2.665  0.6107  1.8583  0.3068
 2411TIP3   OH228647   3.825   4.032  14.508  0.0137  0.1817 -0.4333
 2411TIP3    H128648   3.763   4.090  14.465 -0.6138 -0.9638 -1.1457
 2411TIP3    H228649   3.893   4.017  14.443  0.7849  1.0104  0.1581
 2412TIP3   OH228650   6.467   3.484   1.844 -0.6214 -0.0156 -1.0771
 2412TIP3    H128651   6.489   3.449   1.758  1.4461  0.0564 -0.6444
 2412TIP3    H228652   6.505   3.421   1.906 -0.2592  0.9757 -0.2597
 2413TIP3   OH228653   6.795   4.219   5.864  0.5222 -0.2089  0.3231
 2413TIP3    H128654   6.867   4.272   5.898  1.3169 -1.2969  0.4189
 2413TIP3    H228655   6.748   4.191   5.943 -0.4759  1.0999  0.2223
 2414TIP3   OH228656   1.945   5.365  13.909  0.0306 -0.5138  0.2333
 2414TIP3    H128657   2.034   5.331  13.914  0.1665 -0.5379 -1.5994
 2414TIP3    H228658   1.889   5.291  13.931  0.4109 -1.1909 -0.9963
 2415TIP3   OH228659   2.660   5.176  11.335 -0.2747 -0.5979 -0.2134
 2415TIP3    H128660   2.601   5.155  11.407 -1.7857 -2.2071 -1.8056
 2415TIP3    H228661   2.646   5.269  11.318 -0.8864 -0.5165  0.6990
 2416TIP3   OH228662   6.136   4.750   1.989  0.3099 -0.2873 -0.0966
 2416TIP3    H128663   6.085   4.740   1.908  0.6296 -2.2438 -0.1184
 2416TIP3    H228664   6.085   4.704   2.055  1.0866 -0.5534  0.3222
 2417TIP3   OH228665   6.149   0.729   1.953 -0.0113  0.5323 -0.4468
 2417TIP3    H128666   6.159   0.759   2.044  0.4116  0.6635 -0.5340
 2417TIP3    H228667   6.232   0.685   1.934 -0.2658  0.1273 -0.6307
 2418TIP3   OH228668   3.793   1.892  12.760 -0.6658  0.1382 -0.9086
 2418TIP3    H128669   3.881   1.870  12.789 -1.2292 -3.3752 -1.4526
 2418TIP3    H228670   3.803   1.917  12.668 -0.2212 -0.0369 -0.9108
 2419TIP3   OH228671   1.645   3.685   2.186 -0.4536  0.0228  0.0773
 2419TIP3    H128672   1.641   3.741   2.263  0.7110 -0.7771  0.7525
 2419TIP3    H228673   1.717   3.624   2.204 -1.7419 -1.7720 -0.5728
 2420TIP3   OH228674   6.227   6.226   2.151 -0.0394 -0.5979  0.4114
 2420TIP3    H128675   6.143   6.271   2.154  0.1092 -0.2936  0.0266
 2420TIP3    H228676   6.208   6.143   2.107  0.1636  0.1624 -1.1779
 2421TIP3   OH228677   1.908   5.656   3.920 -0.0289 -0.2424 -0.2967
 2421TIP3    H128678   1.907   5.610   4.004  1.9831 -0.4076 -0.3126
 2421TIP3    H228679   1.913   5.585   3.855 -1.8610 -0.1284 -0.6136
 2422TIP3   OH228680   5.374   6.394  17.151 -0.4385  0.1612 -0.6264
 2422TIP3    H128681   5.327   6.432  17.225 -2.0111 -0.6723 -1.1549
 2422TIP3    H228682   5.401   6.307  17.181 -0.5813  0.0459 -0.8270
 2423TIP3   OH228683   4.155   4.815   0.282  0.0407  0.6342  0.5285
 2423TIP3    H128684   4.231   4.767   0.314 -0.7222 -1.2521 -0.3897
 2423TIP3    H228685   4.145   4.787   0.191 -1.8466  0.7207  0.6767
 2424TIP3   OH228686   5.760   4.417   0.766  0.4719 -0.3875 -0.7646
 2424TIP3    H128687   5.736   4.456   0.849 -1.3144 -0.7664 -1.0718
 2424TIP3    H228688   5.735   4.481   0.700  2.7059  0.3021 -1.0107
 2425TIP3   OH228689   4.119   5.994  16.225 -0.1494 -0.4206  0.1115
 2425TIP3    H128690   4.061   5.954  16.290 -0.2690  1.3178  1.1243
 2425TIP3    H228691   4.107   5.940  16.147 -0.8319 -1.9119  1.1853
 2426TIP3   OH228692   6.395   0.560   2.448 -0.2357 -0.6580 -0.4636
 2426TIP3    H128693   6.403   0.655   2.457  0.0179 -0.6626 -0.6293
 2426TIP3    H228694   6.430   0.525   2.530 -0.3956 -0.6053 -0.3728
 2427TIP3   OH228695   6.283   2.253  14.764 -0.5624  0.1576 -1.1216
 2427TIP3    H128696   6.202   2.299  14.785 -0.5459 -0.7391  1.2690
 2427TIP3    H228697   6.259   2.190  14.697 -2.1072 -0.7373  0.1955
 2428TIP3   OH228698   5.947   6.239   5.874 -0.9424  0.2274  0.5258
 2428TIP3    H128699   5.860   6.278   5.871 -0.6459  0.8558 -0.0253
 2428TIP3    H228700   6.007   6.313   5.868 -0.3592 -0.1834  1.1006
 2429TIP3   OH228701   1.707   4.128  15.786 -0.4141 -0.2812  0.0791
 2429TIP3    H128702   1.773   4.093  15.725 -1.6579 -0.7175 -1.0868
 2429TIP3    H228703   1.747   4.206  15.823  0.2958  0.1832 -1.5578
 2430TIP3   OH228704   0.684   3.485  12.839  0.2591 -0.2712  0.2663
 2430TIP3    H128705   0.753   3.419  12.850  0.6207 -0.3418 -1.9946
 2430TIP3    H228706   0.726   3.568  12.859  0.8303 -0.3870 -0.4142
 2431TIP3   OH228707   2.578   1.691  11.772 -0.0335 -0.0161 -0.0672
 2431TIP3    H128708   2.499   1.715  11.724 -0.2526  0.7476  0.6529
 2431TIP3    H228709   2.649   1.705  11.710 -0.2171  1.9309  0.1210
 2432TIP3   OH228710   3.113   6.246   6.398 -0.1986 -0.4609 -0.0969
 2432TIP3    H128711   3.163   6.279   6.473  1.1655 -2.2022 -0.1815
 2432TIP3    H228712   3.179   6.219   6.335 -1.3050 -0.8270 -1.1362
 2433TIP3   OH228713   2.032   3.067  14.184 -0.6098  0.6766 -0.0633
 2433TIP3    H128714   2.104   3.117  14.145 -1.3848  1.0751 -1.0347
 2433TIP3    H228715   1.975   3.045  14.110  0.9959 -4.0725 -0.2242
 2434TIP3   OH228716   1.026   0.734  16.168  0.1002 -0.3760  0.0037
 2434TIP3    H128717   1.032   0.655  16.222  0.9770 -1.2264 -1.2852
 2434TIP3    H228718   1.027   0.702  16.078 -1.3068  1.0046 -0.5600
 2435TIP3   OH228719   4.678   2.242   6.160  0.1480  0.0147 -0.3067
 2435TIP3    H128720   4.764   2.230   6.120  1.5000 -1.8846  2.7921
 2435TIP3    H228721   4.671   2.337   6.173  1.0106  0.3614 -2.0094
 2436TIP3   OH228722   3.750   1.874  16.857  0.4247 -0.4395  0.0846
 2436TIP3    H128723   3.674   1.816  16.845  0.2879 -0.2357 -0.0441
 2436TIP3    H228724   3.812   1.846  16.791  0.9275 -1.3543  0.9196
 2437TIP3   OH228725   1.148   4.153   3.144 -0.2098 -0.0487 -0.5927
 2437TIP3    H128726   1.083   4.206   3.097 -1.5407 -2.9815 -2.3614
 2437TIP3    H228727   1.225   4.154   3.088  1.0704  2.6208  1.0299
 2438TIP3   OH228728   0.472   2.218  13.321  0.3979 -0.2174  0.1785
 2438TIP3    H128729   0.490   2.267  13.241 -0.3880  1.5905  1.0627
 2438TIP3    H228730   0.558   2.186  13.350  1.3763  2.7207  0.8461
 2439TIP3   OH228731   2.199   3.516   1.763 -0.5881  0.2892  0.1324
 2439TIP3    H128732   2.254   3.539   1.688 -2.0703  1.8074 -0.5700
 2439TIP3    H228733   2.160   3.599   1.791 -1.3027 -0.4899  1.5875
 2440TIP3   OH228734   0.657   0.881   3.423  0.5239  0.8322  0.1282
 2440TIP3    H128735   0.603   0.822   3.370 -0.4307  0.4495  1.4879
 2440TIP3    H228736   0.725   0.910   3.362  1.1777 -1.8128 -0.5622
 2441TIP3   OH228737   2.155   0.665   4.626 -0.0096 -0.0814 -0.1055
 2441TIP3    H128738   2.244   0.698   4.640 -0.2365  0.2278  0.6044
 2441TIP3    H228739   2.100   0.743   4.630 -0.2928 -0.2417 -0.7831
 2442TIP3   OH228740   0.352   5.064   2.639  0.0558  0.0440 -0.3993
 2442TIP3    H128741   0.413   5.087   2.709 -0.7973  0.0575  0.3546
 2442TIP3    H228742   0.389   4.985   2.600  0.0709 -0.4955  0.6782
 2443TIP3   OH228743   5.446   5.622   0.194 -0.1667 -0.7285  0.0913
 2443TIP3    H128744   5.441   5.556   0.263  0.6490  0.5525  1.4355
 2443TIP3    H228745   5.470   5.703   0.240 -0.2446  0.3089 -1.6169
 2444TIP3   OH228746   5.794   0.976  14.024 -0.0576 -0.2178  0.0573
 2444TIP3    H128747   5.836   1.040  13.967 -2.3358 -0.4115 -2.0102
 2444TIP3    H228748   5.855   0.902  14.026  0.7123  0.3635 -0.9950
 2445TIP3   OH228749   1.845   0.783   3.710  0.7674  0.4297  0.1304
 2445TIP3    H128750   1.893   0.798   3.629  0.1257  0.2664 -0.2898
 2445TIP3    H228751   1.769   0.841   3.705  0.6025  0.2532  0.5038
 2446TIP3   OH228752   0.553   0.691  14.820 -0.0921  0.7866 -0.6161
 2446TIP3    H128753   0.492   0.632  14.775 -2.0086  2.8846 -0.9592
 2446TIP3    H228754   0.608   0.726  14.750  0.8625 -0.3230 -0.4494
 2447TIP3   OH228755   3.162   2.146  12.802 -0.5667 -0.1357 -0.1332
 2447TIP3    H128756   3.089   2.091  12.773 -0.9189 -0.2770  0.9962
 2447TIP3    H228757   3.228   2.083  12.832 -0.5366  0.0325  0.1496
 2448TIP3   OH228758   5.821   0.700   0.257  0.6395  0.1700 -0.5804
 2448TIP3    H128759   5.780   0.702   0.171 -0.3169  0.5005 -0.1342
 2448TIP3    H228760   5.809   0.788   0.292 -1.4455 -0.6402  0.9756
 2449TIP3   OH228761   5.451   4.123  14.181 -0.4835  0.3151  0.0465
 2449TIP3    H128762   5.509   4.166  14.119 -2.1473  1.8699 -0.5255
 2449TIP3    H228763   5.379   4.185  14.194 -1.4466 -1.0321  1.6015
 2450TIP3   OH228764   0.408   3.726   5.683  0.3292 -0.0036 -0.1750
 2450TIP3    H128765   0.332   3.674   5.709  0.3556 -0.9531 -1.8723
 2450TIP3    H228766   0.481   3.665   5.683  1.2483  0.9738  1.7719
 2451TIP3   OH228767   4.923   3.768   1.790  0.4502 -0.3620  0.1608
 2451TIP3    H128768   4.926   3.680   1.829 -0.0376 -0.6510 -0.4214
 2451TIP3    H228769   4.966   3.757   1.705 -0.0205 -0.1492 -0.1069
 2452TIP3   OH228770   5.783   0.715  11.361  0.1788 -0.8155 -0.5622
 2452TIP3    H128771   5.766   0.652  11.291  1.4945  0.6519 -2.3094
 2452TIP3    H228772   5.878   0.724  11.362  0.0243  1.2552 -0.5087
 2453TIP3   OH228773   2.985   0.451   5.816 -0.2297 -0.2931  0.2363
 2453TIP3    H128774   3.014   0.373   5.863  1.2426 -0.7116 -1.2673
 2453TIP3    H228775   2.984   0.425   5.724  0.6712  1.5306 -0.3468
 2454TIP3   OH228776   2.867   0.527   1.350 -0.2132 -0.1185  0.4307
 2454TIP3    H128777   2.925   0.469   1.299  1.5782  2.5424 -0.7890
 2454TIP3    H228778   2.877   0.496   1.440  1.6636 -0.9572 -0.0012
 2455TIP3   OH228779   0.436   4.619  13.218  0.3715 -0.0251  0.2200
 2455TIP3    H128780   0.489   4.692  13.250  0.7978 -0.2645  0.0612
 2455TIP3    H228781   0.370   4.660  13.162  0.5876  0.2419  0.1591
 2456TIP3   OH228782   5.829   2.620  10.647  0.3289 -0.3601 -0.2890
 2456TIP3    H128783   5.740   2.586  10.650 -0.0825  0.6597 -0.5219
 2456TIP3    H228784   5.864   2.604  10.735  0.1869 -1.4387 -0.4145
 2457TIP3   OH228785   1.885   3.900  10.453 -0.0387 -0.5151  0.1088
 2457TIP3    H128786   1.978   3.917  10.436 -0.5786  2.1208 -0.6711
 2457TIP3    H228787   1.884   3.816  10.498  2.6151 -1.2764 -1.0390
 2458TIP3   OH228788   1.147   6.538  15.708 -0.1465  0.7191 -0.2864
 2458TIP3    H128789   1.152   6.632  15.690  0.0685  1.1757  1.8321
 2458TIP3    H228790   1.079   6.530  15.775  1.0366 -0.3759  0.8450
 2459TIP3   OH228791   1.082   1.316  16.643 -0.1955  0.2449  0.5008
 2459TIP3    H128792   1.100   1.405  16.671  0.5173 -0.0404  0.9598
 2459TIP3    H228793   1.042   1.275  16.720 -1.7773  0.5348 -0.1270
 2460TIP3   OH228794   1.365   6.093  15.176 -0.6315 -0.6598  0.7728
 2460TIP3    H128795   1.461   6.092  15.173 -0.3662  2.4648  3.1693
 2460TIP3    H228796   1.339   6.135  15.093  0.2410  0.2077  0.9133
 2461TIP3   OH228797   2.062   5.108  13.640 -0.1467  0.5812 -0.2568
 2461TIP3    H128798   2.150   5.138  13.662  0.1951  0.4220 -1.3815
 2461TIP3    H228799   2.020   5.183  13.598 -0.1565  0.2854 -0.7736
 2462TIP3   OH228800   4.098   0.987  16.293  0.2814 -0.3143  0.1588
 2462TIP3    H128801   4.078   1.077  16.267 -0.3122 -0.2332  0.8577
 2462TIP3    H228802   4.013   0.943  16.294  0.5844 -0.9232 -0.3011
 2463TIP3   OH228803   4.239   6.672  13.192 -0.3127 -0.1801  0.2377
 2463TIP3    H128804   4.314   6.668  13.251 -0.5269  0.7307  0.5952
 2463TIP3    H228805   4.166   6.637  13.243 -0.0267 -1.6761 -0.3266
 2464TIP3   OH228806   6.745   3.888   2.895  0.7256  0.9364 -0.2183
 2464TIP3    H128807   6.676   3.880   2.961 -0.5844 -1.5171 -1.7282
 2464TIP3    H228808   6.817   3.834   2.928 -0.5611 -1.6775 -1.4162
 2465TIP3   OH228809   6.695   6.463  14.763 -0.5589  0.3769  0.3373
 2465TIP3    H128810   6.618   6.454  14.819 -0.0392 -2.4366  0.7326
 2465TIP3    H228811   6.686   6.394  14.698  1.5760 -0.0156  0.3715
 2466TIP3   OH228812   4.469   1.721   0.529 -0.5132  0.5122  0.1143
 2466TIP3    H128813   4.496   1.635   0.495 -2.3535  0.0416 -0.2572
 2466TIP3    H228814   4.531   1.739   0.600  0.5255 -0.6511 -0.4496
 2467TIP3   OH228815   3.097   5.632   0.040  0.2365 -0.5628  0.4625
 2467TIP3    H128816   3.187   5.626   0.006  0.5834  1.2911  0.9419
 2467TIP3    H228817   3.107   5.672   0.127 -1.1054  0.4931  0.1688
 2468TIP3   OH228818   3.611   0.557   1.018 -0.4181 -0.2553 -0.7462
 2468TIP3    H128819   3.598   0.543   1.112 -1.3178  0.5812 -0.7322
 2468TIP3    H228820   3.706   0.551   1.006 -0.1786  0.8735  0.4247
 2469TIP3   OH228821   1.200   2.694   2.660  0.4508  0.3840  0.3008
 2469TIP3    H128822   1.277   2.734   2.620  0.1825 -0.5589 -1.2516
 2469TIP3    H228823   1.143   2.674   2.586 -0.5181 -0.5308  1.2684
 2470TIP3   OH228824   0.741   5.153  14.421 -0.3226 -0.7541 -0.1961
 2470TIP3    H128825   0.767   5.236  14.380  2.7700 -0.8003  1.3891
 2470TIP3    H228826   0.698   5.104  14.351  0.4058  1.0358 -1.9959
 2471TIP3   OH228827   5.449   0.378   4.732  1.0561  0.5249  0.3941
 2471TIP3    H128828   5.499   0.302   4.702  0.3079  0.4057 -0.6082
 2471TIP3    H228829   5.382   0.391   4.664  0.1298  1.0696  1.3791
 2472TIP3   OH228830   5.258   0.223  13.613  0.3700 -0.6588  0.4723
 2472TIP3    H128831   5.170   0.236  13.648 -0.8746 -0.4859 -2.4091
 2472TIP3    H228832   5.247   0.156  13.545  2.3593 -0.2487 -0.3252
 2473TIP3   OH228833   1.236   5.620  14.501 -0.7018 -0.0344  0.1254
 2473TIP3    H128834   1.232   5.573  14.418 -1.2920 -1.1578  0.7717
 2473TIP3    H228835   1.145   5.625  14.531 -0.5393  0.6705  0.5467
 2474TIP3   OH228836   3.759   1.249   4.869 -0.5948 -0.8365 -0.3289
 2474TIP3    H128837   3.693   1.312   4.898 -0.7445 -2.0600  2.2295
 2474TIP3    H228838   3.789   1.283   4.784 -1.6091  1.9153  0.3208
 2475TIP3   OH228839   3.486   0.980  15.549  0.1947 -0.1634  0.0546
 2475TIP3    H128840   3.489   0.934  15.465 -0.4726  1.0771 -0.6843
 2475TIP3    H228841   3.423   1.051  15.535 -0.7426 -0.5790  1.9471
 2476TIP3   OH228842   1.027   1.855   3.095 -0.4304  0.3524  0.5105
 2476TIP3    H128843   1.085   1.823   3.026  0.7296  0.3951  1.4342
 2476TIP3    H228844   0.941   1.863   3.052 -0.6355 -3.1423 -0.0069
 2477TIP3   OH228845   3.623   1.817   1.296 -0.1152  0.3282  0.5027
 2477TIP3    H128846   3.666   1.746   1.249 -1.6030 -0.4675  0.2786
 2477TIP3    H228847   3.655   1.809   1.386 -0.9908 -1.2862  0.7179
 2478TIP3   OH228848   6.248   6.693  13.247 -0.5391 -0.0920 -0.7965
 2478TIP3    H128849   6.224   6.677  13.155  0.0080  0.7272 -1.0989
 2478TIP3    H228850   6.165   6.699  13.293 -0.8364 -0.1030 -1.3180
 2479TIP3   OH228851   5.184   3.917   2.043 -0.0626 -0.3876 -0.1733
 2479TIP3    H128852   5.211   3.899   1.953  1.4063 -0.6916  0.2968
 2479TIP3    H228853   5.266   3.938   2.089 -0.6498 -1.1094  1.2810
 2480TIP3   OH228854   4.361   1.346  14.820  0.3952 -0.2334 -0.3366
 2480TIP3    H128855   4.351   1.433  14.781 -0.5053  0.0314  0.4428
 2480TIP3    H228856   4.274   1.307  14.814  0.5953 -0.7548  0.0711
 2481TIP3   OH228857   1.916   5.727   5.649 -0.0889 -0.4597 -0.4167
 2481TIP3    H128858   1.887   5.773   5.571  1.3025 -2.8873 -2.5110
 2481TIP3    H228859   1.928   5.796   5.715 -0.1529  1.8439 -2.6827
 2482TIP3   OH228860   4.734   2.233   3.338 -0.3036  0.5031 -0.4826
 2482TIP3    H128861   4.737   2.161   3.402  0.7536  0.1613 -0.8879
 2482TIP3    H228862   4.775   2.197   3.259 -1.6136  0.9150 -1.3805
 2483TIP3   OH228863   0.838   2.314   4.577  0.4064  0.1128 -0.1584
 2483TIP3    H128864   0.904   2.296   4.509 -0.9642  0.7228 -1.7082
 2483TIP3    H228865   0.835   2.410   4.582 -0.0313  0.0796  0.2677
 2484TIP3   OH228866   4.260   1.543  11.210 -0.4534  0.4509  0.1478
 2484TIP3    H128867   4.287   1.627  11.174 -1.1227  0.8483  0.5474
 2484TIP3    H228868   4.284   1.479  11.144 -0.5677  1.0379 -0.4666
 2485TIP3   OH228869   4.403   2.037  11.618 -0.4500  0.3560 -0.2029
 2485TIP3    H128870   4.382   2.129  11.629 -1.3353  0.2357 -0.7682
 2485TIP3    H228871   4.367   1.994  11.696  1.1174  0.6317  0.7208
 2486TIP3   OH228872   0.194   5.860  13.668  0.6467 -0.5033 -0.6623
 2486TIP3    H128873   0.130   5.827  13.605 -0.7165 -0.3691  0.5918
 2486TIP3    H228874   0.262   5.793  13.671  0.0868 -1.1223 -1.3083
 2487TIP3   OH228875   1.408   4.021  15.814  0.5992 -0.3705  0.1405
 2487TIP3    H128876   1.388   4.050  15.903 -0.2247  0.4803 -0.3086
 2487TIP3    H228877   1.503   4.033  15.805  1.1334 -2.7086  1.6794
 2488TIP3   OH228878   3.926   3.253  12.168 -0.1049 -0.0448 -0.2394
 2488TIP3    H128879   3.971   3.170  12.184 -0.2060 -0.0926 -0.2007
 2488TIP3    H228880   3.898   3.282  12.255 -0.7774 -0.3722 -0.3368
 2489TIP3   OH228881   4.808   0.994   3.750  0.0679 -0.4936 -0.4284
 2489TIP3    H128882   4.790   0.948   3.833 -0.2939  0.7753  0.2269
 2489TIP3    H228883   4.876   1.057   3.773 -0.1988  0.0234 -1.0545
 2490TIP3   OH228884   3.069   6.600  13.589 -0.1761 -0.2748  0.0680
 2490TIP3    H128885   3.084   6.645  13.506 -1.6824  1.7559  0.8058
 2490TIP3    H228886   3.074   6.670  13.655  3.1683 -2.1248  2.0293
 2491TIP3   OH228887   3.229   6.703  17.046 -0.4464  0.1012  0.6709
 2491TIP3    H128888   3.311   6.749  17.063  0.0629 -0.9964  1.2820
 2491TIP3    H228889   3.171   6.729  17.117 -1.2643  2.2263 -0.6709
 2492TIP3   OH228890   5.070   1.172  13.697  0.2842  0.2138  0.3591
 2492TIP3    H128891   5.142   1.129  13.743  0.2881 -0.9537 -0.6520
 2492TIP3    H228892   5.051   1.250  13.748  0.5426 -0.8015  2.0918
 2493TIP3   OH228893   2.854   5.493   3.862  0.2884 -0.6888  0.0776
 2493TIP3    H128894   2.924   5.557   3.873 -0.6946  0.6687 -1.1802
 2493TIP3    H228895   2.800   5.503   3.940  0.7090 -0.7315  0.3752
 2494TIP3   OH228896   5.007   3.587  16.930 -0.9917 -0.3094  0.2215
 2494TIP3    H128897   5.085   3.541  16.899 -1.0005  0.0985 -0.4063
 2494TIP3    H228898   4.935   3.527  16.911 -1.0412  0.0793 -0.8938
 2495TIP3   OH228899   0.236   4.594  11.675  0.2210  0.1097  0.1325
 2495TIP3    H128900   0.154   4.643  11.681 -0.0655 -0.2235 -0.8805
 2495TIP3    H228901   0.249   4.580  11.581  1.5073  0.2703  0.2577
 2496TIP3   OH228902   3.543   1.442  11.500 -0.1570 -0.3778  0.1333
 2496TIP3    H128903   3.625   1.485  11.523  0.7894 -1.2590 -1.4310
 2496TIP3    H228904   3.483   1.514  11.482  1.1208  0.3482 -1.5170
 2497TIP3   OH228905   4.410   0.410  12.849  0.1195  0.0039  0.3666
 2497TIP3    H128906   4.503   0.417  12.869  0.1346  1.3618 -0.1043
 2497TIP3    H228907   4.367   0.415  12.935  0.4457 -0.0547  0.5370
 2498TIP3   OH228908   5.094   2.830   4.238 -0.3535  0.1777  0.5778
 2498TIP3    H128909   5.124   2.869   4.156  0.4796 -1.7587 -0.0983
 2498TIP3    H228910   5.170   2.784   4.273 -1.3761 -1.2401  1.0520
 2499TIP3   OH228911   6.323   0.136  16.475  0.2487 -0.0637 -0.0825
 2499TIP3    H128912   6.301   0.132  16.382  0.7137  0.0086 -0.1948
 2499TIP3    H228913   6.408   0.093  16.482  0.1967 -0.1073  0.3159
 2500TIP3   OH228914   5.642   4.787   4.183  0.1253  0.2107  0.5653
 2500TIP3    H128915   5.691   4.857   4.140  0.4080  0.3792  1.1517
 2500TIP3    H228916   5.665   4.708   4.133  0.0079  0.4921  0.0641
 2501TIP3   OH228917   1.131   2.817  13.844 -0.2898  0.0739 -0.2820
 2501TIP3    H128918   1.200   2.852  13.788 -0.8592 -0.3367 -1.2658
 2501TIP3    H228919   1.157   2.726  13.860  1.5910  1.0256  2.9071
 2502TIP3   OH228920   2.994   2.268  11.852  0.1228  0.2165  0.3055
 2502TIP3    H128921   2.966   2.342  11.799  1.6038  1.6104  1.3817
 2502TIP3    H228922   3.069   2.232  11.805 -0.5431 -0.6028 -0.1731
 2503TIP3   OH228923   4.140   3.232  10.821  0.2000  0.3742 -0.0178
 2503TIP3    H128924   4.217   3.176  10.830  0.6165  0.9812  0.2693
 2503TIP3    H228925   4.125   3.237  10.727  0.0318 -0.3829 -0.0363
 2504TIP3   OH228926   4.254   0.008   6.418  0.1189 -0.6926  0.0068
 2504TIP3    H128927   4.233  -0.065   6.476  1.0658  0.3191  1.6964
 2504TIP3    H228928   4.181   0.069   6.428  0.1025 -0.6775 -0.1826
 2505TIP3   OH228929   0.861   6.139  12.348 -0.2970  0.5515 -0.0432
 2505TIP3    H128930   0.789   6.172  12.294 -0.7064 -0.5711 -0.2173
 2505TIP3    H228931   0.869   6.202  12.420 -0.2527  1.6569 -0.9878
 2506TIP3   OH228932   3.327   0.285   2.249 -0.5043 -0.1724 -0.5275
 2506TIP3    H128933   3.383   0.328   2.184  0.1635 -1.7082 -1.0053
 2506TIP3    H228934   3.290   0.210   2.202 -2.5279  0.4808 -0.0480
 2507TIP3   OH228935   0.271   2.488  16.162 -0.1469 -0.7029  0.6537
 2507TIP3    H128936   0.243   2.411  16.212 -0.7119 -1.6728 -1.0632
 2507TIP3    H228937   0.358   2.465  16.130  0.3870  0.0819  1.5238
 2508TIP3   OH228938   1.903   3.016  16.261 -0.3742  0.1588 -0.0802
 2508TIP3    H128939   1.840   3.036  16.193 -1.2483  0.1970  0.7227
 2508TIP3    H228940   1.982   3.063  16.235  0.2770 -2.0694 -2.5699
 2509TIP3   OH228941   1.734   4.390   4.795 -0.1988 -0.1093  0.2565
 2509TIP3    H128942   1.762   4.477   4.767  0.8643 -1.0306 -1.7566
 2509TIP3    H228943   1.645   4.381   4.761  0.4891 -0.5975 -1.4997
 2510TIP3   OH228944   1.604   1.331   0.549 -0.3947  0.8058  0.4038
 2510TIP3    H128945   1.648   1.246   0.550 -0.5063  0.7306 -0.5834
 2510TIP3    H228946   1.657   1.386   0.608 -0.3685  0.0380  1.1088
 2511TIP3   OH228947   4.166   0.904  10.622 -0.5058  0.2383 -0.0138
 2511TIP3    H128948   4.152   0.998  10.633 -1.6334  0.0040  0.7059
 2511TIP3    H228949   4.089   0.863  10.662  0.7559 -1.0414  1.2116
 2512TIP3   OH228950   6.786   5.445  12.019  0.4162  0.0510  0.3980
 2512TIP3    H128951   6.706   5.395  12.036  0.5494  0.0775  1.1597
 2512TIP3    H228952   6.785   5.462  11.925 -0.4623  0.0280  0.3971
 2513TIP3   OH228953   4.176   5.673  15.835  0.1357  0.3837 -0.3206
 2513TIP3    H128954   4.259   5.626  15.823 -0.2580 -0.2696 -0.5569
 2513TIP3    H228955   4.160   5.669  15.929 -0.0282 -0.2010 -0.3689
 2514TIP3   OH228956   5.323   4.501   4.108 -0.5326  0.6340  0.1583
 2514TIP3    H128957   5.260   4.571   4.125  0.0643  0.5350  3.3858
 2514TIP3    H228958   5.296   4.430   4.165  0.6538 -0.6369 -0.8035
 2515TIP3   OH228959   4.280   1.279  11.594 -0.2008 -0.5515  0.4142
 2515TIP3    H128960   4.216   1.212  11.574  0.8519 -0.7683 -2.8054
 2515TIP3    H228961   4.337   1.282  11.516  1.6966  1.8693  1.7481
 2516TIP3   OH228962   0.605   1.913  13.909 -0.0650 -0.4439  0.6331
 2516TIP3    H128963   0.618   2.007  13.902  1.1113 -0.6451 -0.1127
 2516TIP3    H228964   0.674   1.875  13.855 -1.2301 -1.7109 -0.0205
 2517TIP3   OH228965   4.461   4.304  12.592  1.0275 -0.1013 -0.9025
 2517TIP3    H128966   4.539   4.255  12.618  0.1891 -1.4064 -0.7654
 2517TIP3    H228967   4.391   4.267  12.646  0.8448  3.4224  1.5985
 2518TIP3   OH228968   0.416   2.262   0.128  0.1960  0.0396 -0.2292
 2518TIP3    H128969   0.387   2.261   0.219 -0.5961  0.6352 -0.4671
 2518TIP3    H228970   0.434   2.170   0.107  1.0267 -0.0284  0.7230
 2519TIP3   OH228971   4.456   5.457  15.011  0.2157 -0.1962 -0.5040
 2519TIP3    H128972   4.480   5.546  15.035  0.4293 -0.3169 -0.2676
 2519TIP3    H228973   4.423   5.418  15.091  1.1277 -0.6640 -0.3380
 2520TIP3   OH228974   0.281   5.703  14.992  0.6023  0.4787  0.4561
 2520TIP3    H128975   0.285   5.652  14.911  2.4764  1.0106  0.1883
 2520TIP3    H228976   0.368   5.742  15.002 -0.0035  1.5729  1.9942
 2521TIP3   OH228977   2.830   1.029   3.996 -0.5209 -0.4296  0.0254
 2521TIP3    H128978   2.772   1.104   4.006  0.4020  0.3294 -0.2242
 2521TIP3    H228979   2.881   1.027   4.076 -0.0541 -0.3614 -0.2663
 2522TIP3   OH228980   3.410   6.263   4.015 -0.6539 -0.0330 -0.5670
 2522TIP3    H128981   3.380   6.342   4.061  1.2997  1.0609 -1.0581
 2522TIP3    H228982   3.477   6.295   3.955  0.7773 -2.1769 -0.1925
 2523TIP3   OH228983   3.655   4.308   5.352  0.2661 -0.0858  0.4698
 2523TIP3    H128984   3.716   4.235   5.359  0.5809  0.2266  0.9917
 2523TIP3    H228985   3.698   4.370   5.293 -1.4301 -1.7424 -2.8169
 2524TIP3   OH228986   6.067   6.501   5.254 -0.0014 -0.0660  0.2321
 2524TIP3    H128987   5.999   6.540   5.309 -0.5659  0.6947 -0.9664
 2524TIP3    H228988   6.044   6.408   5.250 -1.8284  0.3919 -1.2793
 2525TIP3   OH228989   3.032   5.874   3.548 -0.5267 -0.2840  0.7064
 2525TIP3    H128990   3.078   5.797   3.582 -1.2442 -0.7481  0.6531
 2525TIP3    H228991   2.939   5.849   3.548 -0.9134  0.9908  1.7839
 2526TIP3   OH228992   1.027   0.382  11.108  0.5790  0.6756 -0.3834
 2526TIP3    H128993   1.099   0.346  11.056 -0.3001  1.7517 -2.4690
 2526TIP3    H228994   0.951   0.331  11.081 -0.2419  2.4667 -1.6524
 2527TIP3   OH228995   5.211   0.655  16.117  0.1290 -0.1154  0.1941
 2527TIP3    H128996   5.175   0.648  16.029  1.3988  1.2986 -0.4826
 2527TIP3    H228997   5.206   0.566  16.152 -0.5577 -0.6710 -1.2327
 2528TIP3   OH228998   0.033   0.193  13.801  0.3919 -0.1653 -0.0677
 2528TIP3    H128999   0.027   0.104  13.835 -0.3954 -0.7882 -1.7079
 2528TIP3    H229000   0.124   0.201  13.773  0.4066 -0.5531 -0.1443
 2529TIP3   OH229001   5.043   1.252   1.494  0.1197  0.0218  0.0036
 2529TIP3    H129002   5.098   1.294   1.428  0.0608  0.0389 -0.0343
 2529TIP3    H229003   5.105   1.199   1.545 -0.1868 -2.1666 -1.7475
 2530TIP3   OH229004   4.810   4.156   4.611 -0.3098  0.1056  0.0381
 2530TIP3    H129005   4.757   4.234   4.624 -0.6710 -0.0839 -0.2883
 2530TIP3    H229006   4.779   4.094   4.677 -0.1754  0.1631  0.1540
 2531TIP3   OH229007   6.081   1.035  17.091 -0.0577 -0.2872  0.2736
 2531TIP3    H129008   6.106   0.946  17.115  0.2572 -0.1023  0.6357
 2531TIP3    H229009   6.038   1.026  17.005 -0.9771 -0.9237  0.7853
 2532TIP3   OH229010   6.377   2.489   5.599  0.4403 -0.4638  0.1374
 2532TIP3    H129011   6.452   2.466   5.544 -2.0543 -2.2606 -2.8666
 2532TIP3    H229012   6.336   2.563   5.554 -1.0072 -1.2156  0.1706
 2533TIP3   OH229013   0.947   3.124  16.552  0.6705 -0.4031 -0.1427
 2533TIP3    H129014   0.902   3.162  16.626  0.7660 -1.9992  0.7809
 2533TIP3    H229015   0.908   3.167  16.475 -1.0388 -0.3632  0.7094
 2534TIP3   OH229016   0.036   3.852  12.911  0.1440 -0.6883  0.2723
 2534TIP3    H129017   0.105   3.919  12.917  1.8331 -2.3746  0.7074
 2534TIP3    H229018  -0.043   3.896  12.943  1.0961  1.1965  0.1689
 2535TIP3   OH229019   5.878   4.207  16.396  0.3687 -0.2731 -0.1258
 2535TIP3    H129020   5.895   4.197  16.303  0.2977  2.3474 -0.4999
 2535TIP3    H229021   5.785   4.185  16.407  0.2128  0.0508 -0.7890
 2536TIP3   OH229022   4.754   0.589  15.824 -0.1422  0.3642  0.3000
 2536TIP3    H129023   4.802   0.636  15.892 -1.6179 -0.6575  2.1635
 2536TIP3    H229024   4.702   0.657  15.780 -1.7008  0.6974  2.4767
 2537TIP3   OH229025   0.022   0.104  15.333  0.0465 -0.1636 -0.0586
 2537TIP3    H129026   0.017   0.009  15.344 -1.9492 -0.0858  0.1432
 2537TIP3    H229027  -0.049   0.138  15.388  1.3796  1.5329  0.6850
 2538TIP3   OH229028   3.892   2.000   5.448 -1.0582 -0.0821  0.2178
 2538TIP3    H129029   3.895   1.971   5.539 -1.2075  1.3011  0.6898
 2538TIP3    H229030   3.914   2.093   5.452 -2.7959  0.4301 -0.9401
 2539TIP3   OH229031   3.854   5.900   1.751 -0.8017  0.2224  0.2341
 2539TIP3    H129032   3.837   5.989   1.782 -0.5824  0.0755  0.7903
 2539TIP3    H229033   3.812   5.895   1.665 -0.3833  1.0221 -0.0215
 2540TIP3   OH229034   3.593   2.438  12.077 -0.7907 -0.0036  0.4124
 2540TIP3    H129035   3.542   2.357  12.082  0.6144 -1.0786 -1.3347
 2540TIP3    H229036   3.559   2.492  12.148 -3.2160 -1.2715  0.3330
 2541TIP3   OH229037   5.471   0.792   5.725 -0.4502 -0.0664 -0.3106
 2541TIP3    H129038   5.427   0.867   5.766 -0.1202 -0.2807  0.4582
 2541TIP3    H229039   5.562   0.819   5.719 -0.0179 -0.9700  1.4183
 2542TIP3   OH229040   5.504   1.106  12.290  0.0485 -0.1538  0.0861
 2542TIP3    H129041   5.550   1.059  12.359  0.9930  0.3378 -0.1765
 2542TIP3    H229042   5.412   1.104  12.315  0.2636 -0.8318  0.8410
 2543TIP3   OH229043   1.880   3.588  15.100 -0.0419  0.8275  0.1396
 2543TIP3    H129044   1.932   3.640  15.160  0.2487  0.5099  0.1670
 2543TIP3    H229045   1.892   3.497  15.129 -0.2226  0.7078 -0.1482
 2544TIP3   OH229046   2.592   5.759  16.936 -0.0029  0.5674 -0.3962
 2544TIP3    H129047   2.606   5.759  17.031 -0.7078  0.2667 -0.2837
 2544TIP3    H229048   2.496   5.758  16.927  0.0640 -0.1153 -1.1039
 2545TIP3   OH229049   2.467   2.494  12.968 -0.2748 -0.0681  0.2850
 2545TIP3    H129050   2.382   2.452  12.981  0.2311 -1.2110  0.0305
 2545TIP3    H229051   2.464   2.571  13.025 -1.8939  0.5457 -0.5575
 2546TIP3   OH229052   0.979   1.299   5.863  0.4347 -0.3803  0.0990
 2546TIP3    H129053   1.012   1.379   5.904  1.0480 -1.3065  1.4827
 2546TIP3    H229054   0.973   1.321   5.770  2.4031  0.6784  0.1571
 2547TIP3   OH229055   4.594   2.717  13.775  0.0779 -0.7735 -0.7570
 2547TIP3    H129056   4.577   2.655  13.704 -0.9783  0.0011 -1.1982
 2547TIP3    H229057   4.508   2.741  13.808  0.5187 -0.4052  0.1699
 2548TIP3   OH229058   1.190   4.912  10.889 -0.3759 -0.7317 -0.2898
 2548TIP3    H129059   1.266   4.950  10.846  0.7563  1.0576  2.9383
 2548TIP3    H229060   1.177   4.828  10.846  3.1579 -0.9131 -1.2655
 2549TIP3   OH229061   6.362   5.055  17.113 -0.3593 -0.1039  0.2074
 2549TIP3    H129062   6.283   5.002  17.119 -2.0065  2.2979  1.8341
 2549TIP3    H229063   6.412   5.033  17.192 -1.2438  1.0046  1.0974
 2550TIP3   OH229064   2.653   3.731   0.158  0.1715  0.7953  0.1503
 2550TIP3    H129065   2.739   3.691   0.150  0.6198  1.3739  1.8006
 2550TIP3    H229066   2.650   3.795   0.086 -0.6141 -2.0906 -2.6353
 2551TIP3   OH229067   1.305   3.222   2.490  0.0431 -0.5982  0.7838
 2551TIP3    H129068   1.296   3.235   2.396  0.0670  0.7152  0.9380
 2551TIP3    H229069   1.216   3.214   2.523 -0.1134  1.2980  0.9209
 2552TIP3   OH229070   5.880   3.511   0.152 -0.4344 -0.0437 -0.2173
 2552TIP3    H129071   5.958   3.526   0.206 -0.1215  0.0130 -0.6785
 2552TIP3    H229072   5.861   3.597   0.114  0.5562 -0.4745 -1.7947
 2553TIP3   OH229073   0.376   0.879  15.716  0.1127  0.2465 -0.1467
 2553TIP3    H129074   0.304   0.937  15.691 -0.4042  0.0852  0.8893
 2553TIP3    H229075   0.386   0.819  15.643 -0.3698  0.6839 -0.5803
 2554TIP3   OH229076   0.608   4.774  14.946 -0.3676  0.5009  0.4321
 2554TIP3    H129077   0.673   4.712  14.980 -1.4103 -0.4992  0.6695
 2554TIP3    H229078   0.660   4.846  14.910  0.8809 -0.4772  0.2146
 2555TIP3   OH229079   3.507   1.654  13.323  0.4608  0.1748  0.0099
 2555TIP3    H129080   3.440   1.716  13.294 -0.4232  1.9722  4.8659
 2555TIP3    H229081   3.457   1.576  13.347  0.5559  0.2384  0.4231
 2556TIP3   OH229082   0.815   4.101  12.006 -0.2378 -0.0869 -0.1156
 2556TIP3    H129083   0.782   4.122  11.919 -1.2978  1.0693  0.5428
 2556TIP3    H229084   0.760   4.028  12.035  1.7110 -2.1796 -1.3344
 2557TIP3   OH229085   3.360   5.410   5.824 -0.5203 -0.4942 -0.5486
 2557TIP3    H129086   3.321   5.323   5.820 -0.2670 -0.5851 -1.1451
 2557TIP3    H229087   3.377   5.433   5.733 -2.0381  0.8459 -0.5517
 2558TIP3   OH229088   1.818   1.477  12.490  0.3460  0.1498 -0.6092
 2558TIP3    H129089   1.782   1.505  12.406  1.6229 -1.0231 -1.5900
 2558TIP3    H229090   1.890   1.539  12.507  0.3696  0.1194 -0.5973
 2559TIP3   OH229091   4.525   5.866  14.815  0.2987 -0.1954  1.2467
 2559TIP3    H129092   4.510   5.781  14.773 -0.8144  0.4699  0.2109
 2559TIP3    H229093   4.547   5.845  14.905  0.8005 -1.6145  0.8262
 2560TIP3   OH229094   3.000   1.344   2.700 -0.5711 -0.1786  0.1846
 2560TIP3    H129095   2.990   1.420   2.642  0.7197  1.2883  1.7801
 2560TIP3    H229096   2.931   1.284   2.672 -1.8754  1.7165 -0.9335
 2561TIP3   OH229097   3.418   3.298  16.506  0.6906  0.4598  0.8234
 2561TIP3    H129098   3.379   3.290  16.593  1.5127  1.2636  1.2746
 2561TIP3    H229099   3.512   3.299  16.521  0.8451  0.7536 -0.0719
 2562TIP3   OH229100   1.587   1.578  13.667  0.0806  0.6862  0.1854
 2562TIP3    H129101   1.584   1.564  13.572  2.1708 -1.0067  0.2832
 2562TIP3    H229102   1.651   1.649  13.678 -0.7893  1.4741  0.3340
 2563TIP3   OH229103   5.751   2.230   2.720 -0.4780  0.2565  0.3277
 2563TIP3    H129104   5.826   2.283   2.692 -0.0770 -0.0261  0.8576
 2563TIP3    H229105   5.678   2.292   2.725 -0.0811  0.7025  0.6529
 2564TIP3   OH229106   4.493   2.279  10.960 -0.0437 -0.2391 -0.6614
 2564TIP3    H129107   4.513   2.196  11.004  0.6543  0.5300  0.5307
 2564TIP3    H229108   4.463   2.253  10.873  0.7796 -1.7130 -0.5392
 2565TIP3   OH229109   5.712   3.160  14.209 -0.5770  0.6236 -0.3015
 2565TIP3    H129110   5.686   3.134  14.121  0.7080  1.4842 -0.9764
 2565TIP3    H229111   5.650   3.228  14.234  0.1107  1.6640 -1.3127
 2566TIP3   OH229112   1.692   5.198   3.595 -0.2289 -0.2014  0.5689
 2566TIP3    H129113   1.719   5.111   3.623  4.0584  0.8446  0.4645
 2566TIP3    H229114   1.622   5.222   3.656  0.0963 -2.7804  2.1261
 2567TIP3   OH229115   3.719   3.305  16.483  0.9038 -0.8691 -0.0070
 2567TIP3    H129116   3.726   3.396  16.452 -0.5859 -0.9018 -0.5194
 2567TIP3    H229117   3.810   3.277  16.493  1.3990  0.7164  0.2942
 2568TIP3   OH229118   1.608   4.410   4.387  0.6122  0.1907 -0.1717
 2568TIP3    H129119   1.692   4.383   4.424  0.8252  1.0440 -0.0069
 2568TIP3    H229120   1.623   4.413   4.292  0.6870  0.0765 -0.1633
 2569TIP3   OH229121   0.622   2.114  11.209 -0.1857 -0.4852  0.2137
 2569TIP3    H129122   0.563   2.174  11.255  0.5051  0.4241 -0.0453
 2569TIP3    H229123   0.702   2.165  11.197  0.5046 -1.5534  0.1820
 2570TIP3   OH229124   5.253   1.258  11.649 -0.0506 -0.1624  0.6338
 2570TIP3    H129125   5.304   1.262  11.731 -2.3430 -0.2890  2.1497
 2570TIP3    H229126   5.216   1.346  11.640 -0.4285 -0.3695  0.1607
 2571TIP3   OH229127   4.404   6.328  11.522 -0.0968 -0.6477 -0.2455
 2571TIP3    H129128   4.445   6.346  11.438  0.8287  1.0276  0.5290
 2571TIP3    H229129   4.463   6.364  11.587 -1.7531 -0.0792  1.0316
 2572TIP3   OH229130   6.775   1.753   5.545  0.0483  0.3895  0.6826
 2572TIP3    H129131   6.778   1.847   5.562 -0.0497  0.3479  0.9291
 2572TIP3    H229132   6.765   1.712   5.631  1.2430  0.0890  0.6909
 2573TIP3   OH229133   6.790   1.184  13.735 -0.4470 -0.5548 -0.7884
 2573TIP3    H129134   6.720   1.160  13.795 -0.5168  0.7740 -0.3114
 2573TIP3    H229135   6.852   1.235  13.788 -0.8142  1.1609 -1.9405
 2574TIP3   OH229136   0.478   2.498   3.662 -0.2238 -0.8074 -0.1312
 2574TIP3    H129137   0.436   2.495   3.748 -0.8093 -0.9222 -0.4148
 2574TIP3    H229138   0.505   2.590   3.652  1.6250 -1.1757  0.9949
 2575TIP3   OH229139   2.806   2.293  16.294  0.2364 -0.0916  0.7652
 2575TIP3    H129140   2.790   2.317  16.203  1.3210 -0.5056  0.4494
 2575TIP3    H229141   2.730   2.241  16.319 -0.1930  0.2402  0.1860
 2576TIP3   OH229142   5.074   4.291   0.609 -0.7706  0.2614  0.3034
 2576TIP3    H129143   4.979   4.296   0.600 -0.6702 -0.3847 -1.6704
 2576TIP3    H229144   5.105   4.380   0.592 -0.9603  0.2159 -0.2981
 2577TIP3   OH229145   2.657   3.915  16.814  0.4100 -0.2554  0.3058
 2577TIP3    H129146   2.593   3.983  16.836  1.7310  1.2746 -0.3341
 2577TIP3    H229147   2.715   3.956  16.750  0.9677 -2.1877 -0.5131
 2578TIP3   OH229148   4.769   6.537  13.039 -0.4370  0.4825  0.3173
 2578TIP3    H129149   4.737   6.448  13.051 -0.0131  0.5409  2.0682
 2578TIP3    H229150   4.694   6.593  13.060 -0.6899  0.5623 -0.7354
 2579TIP3   OH229151   3.041   3.885   4.590  0.3504 -0.4079 -0.0995
 2579TIP3    H129152   3.101   3.822   4.551 -1.4403 -1.7273 -0.8495
 2579TIP3    H229153   3.075   3.899   4.679  1.9640 -0.7767 -0.6385
 2580TIP3   OH229154   5.228   2.493   3.723  0.0173 -0.2119 -0.0929
 2580TIP3    H129155   5.183   2.479   3.806 -1.4643 -0.6450 -0.9352
 2580TIP3    H229156   5.310   2.537   3.747  1.2980 -3.3655  1.9616
 2581TIP3   OH229157   0.825   6.271   1.978  0.4248 -0.4620 -0.2466
 2581TIP3    H129158   0.899   6.298   2.033 -0.1094  0.1483  0.1869
 2581TIP3    H229159   0.862   6.266   1.890  1.0205 -0.3140 -0.0145
 2582TIP3   OH229160   3.156   3.315   3.295 -0.4728  0.1972  0.2176
 2582TIP3    H129161   3.113   3.352   3.218 -0.8881  1.7875  1.1776
 2582TIP3    H229162   3.217   3.382   3.324 -0.7379 -0.1212  1.6005
 2583TIP3   OH229163   0.134   3.975  10.960  0.4663  0.0458  0.2248
 2583TIP3    H129164   0.053   3.961  11.009  1.0200  0.9894  1.4493
 2583TIP3    H229165   0.128   3.914  10.887  0.2399 -2.4599  2.2018
 2584TIP3   OH229166   2.566   2.677   2.120 -0.4279  0.2928  0.0968
 2584TIP3    H129167   2.612   2.624   2.055  2.3558 -0.3850  2.4531
 2584TIP3    H229168   2.561   2.764   2.080  1.8461  0.0792 -0.7977
 2585TIP3   OH229169   4.740   1.946   3.231 -0.4368 -0.3286 -0.4888
 2585TIP3    H129170   4.770   2.014   3.172  0.1612 -1.2229 -1.2451
 2585TIP3    H229171   4.788   1.867   3.203 -1.8859 -1.3005 -0.3476
 2586TIP3   OH229172   4.710   6.649   0.786  0.0685  0.3874  0.0546
 2586TIP3    H129173   4.742   6.726   0.739 -0.2475  0.2293 -0.4356
 2586TIP3    H229174   4.782   6.586   0.781  0.0300  0.3640 -0.2501
 2587TIP3   OH229175   6.073   2.441   5.687 -0.1151 -0.1582 -0.5774
 2587TIP3    H129176   6.163   2.438   5.657 -0.0324 -3.2394 -0.3417
 2587TIP3    H229177   6.021   2.416   5.611 -1.0539  3.0109 -1.1620
 2588TIP3   OH229178   2.230   6.109   2.332 -0.2299  0.5705 -0.3161
 2588TIP3    H129179   2.180   6.115   2.413 -1.3876 -0.2053 -0.9258
 2588TIP3    H229180   2.226   6.016   2.308  1.5420  0.4834 -0.3970
 2589TIP3   OH229181   4.734   1.530  15.364  0.3378 -0.0609 -0.5620
 2589TIP3    H129182   4.733   1.448  15.413  0.8007 -0.3631 -1.0509
 2589TIP3    H229183   4.700   1.508  15.278  0.9834  0.1438 -0.8747
 2590TIP3   OH229184   5.531   5.294  11.591 -0.2273 -0.2038 -0.4044
 2590TIP3    H129185   5.441   5.285  11.622 -0.2289  0.1937 -0.2792
 2590TIP3    H229186   5.584   5.255  11.660 -0.1830  1.3215  0.4910
 2591TIP3   OH229187   1.654   2.179   2.466 -0.0507 -0.3605  0.6484
 2591TIP3    H129188   1.678   2.180   2.559 -1.5090  0.6439  1.0551
 2591TIP3    H229189   1.574   2.231   2.462  0.5046  0.4396 -1.3262
 2592TIP3   OH229190   4.854   5.192  10.568 -0.0479  0.3412 -0.1764
 2592TIP3    H129191   4.908   5.244  10.628  2.6731 -1.6025 -0.7284
 2592TIP3    H229192   4.804   5.134  10.625 -0.9522  1.5885  0.3296
 2593TIP3   OH229193   1.170   5.421  12.190 -0.3578  0.0095 -0.1780
 2593TIP3    H129194   1.135   5.336  12.164  0.6740 -0.5326  0.1127
 2593TIP3    H229195   1.169   5.419  12.286 -0.3322  0.3272 -0.1710
 2594TIP3   OH229196   6.145   2.944   6.382 -0.0365  0.0966  0.1333
 2594TIP3    H129197   6.194   2.985   6.310 -0.3046 -1.1726 -0.8068
 2594TIP3    H229198   6.126   2.856   6.351 -1.1869 -0.1002  1.3079
 2595TIP3   OH229199   1.177   5.553  12.468  0.2370  0.2744 -0.0243
 2595TIP3    H129200   1.207   5.501  12.543  1.0764  0.6944 -0.0593
 2595TIP3    H229201   1.255   5.563  12.414 -0.8792 -2.3061 -2.3445
 2596TIP3   OH229202   1.420   5.918   3.145  0.3421  0.2052  0.1416
 2596TIP3    H129203   1.415   5.896   3.052 -2.1453  0.0982  0.2225
 2596TIP3    H229204   1.466   5.844   3.185  2.0827  0.5803 -1.0321
 2597TIP3   OH229205   0.607   2.720  11.454 -0.4723 -0.4046 -0.2497
 2597TIP3    H129206   0.577   2.769  11.531 -0.8667 -1.4256  0.2750
 2597TIP3    H229207   0.702   2.719  11.461 -0.5426 -1.8802  1.1691
 2598TIP3   OH229208   3.323   2.872   5.116  0.3001 -0.4308  0.1418
 2598TIP3    H129209   3.388   2.818   5.071  1.8087  0.9089  0.6464
 2598TIP3    H229210   3.373   2.924   5.178 -0.8935  2.3350 -1.0276
 2599TIP3   OH229211   3.500   6.445  11.412  0.3656  0.2411 -0.5639
 2599TIP3    H129212   3.465   6.518  11.362 -1.0039 -0.4714 -0.7046
 2599TIP3    H229213   3.529   6.483  11.494 -1.1393  0.8359 -0.2813
 2600TIP3   OH229214   5.945   4.200  11.192  0.1113 -0.5384  0.9126
 2600TIP3    H129215   5.929   4.148  11.113  0.1343  1.5623 -0.5633
 2600TIP3    H229216   6.038   4.222  11.187  0.2377 -0.8188  1.8333
 2601TIP3   OH229217   2.375   2.213  16.973 -0.1984 -0.5216  0.5446
 2601TIP3    H129218   2.292   2.178  17.007 -0.3830 -1.8717 -1.0923
 2601TIP3    H229219   2.402   2.148  16.907 -0.5031  2.3756 -2.7106
 2602TIP3   OH229220   4.277   1.655  13.683  0.0228  0.2042 -0.1930
 2602TIP3    H129221   4.186   1.684  13.682  0.3034  1.1987  0.8925
 2602TIP3    H229222   4.323   1.721  13.735  1.5302  0.1806 -1.4230
 2603TIP3   OH229223   4.230   3.945   2.867 -0.4453 -0.3990  0.1447
 2603TIP3    H129224   4.244   3.870   2.809 -0.4352 -0.1261 -0.2119
 2603TIP3    H229225   4.169   3.913   2.933 -0.4000 -0.7393  0.0246
 2604TIP3   OH229226   3.092   3.545  11.474 -0.3340 -0.1910 -1.0320
 2604TIP3    H129227   3.110   3.621  11.530 -0.2527  0.5739 -2.0492
 2604TIP3    H229228   3.173   3.495  11.476 -0.4951 -0.4351 -0.0921
 2605TIP3   OH229229   1.356   4.013   1.636 -0.0010 -0.4279 -0.2816
 2605TIP3    H129230   1.316   4.090   1.596 -0.8197 -1.7024 -2.0846
 2605TIP3    H229231   1.312   4.004   1.721  1.2382  1.9282  0.6818
 2606TIP3   OH229232   4.026   4.406   5.302 -0.0634  0.4219 -0.1827
 2606TIP3    H129233   3.969   4.478   5.328  0.1302  1.3953 -2.2614
 2606TIP3    H229234   4.030   4.350   5.380 -1.3715  1.8879  1.0235
 2607TIP3   OH229235   2.526   4.486  14.330  0.5333 -0.5227  0.1148
 2607TIP3    H129236   2.579   4.565  14.342 -0.5777  0.0847  1.1736
 2607TIP3    H229237   2.572   4.437  14.261  0.2347  1.9496 -2.0021
 2608TIP3   OH229238   4.880   5.134   3.092  0.2385  0.5401 -0.5641
 2608TIP3    H129239   4.877   5.073   3.165 -0.1157  1.6032  0.3411
 2608TIP3    H229240   4.970   5.167   3.092  0.3584  0.2238 -0.8909
 2609TIP3   OH229241   3.161   4.195   3.813  0.1950  0.3288 -0.2964
 2609TIP3    H129242   3.202   4.179   3.898 -0.1687  0.5918 -0.0703
 2609TIP3    H229243   3.214   4.266   3.774  0.5468 -0.0007 -0.4226
 2610TIP3   OH229244   1.996   1.994  16.645 -0.2624 -0.6423 -0.0567
 2610TIP3    H129245   2.047   2.068  16.677  1.1295 -1.7827  0.4533
 2610TIP3    H229246   1.905   2.018  16.662  0.1629  0.9179  0.1195
 2611TIP3   OH229247   3.340   2.948  16.423 -0.3913  0.0885  0.4590
 2611TIP3    H129248   3.280   3.020  16.405  0.0813  0.1653 -0.8577
 2611TIP3    H229249   3.288   2.886  16.475 -0.8878  1.2154  1.3558
 2612TIP3   OH229250   0.436   1.692   0.333 -0.4910 -0.8258 -0.5951
 2612TIP3    H129251   0.458   1.622   0.394 -0.1369  1.0907  1.5967
 2612TIP3    H229252   0.504   1.685   0.265  0.0628 -2.0314  0.0349
 2613TIP3   OH229253   2.912   5.534  15.309  0.3542  0.1946 -0.3794
 2613TIP3    H129254   2.890   5.534  15.402  2.0625  1.1342  0.0659
 2613TIP3    H229255   2.837   5.576  15.267 -0.2012  0.2443  0.6168
 2614TIP3   OH229256   4.946   4.223   2.177  0.3128 -0.5362  0.2413
 2614TIP3    H129257   4.908   4.310   2.189  0.5089 -0.6315  1.7112
 2614TIP3    H229258   4.894   4.183   2.107  1.1501  1.2640 -1.5107
 2615TIP3   OH229259   3.305   2.980  13.151  0.8376  0.0585  0.3555
 2615TIP3    H129260   3.375   2.926  13.186  1.1514 -1.0376 -1.7889
 2615TIP3    H229261   3.321   3.067  13.188  1.5080 -0.8304  2.2853
 2616TIP3   OH229262   1.810   2.815  13.479 -0.6888  0.0598 -0.1280
 2616TIP3    H129263   1.837   2.772  13.560  0.5576  1.5168  0.2798
 2616TIP3    H229264   1.841   2.758  13.409 -0.2588 -0.3621  0.4053
 2617TIP3   OH229265   0.531   2.986   4.684  0.3535 -0.2145  0.1651
 2617TIP3    H129266   0.570   3.064   4.724 -3.0607  2.3347 -0.9845
 2617TIP3    H229267   0.506   2.931   4.758  1.0298  0.7141  1.1113
 2618TIP3   OH229268   0.261   1.146   3.638  0.7827  0.1867  0.2773
 2618TIP3    H129269   0.280   1.205   3.711  1.2295  2.8050 -1.7577
 2618TIP3    H229270   0.336   1.087   3.634  0.4614 -0.4139  2.2368
 2619TIP3   OH229271   3.732   6.072   3.279 -0.0470  0.2103 -0.4135
 2619TIP3    H129272   3.706   6.101   3.192 -0.2058  1.9722  0.1983
 2619TIP3    H229273   3.658   6.094   3.335 -0.9244 -2.9545 -0.1235
 2620TIP3   OH229274   6.041   3.916  11.345  0.1869  0.7737 -0.6274
 2620TIP3    H129275   6.022   3.917  11.438  1.2038  1.9252 -0.3929
 2620TIP3    H229276   6.037   3.824  11.319 -1.9154  0.6156  0.1308
 2621TIP3   OH229277   4.494   3.535   5.701  0.3138 -0.0371 -0.0952
 2621TIP3    H129278   4.435   3.460   5.703  0.7000 -0.3283  0.4935
 2621TIP3    H229279   4.582   3.497   5.694  0.4214  0.4031 -1.4151
 2622TIP3   OH229280   1.108   2.742  11.363 -0.3740 -0.2712  0.5365
 2622TIP3    H129281   1.182   2.798  11.339  1.4856 -3.3205 -1.5353
 2622TIP3    H229282   1.113   2.736  11.459  1.4163  0.4209  0.5298
 2623TIP3   OH229283   5.336   6.759  15.270 -0.3495 -0.1595  0.6895
 2623TIP3    H129284   5.328   6.839  15.323  1.5295  0.4073  0.2082
 2623TIP3    H229285   5.384   6.698  15.326  0.1560 -0.1564  0.2645
 2624TIP3   OH229286   6.267   4.327  15.285  0.5966  0.7221  0.9365
 2624TIP3    H129287   6.353   4.341  15.247  0.1342  1.9453  0.3127
 2624TIP3    H229288   6.222   4.410  15.276 -0.9316 -0.1036  0.5491
 2625TIP3   OH229289   0.771   1.231   3.916 -0.1116  0.5338 -0.0769
 2625TIP3    H129290   0.728   1.155   3.956  0.0115  0.8448  0.6664
 2625TIP3    H229291   0.841   1.254   3.977  0.0952  1.0168 -0.4835
 2626TIP3   OH229292   2.274   0.130   4.531 -0.1119 -1.0689  0.3393
 2626TIP3    H129293   2.331   0.061   4.498 -1.1463 -2.5164  1.4573
 2626TIP3    H229294   2.192   0.119   4.483  0.3096  0.6473 -0.8628
 2627TIP3   OH229295   6.198   4.593  16.686  0.2724 -0.3574 -0.5933
 2627TIP3    H129296   6.241   4.508  16.697  2.5407  0.5590 -1.7858
 2627TIP3    H229297   6.177   4.620  16.776  2.1752 -0.9026  0.0671
 2628TIP3   OH229298   2.272   1.689  15.631  0.2561  0.1241 -0.2194
 2628TIP3    H129299   2.244   1.759  15.572 -0.9761  0.0551  0.2382
 2628TIP3    H229300   2.236   1.713  15.716  2.4710  0.4843  0.6530
 2629TIP3   OH229301   3.691   5.769  12.170  0.5473 -0.0605 -1.0393
 2629TIP3    H129302   3.769   5.824  12.176  1.3659 -1.2630 -0.2168
 2629TIP3    H229303   3.651   5.775  12.257  0.4547 -0.5048 -1.0503
 2630TIP3   OH229304   3.176   1.615  17.017 -0.4546 -0.3651  0.4455
 2630TIP3    H129305   3.195   1.691  16.962 -0.3320  0.1871  1.2410
 2630TIP3    H229306   3.178   1.648  17.106 -1.9977 -0.9556  0.7353
 2631TIP3   OH229307   1.144   3.050   6.399 -0.6015 -0.2192 -0.4599
 2631TIP3    H129308   1.065   3.012   6.361 -2.6413  1.5502  1.6814
 2631TIP3    H229309   1.146   3.018   6.489 -0.3985  1.7813  0.3086
 2632TIP3   OH229310   1.096   4.257   3.431  0.0892  0.8690  0.4073
 2632TIP3    H129311   1.109   4.210   3.513  0.3385  0.9833  0.4343
 2632TIP3    H229312   1.003   4.249   3.413  0.3058 -0.6690 -0.2109
 2633TIP3   OH229313   0.605   5.049   4.097 -0.4104  0.8372  0.2311
 2633TIP3    H129314   0.510   5.053   4.102 -0.5163 -1.1101  3.7031
 2633TIP3    H229315   0.634   5.060   4.188  2.6032  0.2859 -0.5386
 2634TIP3   OH229316   2.509   2.243   2.081 -0.1722  0.7433  0.6318
 2634TIP3    H129317   2.519   2.219   1.989 -1.0723  1.9146  0.2126
 2634TIP3    H229318   2.570   2.316   2.093  0.1454  0.4126  1.0428
 2635TIP3   OH229319   5.272   2.320   1.360  0.3232  0.1163  0.4239
 2635TIP3    H129320   5.219   2.287   1.432  0.6473  0.5898  0.8877
 2635TIP3    H229321   5.254   2.414   1.358  2.1379  0.5290  1.4574
 2636TIP3   OH229322   0.418   2.106  14.491  0.2342 -0.1269 -0.2241
 2636TIP3    H129323   0.506   2.067  14.494  0.0337 -0.5430  0.3830
 2636TIP3    H229324   0.392   2.115  14.582  0.3200  1.5673 -0.3295
 2637TIP3   OH229325   0.551   2.725   1.949  0.3517  0.6770 -0.0645
 2637TIP3    H129326   0.465   2.683   1.952 -0.6560  2.5755 -0.4475
 2637TIP3    H229327   0.609   2.666   1.998 -1.5871  0.2983  1.9343
 2638TIP3   OH229328   1.158   1.687  11.204  0.0782 -0.0582  0.6684
 2638TIP3    H129329   1.168   1.704  11.110 -2.8039  1.3045  0.5184
 2638TIP3    H229330   1.074   1.643  11.212 -0.2463  0.8183  2.7074
 2639TIP3   OH229331   5.202   5.842  11.089 -0.5201  0.0442  0.1692
 2639TIP3    H129332   5.288   5.885  11.086 -0.5328  0.0337 -0.6331
 2639TIP3    H229333   5.142   5.911  11.119 -0.4306  0.4056 -0.4701
 2640TIP3   OH229334   5.850   2.108   1.512  0.1095 -0.7081 -0.7270
 2640TIP3    H129335   5.804   2.095   1.595 -1.3003  0.2335 -1.3323
 2640TIP3    H229336   5.878   2.199   1.514  0.5960 -0.8490 -1.0286
 2641TIP3   OH229337   1.279   2.835   0.244  0.3721  0.2299  0.2716
 2641TIP3    H129338   1.262   2.742   0.233  0.2014  0.0479  1.8468
 2641TIP3    H229339   1.338   2.858   0.172 -0.3588 -0.8554 -0.7017
 2642TIP3   OH229340   0.867   0.248   2.430  0.0166  0.4073  0.7388
 2642TIP3    H129341   0.901   0.202   2.506 -3.8170 -0.2525  2.3259
 2642TIP3    H229342   0.865   0.340   2.457 -0.7986  0.2473  1.2683
 2643TIP3   OH229343   3.223   5.517   6.634 -0.1991 -0.4552  0.3380
 2643TIP3    H129344   3.239   5.450   6.567 -0.8747 -1.1766  0.8850
 2643TIP3    H229345   3.292   5.582   6.620  1.0989 -1.7722  0.4581
 2644TIP3   OH229346   5.555   4.365  11.678 -0.2816  0.5577  0.4738
 2644TIP3    H129347   5.473   4.316  11.676  1.4682 -2.5883 -0.0729
 2644TIP3    H229348   5.615   4.310  11.729  2.2511  1.3954 -1.3866
 2645TIP3   OH229349   2.367   1.985  16.796  0.0246  0.7763 -0.1240
 2645TIP3    H129350   2.275   1.996  16.771  0.3135  0.3687 -1.4549
 2645TIP3    H229351   2.369   1.903  16.844 -0.2229  0.4880 -0.5954
 2646TIP3   OH229352   4.191   6.276   5.047  0.7243 -0.1147  0.3076
 2646TIP3    H129353   4.204   6.362   5.007  0.2164 -1.0430 -1.9756
 2646TIP3    H229354   4.258   6.271   5.116  1.5099  1.6387 -0.2801
 2647TIP3   OH229355   5.161   1.190   0.160 -0.6111 -0.1679  0.6343
 2647TIP3    H129356   5.196   1.134   0.230  0.5574  1.6520  1.5980
 2647TIP3    H229357   5.237   1.242   0.131 -1.6501  0.9416 -0.1805
 2648TIP3   OH229358   3.190   4.476  15.750  0.4026 -0.0300 -0.2163
 2648TIP3    H129359   3.182   4.381  15.756 -0.4109  0.0300 -0.1533
 2648TIP3    H229360   3.100   4.506  15.735  0.8944  0.5989 -2.1197
 2649TIP3   OH229361   0.791   2.530   3.447 -0.2497 -0.2960 -0.0245
 2649TIP3    H129362   0.830   2.476   3.378  1.3746  1.1860 -0.3444
 2649TIP3    H229363   0.813   2.484   3.528  0.1677 -0.6888 -0.3535
 2650TIP3   OH229364   6.716   1.985   5.030  0.6541  0.6856  0.2235
 2650TIP3    H129365   6.671   2.068   5.045  0.7102  0.8830 -0.6627
 2650TIP3    H229366   6.747   1.958   5.116 -1.7183  0.2243  1.0174
 2651TIP3   OH229367   5.651   4.861   0.370 -0.5040  0.0008 -0.0565
 2651TIP3    H129368   5.726   4.871   0.312 -0.1927 -0.6571  0.2220
 2651TIP3    H229369   5.688   4.864   0.458 -0.3921 -2.9878  0.0953
 2652TIP3   OH229370   2.584   4.218  12.180  0.0941  0.4031 -0.4023
 2652TIP3    H129371   2.632   4.275  12.119 -1.1732  0.2861 -1.5455
 2652TIP3    H229372   2.566   4.275  12.255 -0.2080  1.2027 -1.0596
 2653TIP3   OH229373   3.376   4.572   4.462 -0.7261  0.1575  0.5863
 2653TIP3    H129374   3.383   4.509   4.390  0.7344  2.1868 -1.1630
 2653TIP3    H229375   3.286   4.605   4.456 -1.1978 -1.0172  0.9074
 2654TIP3   OH229376   4.141   2.577   3.606 -0.6371  0.9747 -0.4545
 2654TIP3    H129377   4.102   2.490   3.599 -1.5518  1.3557 -0.1679
 2654TIP3    H229378   4.167   2.585   3.697 -1.2156  1.2817 -0.3169
 2655TIP3   OH229379   4.744   1.431   2.375  0.7327 -0.3695 -0.0766
 2655TIP3    H129380   4.740   1.400   2.465  2.4598 -0.9224 -0.1642
 2655TIP3    H229381   4.657   1.412   2.339  0.5254 -1.5578  1.0045
 2656TIP3   OH229382   3.759   0.393  16.377 -0.2086  0.3383 -0.2098
 2656TIP3    H129383   3.829   0.418  16.317 -0.1960  3.3499  0.8871
 2656TIP3    H229384   3.770   0.299  16.389  1.9314  0.2553 -2.1787
 2657TIP3   OH229385   3.941   3.603  11.405  0.0210 -0.2443  0.1511
 2657TIP3    H129386   3.993   3.529  11.376  0.6858 -0.1642  1.0976
 2657TIP3    H229387   4.003   3.661  11.449 -0.6125  0.5512  0.0301
 2658TIP3   OH229388   0.436   5.995  11.098 -0.8791 -0.3243 -0.2357
 2658TIP3    H129389   0.443   6.037  11.184 -1.1383 -1.3792  0.3102
 2658TIP3    H229390   0.442   6.068  11.036  0.7311  0.3276  0.6162
 2659TIP3   OH229391   3.061   1.518   1.411  0.6678 -0.1254  0.2090
 2659TIP3    H129392   2.998   1.585   1.385  1.1746  0.4108  0.3406
 2659TIP3    H229393   3.096   1.484   1.328 -0.4963 -1.1278  0.1022
 2660TIP3   OH229394   0.173   3.706   1.545  0.4411  0.0381 -0.0356
 2660TIP3    H129395   0.167   3.802   1.547  0.6429  0.1060  3.1034
 2660TIP3    H229396   0.266   3.688   1.560  0.2769 -0.6250  0.2193
 2661TIP3   OH229397   1.228   4.556   4.721 -0.5353  0.2358  0.1240
 2661TIP3    H129398   1.195   4.552   4.810  0.7401 -2.6148  0.5763
 2661TIP3    H229399   1.307   4.610   4.727 -0.1230 -0.4306  0.8805
 2662TIP3   OH229400   1.488   5.350  13.086 -0.1028  0.1885 -0.5294
 2662TIP3    H129401   1.515   5.393  13.005 -1.1752  0.8244 -0.5682
 2662TIP3    H229402   1.406   5.393  13.110  0.2076  0.0356  0.9152
 2663TIP3   OH229403   2.361   4.277  12.656 -0.2563  0.5599  0.3623
 2663TIP3    H129404   2.343   4.184  12.668 -1.0069  0.7074  0.3779
 2663TIP3    H229405   2.348   4.292  12.562  0.8860  0.4365  0.1661
 2664TIP3   OH229406   0.333   5.369   0.259  0.0467 -0.3200  0.0645
 2664TIP3    H129407   0.258   5.421   0.287 -0.5028 -1.4186  0.6855
 2664TIP3    H229408   0.409   5.423   0.281 -0.5285  0.5629 -0.0543
 2665TIP3   OH229409   4.829   4.227   4.941  0.1815 -0.0561  0.3642
 2665TIP3    H129410   4.744   4.184   4.933  0.0057  0.4320 -0.5089
 2665TIP3    H229411   4.829   4.263   5.029 -0.8492  0.6170  0.1021
 2666TIP3   OH229412   2.363   3.888   6.300  0.7578  0.1223 -0.0936
 2666TIP3    H129413   2.328   3.807   6.263  1.8706 -0.0591 -0.7805
 2666TIP3    H229414   2.381   3.943   6.224  0.4553  0.8406  0.3457
 2667TIP3   OH229415   5.300   0.945  11.976  0.2000 -0.2919  0.4699
 2667TIP3    H129416   5.300   0.978  12.066  0.3783  0.0101  0.3599
 2667TIP3    H229417   5.313   1.022  11.922  1.5171 -0.6393  0.2580
 2668TIP3   OH229418   1.421   6.501  13.998 -0.9310  0.1120 -0.0652
 2668TIP3    H129419   1.466   6.566  14.052 -1.0745  0.4530 -0.3524
 2668TIP3    H229420   1.373   6.553  13.934 -0.9472 -0.2851 -0.3733
 2669TIP3   OH229421   1.312   5.105   1.572  0.2937 -0.5562  0.7302
 2669TIP3    H129422   1.319   5.066   1.485 -0.2315 -0.4585  0.6420
 2669TIP3    H229423   1.228   5.074   1.606 -0.6646  1.3503  0.2137
 2670TIP3   OH229424   1.201   6.010  11.342  0.2181  0.0666  0.0852
 2670TIP3    H129425   1.127   5.954  11.364  1.4884 -1.3656  0.9527
 2670TIP3    H229426   1.254   6.012  11.422  2.2878 -0.9139 -1.1822
 2671TIP3   OH229427   1.247   2.594  11.119  0.5946 -0.5548  0.0632
 2671TIP3    H129428   1.255   2.591  11.024 -1.1382  0.9857 -0.1788
 2671TIP3    H229429   1.252   2.687  11.141  3.4405 -0.9969  1.7931
 2672TIP3   OH229430   5.262   2.571   4.962  0.3612  0.5106  0.3251
 2672TIP3    H129431   5.203   2.511   5.006  0.3939  0.4972  0.3511
 2672TIP3    H229432   5.211   2.651   4.951  0.5631  0.7403  0.9917
 2673TIP3   OH229433   2.826   0.114   2.925 -0.6050  0.3932 -0.2550
 2673TIP3    H129434   2.816   0.205   2.895  0.3705  0.1407 -1.4314
 2673TIP3    H229435   2.741   0.092   2.963 -0.9621  1.6864 -0.2364
 2674TIP3   OH229436   0.505   5.373   0.952 -0.6284 -0.1344  0.3204
 2674TIP3    H129437   0.523   5.300   0.893 -2.4110 -1.4951  1.3891
 2674TIP3    H229438   0.461   5.438   0.896 -0.7705 -0.6847 -0.2183
 2675TIP3   OH229439   0.099   1.928   3.873  0.4456 -0.0820 -0.3850
 2675TIP3    H129440   0.045   1.880   3.934 -1.3778  1.1839 -0.9098
 2675TIP3    H229441   0.059   1.912   3.787  1.0328  0.7017 -0.8227
 2676TIP3   OH229442   3.379   4.212   2.435  0.1966  0.7187 -0.4759
 2676TIP3    H129443   3.423   4.232   2.353  1.5838  0.9928  0.3088
 2676TIP3    H229444   3.381   4.116   2.440  0.2169  0.7071 -0.6954
 2677TIP3   OH229445   3.271   0.956   4.238  0.4713 -0.1556 -0.1456
 2677TIP3    H129446   3.277   0.873   4.190 -0.4186  0.7867 -2.0458
 2677TIP3    H229447   3.344   0.955   4.299  2.1816 -1.1539 -2.0885
 2678TIP3   OH229448   1.504   5.037   5.824 -0.0951  0.2662  0.0074
 2678TIP3    H129449   1.553   5.101   5.772 -0.8086 -0.5871 -1.7887
 2678TIP3    H229450   1.556   5.027   5.904  1.3849  1.1651 -0.7938
 2679TIP3   OH229451   3.148   5.879  15.509  0.0041 -0.1484  0.0461
 2679TIP3    H129452   3.160   5.809  15.446  2.4733  1.6660 -1.6817
 2679TIP3    H229453   3.061   5.914  15.490  0.4052 -0.1314 -1.8651
 2680TIP3   OH229454   3.638   3.893   2.562  0.7582 -0.4420  0.1361
 2680TIP3    H129455   3.680   3.959   2.617  0.5863 -0.3813  0.1958
 2680TIP3    H229456   3.707   3.864   2.502  0.7096  0.1203 -0.1924
 2681TIP3   OH229457   6.681   0.910  14.361  0.2381  0.5846 -0.3961
 2681TIP3    H129458   6.631   0.829  14.359 -0.1001  0.7808 -3.0252
 2681TIP3    H229459   6.620   0.976  14.395  0.2676 -0.0479  0.9726
 2682TIP3   OH229460   2.584   6.426  12.173 -0.7411 -0.2652  0.0272
 2682TIP3    H129461   2.635   6.491  12.125 -0.1370 -0.8720 -0.1617
 2682TIP3    H229462   2.511   6.404  12.115  0.1598 -1.2357 -0.7703
 2683TIP3   OH229463   4.392   2.887  14.311 -0.3276  0.3296  0.3845
 2683TIP3    H129464   4.299   2.890  14.287 -0.2408 -0.2767 -0.0438
 2683TIP3    H229465   4.416   2.978  14.326 -0.7742  0.5722 -0.3312
 2684TIP3   OH229466   6.724   0.723   2.595 -0.3515  0.3206 -0.1961
 2684TIP3    H129467   6.730   0.702   2.688 -1.7263  0.5605 -0.0359
 2684TIP3    H229468   6.709   0.638   2.552  1.3851  0.0487 -0.3522
 2685TIP3   OH229469   4.857   6.311   6.216  0.1633 -0.1232 -0.0335
 2685TIP3    H129470   4.783   6.253   6.195 -0.5493  0.2452  1.3042
 2685TIP3    H229471   4.891   6.276   6.299  1.8919 -0.6415 -0.9259
 2686TIP3   OH229472   3.355   6.472   5.335  0.1376 -0.2855 -0.2784
 2686TIP3    H129473   3.297   6.441   5.404 -0.4393  1.1145 -0.0966
 2686TIP3    H229474   3.424   6.405   5.330 -0.7336 -1.2731  0.4549
 2687TIP3   OH229475   6.159   0.487  15.726 -0.0263 -0.9967  0.2347
 2687TIP3    H129476   6.123   0.436  15.653  1.5234 -1.6667 -0.1002
 2687TIP3    H229477   6.254   0.479  15.716  0.2378 -1.8752  2.8732
 2688TIP3   OH229478   5.938   5.873  12.260  0.6072 -0.3081 -0.5388
 2688TIP3    H129479   5.938   5.920  12.344 -2.3496  0.0183 -0.6009
 2688TIP3    H229480   5.980   5.789  12.279 -0.0263 -0.2580  1.2992
 2689TIP3   OH229481   3.399   0.618   0.500 -0.4352 -0.2880  0.3758
 2689TIP3    H129482   3.478   0.600   0.451  0.3058 -1.0603  1.7802
 2689TIP3    H229483   3.331   0.565   0.457 -0.9273  2.3854 -2.5089
 2690TIP3   OH229484   0.364   6.280  13.726 -0.1787 -0.2446 -0.2850
 2690TIP3    H129485   0.390   6.189  13.710  1.1590  0.1062 -0.2362
 2690TIP3    H229486   0.276   6.287  13.690 -0.2871 -1.5563 -0.2984
 2691TIP3   OH229487   5.335   6.440   6.021 -0.2932  0.2871  0.2080
 2691TIP3    H129488   5.368   6.516   5.973  0.4892 -1.0397 -1.4438
 2691TIP3    H229489   5.262   6.474   6.073  0.0648  2.1613 -0.4464
 2692TIP3   OH229490   4.551   1.438   5.722  0.0731  0.8169 -0.0881
 2692TIP3    H129491   4.502   1.511   5.684 -1.0257 -0.0436 -0.3578
 2692TIP3    H229492   4.486   1.387   5.770  1.2673  1.4758  2.4439
 2693TIP3   OH229493   1.419   5.917  11.572 -0.0841  0.1880 -0.3952
 2693TIP3    H129494   1.463   5.972  11.507 -0.3206  0.0662 -0.6636
 2693TIP3    H229495   1.467   5.834  11.569  0.8123  0.6558  0.6260
 2694TIP3   OH229496   3.650   0.353   2.678 -0.3293  0.0557 -0.1670
 2694TIP3    H129497   3.617   0.418   2.740  0.3543 -0.4912  0.8007
 2694TIP3    H229498   3.580   0.342   2.614 -0.1397  2.3774 -0.8788
 2695TIP3   OH229499   3.181   3.726   2.162  0.2955  0.7664 -0.3410
 2695TIP3    H129500   3.275   3.709   2.157  0.5182  1.2473  1.5971
 2695TIP3    H229501   3.140   3.639   2.159  0.7519  0.5794 -1.6179
 2696TIP3   OH229502   0.989   1.181   3.382  0.1455 -0.0357  0.0983
 2696TIP3    H129503   0.958   1.180   3.473 -1.5611  0.5239 -0.4372
 2696TIP3    H229504   0.927   1.124   3.336 -1.3143  2.5410 -1.3588
 2697TIP3   OH229505   0.575   3.538  11.465  1.2273 -0.3771  0.5987
 2697TIP3    H129506   0.666   3.543  11.494  0.6420 -0.0094  2.5812
 2697TIP3    H229507   0.527   3.592  11.528 -0.1719  0.8050 -1.3839
 2698TIP3   OH229508   6.627   1.770   1.155  0.0988  0.0781  0.8939
 2698TIP3    H129509   6.633   1.691   1.100  2.7031 -1.3634  2.9831
 2698TIP3    H229510   6.604   1.737   1.242 -1.8740  2.0639  1.2007
 2699TIP3   OH229511   3.506   4.243  12.379  0.6899  0.0029  0.7553
 2699TIP3    H129512   3.505   4.320  12.322 -0.3307  0.7455  1.7406
 2699TIP3    H229513   3.493   4.169  12.320  4.1770  0.2471 -0.5972
 2700TIP3   OH229514   3.426   1.176   5.293 -0.3806 -0.0765 -0.0744
 2700TIP3    H129515   3.431   1.260   5.339  0.3204 -0.1569  0.0114
 2700TIP3    H229516   3.333   1.155   5.290 -0.8504  1.9243 -2.3151
 2701TIP3   OH229517   3.349   1.048   3.441 -0.0668 -0.2007  0.7835
 2701TIP3    H129518   3.410   0.981   3.410  0.5101  0.5908  0.1796
 2701TIP3    H229519   3.388   1.131   3.414 -0.4905  0.4255  2.0227
 2702TIP3   OH229520   5.878   5.440   4.236 -0.2544 -0.6039 -0.1708
 2702TIP3    H129521   5.790   5.433   4.199 -0.2640 -1.4474 -0.0058
 2702TIP3    H229522   5.865   5.481   4.322 -0.1856  1.8226 -1.2216
 2703TIP3   OH229523   2.429   4.655  13.767 -0.1053  0.1295 -0.0842
 2703TIP3    H129524   2.406   4.621  13.681  0.7164  0.4880 -0.4632
 2703TIP3    H229525   2.436   4.750  13.754 -0.2065  0.2107  0.4335
 2704TIP3   OH229526   0.521   1.029  13.906  0.1020 -0.1336  0.0139
 2704TIP3    H129527   0.501   1.121  13.923 -0.0163 -0.2119  0.3109
 2704TIP3    H229528   0.600   1.012  13.958 -1.5278 -0.9788  2.4247
 2705TIP3   OH229529   0.953   0.328  14.200  0.1383  0.6027 -0.1468
 2705TIP3    H129530   0.867   0.333  14.158 -0.4286  2.4095  1.1131
 2705TIP3    H229531   0.968   0.234  14.212 -1.1111  0.1993 -1.4246
 2706TIP3   OH229532   6.532   5.303  11.994 -0.1797 -0.3517 -0.4457
 2706TIP3    H129533   6.445   5.302  12.034  0.6848  0.8798  1.6631
 2706TIP3    H229534   6.519   5.341  11.907 -1.8839 -1.2256 -0.6027
 2707TIP3   OH229535   6.718   1.744   3.958  0.1525 -0.5501  0.2105
 2707TIP3    H129536   6.732   1.671   3.897 -0.3791  0.2089 -0.8418
 2707TIP3    H229537   6.650   1.797   3.917  2.0732  1.7711 -0.2044
 2708TIP3   OH229538   0.252   0.985  11.383  0.3131 -0.0183  0.3425
 2708TIP3    H129539   0.342   0.976  11.412  0.1003 -2.2969  0.4948
 2708TIP3    H229540   0.200   0.937  11.448 -0.9075  0.4854 -0.2151
 2709TIP3   OH229541   3.746   0.049  14.330  0.2795 -0.2106  0.0210
 2709TIP3    H129542   3.776  -0.041  14.319  1.3764  0.0094  0.9203
 2709TIP3    H229543   3.651   0.045  14.322  0.3056 -1.4747  0.2030
 2710TIP3   OH229544   0.997   2.731  11.989 -0.5522 -0.2177 -0.2451
 2710TIP3    H129545   1.052   2.701  12.062  1.2236 -2.4864 -2.3660
 2710TIP3    H229546   1.041   2.809  11.957 -0.4295 -0.1458  0.0896
 2711TIP3   OH229547   6.711   1.634  16.032  0.0008 -0.2082 -0.2791
 2711TIP3    H129548   6.666   1.568  15.980 -1.0890  0.0289  0.3378
 2711TIP3    H229549   6.787   1.588  16.068 -2.5881 -2.3686  3.1334
 2712TIP3   OH229550   6.747   0.104  14.574  0.1631  0.1496 -0.1569
 2712TIP3    H129551   6.756   0.020  14.528 -0.0817  0.5517 -0.9455
 2712TIP3    H229552   6.679   0.151  14.525  1.8806  1.7425 -1.1291
 2713TIP3   OH229553   2.950   4.719  15.546 -0.2206 -0.0076 -0.2456
 2713TIP3    H129554   2.976   4.810  15.558  2.0797 -0.6253  0.0071
 2713TIP3    H229555   3.014   4.684  15.484 -1.4196 -1.3201 -0.8007
 2714TIP3   OH229556   2.498   0.356   1.898 -0.2633 -0.4497 -0.3247
 2714TIP3    H129557   2.561   0.343   1.969  0.8139  0.1231 -1.1466
 2714TIP3    H229558   2.535   0.308   1.824 -0.9552 -0.3555 -0.7454
 2715TIP3   OH229559   2.399   2.255  12.656 -0.2844  0.1940 -0.6063
 2715TIP3    H129560   2.431   2.345  12.656 -1.3426  0.5936 -2.0988
 2715TIP3    H229561   2.359   2.243  12.570 -0.3740 -1.6377 -0.3569
 2716TIP3   OH229562   3.543   6.273   5.710 -0.2963 -0.0443  0.0716
 2716TIP3    H129563   3.598   6.351   5.699 -1.4065  0.5662 -1.5024
 2716TIP3    H229564   3.457   6.307   5.732 -0.5686 -0.8794  0.3237
 2717TIP3   OH229565   0.286   1.531   6.520 -0.3743 -0.2133  0.3315
 2717TIP3    H129566   0.339   1.452   6.510  1.6935  1.2250 -0.9551
 2717TIP3    H229567   0.307   1.584   6.443 -1.7711  1.5581  1.0802
 2718TIP3   OH229568   2.183   2.730   5.373 -0.2367  0.1398  0.0254
 2718TIP3    H129569   2.100   2.697   5.339 -0.2137 -0.8406  0.8669
 2718TIP3    H229570   2.230   2.651   5.402  1.3586  0.5918 -1.2200
 2719TIP3   OH229571   3.260   4.974  13.722 -0.1370  0.2250  0.3441
 2719TIP3    H129572   3.348   4.937  13.709 -0.4157 -0.0898 -0.7399
 2719TIP3    H229573   3.265   5.016  13.808  1.8084  2.3004 -0.6733
 2720TIP3   OH229574   5.005   2.931  16.565  0.1313 -0.0210 -0.5539
 2720TIP3    H129575   5.083   2.948  16.618  0.8994 -2.0160 -0.9746
 2720TIP3    H229576   5.038   2.925  16.475 -0.2264 -2.3102 -0.5762
 2721TIP3   OH229577   4.625   6.770  11.151 -0.1202  0.4193  0.1736
 2721TIP3    H129578   4.657   6.790  11.239 -2.4217 -0.6123  1.3206
 2721TIP3    H229579   4.604   6.677  11.153 -1.4439  0.6539 -1.0405
 2722TIP3   OH229580   3.023   4.022  13.040 -0.0999  0.2868 -0.5960
 2722TIP3    H129581   3.099   3.976  13.006 -0.5788 -1.5531  0.6923
 2722TIP3    H229582   3.057   4.076  13.111  0.6671  3.0675 -2.8648
 2723TIP3   OH229583   5.253   6.585   2.420  0.0645 -0.2692  0.2492
 2723TIP3    H129584   5.319   6.529   2.379 -0.7706 -1.1310  0.0501
 2723TIP3    H229585   5.170   6.553   2.385 -0.3339  2.6499 -1.7753
 2724TIP3   OH229586   1.217   5.061   5.791 -0.1977 -0.0412 -0.1069
 2724TIP3    H129587   1.208   5.147   5.750 -1.0190 -0.3931 -0.6781
 2724TIP3    H229588   1.312   5.051   5.803 -0.1351  1.2630  0.6899
 2725TIP3   OH229589   3.580   4.232   4.777  0.5410 -0.0053  0.4880
 2725TIP3    H129590   3.661   4.187   4.754 -1.3012 -2.0144 -2.6189
 2725TIP3    H229591   3.574   4.304   4.714 -0.4194 -0.2986  0.2359
 2726TIP3   OH229592   2.910   2.434   5.409 -0.0032  0.5523  0.1702
 2726TIP3    H129593   2.910   2.340   5.426  1.6080  0.6951  1.2285
 2726TIP3    H229594   2.860   2.444   5.328 -0.6612 -1.1410  0.3165
 2727TIP3   OH229595   2.744   0.842   2.487  0.3113 -0.4876 -0.1665
 2727TIP3    H129596   2.726   0.900   2.413 -0.4849  1.3300  1.3602
 2727TIP3    H229597   2.821   0.880   2.530  0.2227 -0.9790  0.4481
 2728TIP3   OH229598   4.486   3.566  17.136 -0.7753  0.5515  0.4144
 2728TIP3    H129599   4.416   3.552  17.199 -0.8120  0.0072  0.2598
 2728TIP3    H229600   4.551   3.617  17.183  0.7836 -2.6876  2.0940
 2729TIP3   OH229601   5.653   0.760  16.218  0.0689  0.0204 -0.2467
 2729TIP3    H129602   5.645   0.675  16.262  0.3509 -2.0945 -3.8420
 2729TIP3    H229603   5.747   0.770  16.202 -0.0614  0.4282 -0.7961
 2730TIP3   OH229604   4.513   1.778   4.819  0.1660  0.3186 -0.0992
 2730TIP3    H129605   4.503   1.708   4.883 -0.7626  0.0598 -0.5029
 2730TIP3    H229606   4.540   1.854   4.870  0.5877 -0.1787  0.4316
 2731TIP3   OH229607   4.516   0.316   3.871  0.0441 -0.6911  0.0555
 2731TIP3    H129608   4.473   0.360   3.944  1.8577 -1.0465  1.3971
 2731TIP3    H229609   4.604   0.352   3.870  0.6633 -2.1362 -0.7058
 2732TIP3   OH229610   3.433   0.213   5.042 -0.1691  0.4050  0.0751
 2732TIP3    H129611   3.461   0.181   5.128  1.1089 -2.5687 -1.2976
 2732TIP3    H229612   3.511   0.202   4.987 -2.2029 -2.3568 -2.5279
 2733TIP3   OH229613   5.596   0.217  13.209  0.4396 -0.8087  0.0556
 2733TIP3    H129614   5.503   0.237  13.207  0.5828 -0.1214 -1.7080
 2733TIP3    H229615   5.602   0.125  13.183  0.2794 -0.7317 -0.2510
 2734TIP3   OH229616   0.656   5.858  16.291  0.0869 -0.3295 -0.6754
 2734TIP3    H129617   0.679   5.869  16.199  1.1854 -1.9733 -0.6387
 2734TIP3    H229618   0.614   5.772  16.295  2.2883 -1.4240  0.7034
 2735TIP3   OH229619   1.457   5.725  13.346  0.0559  0.2418 -0.4482
 2735TIP3    H129620   1.440   5.754  13.435  1.0210  0.4429 -0.3174
 2735TIP3    H229621   1.408   5.643  13.337  0.7076 -0.2712  0.5734
 2736TIP3   OH229622   0.781   1.845  11.253 -0.5492  0.4131  0.0782
 2736TIP3    H129623   0.819   1.757  11.246 -1.2105  0.0375  1.0217
 2736TIP3    H229624   0.833   1.898  11.192 -0.9459 -0.8888 -1.4550
 2737TIP3   OH229625   4.391   0.514   2.986  0.2588  0.2777  0.2183
 2737TIP3    H129626   4.322   0.502   2.921 -0.4719 -0.2602  1.0545
 2737TIP3    H229627   4.345   0.545   3.064  1.0391  0.4158  0.6377
 2738TIP3   OH229628   1.918   0.738   5.184  0.3563 -0.5175 -0.2951
 2738TIP3    H129629   1.850   0.681   5.220  1.5630 -1.2352  0.8989
 2738TIP3    H229630   1.893   0.826   5.212 -0.9768 -0.5467 -1.3070
 2739TIP3   OH229631   6.228   0.920  13.314 -0.6395 -0.3232 -0.7828
 2739TIP3    H129632   6.228   0.990  13.248 -0.0701  0.6590  0.2131
 2739TIP3    H229633   6.141   0.880  13.307 -0.2290 -0.9836 -2.8522
 2740TIP3   OH229634   4.604   2.028  11.401 -0.7222  0.5863 -0.3832
 2740TIP3    H129635   4.603   2.097  11.335  0.2704  0.1812 -0.8347
 2740TIP3    H229636   4.635   2.071  11.481  1.6397  0.3498 -1.0855
 2741TIP3   OH229637   4.538   3.577   2.368 -0.5139 -0.2158  0.2403
 2741TIP3    H129638   4.474   3.596   2.300  0.4925  2.3101 -0.1258
 2741TIP3    H229639   4.598   3.514   2.328 -0.8998 -0.0730 -0.5909
 2742TIP3   OH229640   3.835   3.319   3.971 -0.2666 -0.5083  0.1227
 2742TIP3    H129641   3.764   3.374   4.004  0.5224  1.2669 -0.9827
 2742TIP3    H229642   3.825   3.236   4.018 -2.9909 -0.3069  0.0900
 2743TIP3   OH229643   5.326   1.648  14.658  0.2200  0.0287 -0.8528
 2743TIP3    H129644   5.274   1.652  14.738  0.4309 -2.7499 -0.4508
 2743TIP3    H229645   5.279   1.702  14.595 -1.4320  0.1070  0.3911
 2744TIP3   OH229646   2.412   0.209   1.557 -0.2072 -0.3587  0.2124
 2744TIP3    H129647   2.475   0.149   1.596 -0.0240 -0.8233 -0.7619
 2744TIP3    H229648   2.447   0.296   1.576  2.0447 -0.5938 -2.2906
 2745TIP3   OH229649   1.862   1.717  16.262  0.1621  0.3893 -0.1007
 2745TIP3    H129650   1.891   1.638  16.307 -0.8405  0.1638  0.1560
 2745TIP3    H229651   1.848   1.781  16.332  4.2203  1.9705 -0.4546
 2746TIP3   OH229652   5.125   3.460  12.505 -0.6392  0.1571  0.4865
 2746TIP3    H129653   5.189   3.433  12.439 -0.2981  0.6365  0.6149
 2746TIP3    H229654   5.131   3.556  12.506 -2.5504  0.3351 -0.6937
 2747TIP3   OH229655   6.506   4.816  13.835  0.4084  0.0389 -0.4550
 2747TIP3    H129656   6.584   4.853  13.876  0.4388  0.3583 -0.8001
 2747TIP3    H229657   6.499   4.728  13.873  0.0961  0.5259  0.6770
 2748TIP3   OH229658   4.334   4.770   1.563 -0.1082  0.2299 -0.4605
 2748TIP3    H129659   4.311   4.800   1.651 -1.1530  1.0914 -1.0085
 2748TIP3    H229660   4.429   4.780   1.559 -0.1478  1.0429  0.2669
 2749TIP3   OH229661   4.864   3.215   6.158  0.3625  0.7454  0.2714
 2749TIP3    H129662   4.777   3.213   6.197  0.6950  0.9737  1.0502
 2749TIP3    H229663   4.901   3.128   6.178  0.4569  0.7907  0.2955
 2750TIP3   OH229664   1.238   3.823   5.464  0.1269  0.1547 -0.0835
 2750TIP3    H129665   1.291   3.901   5.450  0.5740 -0.3161 -1.1315
 2750TIP3    H229666   1.164   3.853   5.517 -0.5563  1.6627 -1.7772
 2751TIP3   OH229667   2.274   5.736  15.471 -0.0858  0.4913 -0.0390
 2751TIP3    H129668   2.302   5.768  15.557 -1.4871  1.2148  0.1803
 2751TIP3    H229669   2.277   5.812  15.414  1.9321 -0.2186 -0.9731
 2752TIP3   OH229670   2.244   0.446   0.569 -0.4911  0.1408 -0.4078
 2752TIP3    H129671   2.231   0.531   0.611  0.4864 -0.1978  0.6002
 2752TIP3    H229672   2.339   0.433   0.568 -0.5983 -0.6999 -1.0537
 2753TIP3   OH229673   0.177   0.808   6.055  0.3390 -0.4733  0.5196
 2753TIP3    H129674   0.137   0.891   6.079  0.9302 -0.4458  1.4803
 2753TIP3    H229675   0.119   0.741   6.092 -1.0416 -0.5870 -1.6550
 2754TIP3   OH229676   4.237   2.672   1.544  0.1121 -0.0866  0.2220
 2754TIP3    H129677   4.206   2.760   1.568 -0.2955  0.1978 -1.2849
 2754TIP3    H229678   4.250   2.628   1.629 -0.5711  1.1101  0.9821
 2755TIP3   OH229679   5.358   1.054   5.940  0.2650 -0.0654  0.2103
 2755TIP3    H129680   5.316   0.990   5.998 -0.2348 -1.4567 -1.6239
 2755TIP3    H229681   5.447   1.063   5.976 -0.4730  0.3040  2.0848
 2756TIP3   OH229682   0.829   2.917   3.210  0.4137  0.0695 -0.2050
 2756TIP3    H129683   0.788   2.992   3.253 -0.7352 -0.8447  0.3101
 2756TIP3    H229684   0.910   2.953   3.173  0.2262  1.4078  0.6261
 2757TIP3   OH229685   2.924   1.624  14.086  0.2597 -0.5016 -0.0472
 2757TIP3    H129686   2.983   1.603  14.158  0.5540  1.6475  0.3949
 2757TIP3    H229687   2.895   1.714  14.104  1.6169  0.7764 -3.3901
 2758TIP3   OH229688   0.980   6.567   4.187  0.3979  0.5426 -0.3203
 2758TIP3    H129689   1.056   6.524   4.147 -0.4539 -1.3815  0.0196
 2758TIP3    H229690   0.984   6.542   4.279 -0.2072  1.1053 -0.1329
 2759TIP3   OH229691   3.139   3.002   2.897 -0.2278 -0.5033 -0.0901
 2759TIP3    H129692   3.208   3.058   2.931  1.5960 -1.8842 -1.3324
 2759TIP3    H229693   3.058   3.041   2.930  1.0053  2.1338  0.0527
 2760TIP3   OH229694   5.091   0.639   0.054  0.2369  0.3558  0.4518
 2760TIP3    H129695   5.101   0.572  -0.014  1.7080 -1.1529  2.0612
 2760TIP3    H229696   5.006   0.621   0.094 -1.5414  2.3976 -2.0257
 2761TIP3   OH229697   1.153   3.870  13.800  0.0884 -0.1239  0.2516
 2761TIP3    H129698   1.182   3.833  13.884  0.6949 -3.3571 -1.2292
 2761TIP3    H229699   1.102   3.800  13.760  0.5849  0.9794 -2.4856
 2762TIP3   OH229700   1.728   5.783   4.159 -0.6647  0.1206  0.2139
 2762TIP3    H129701   1.800   5.826   4.113 -0.6845  0.2049  0.2605
 2762TIP3    H229702   1.750   5.690   4.158 -0.7926  0.0921 -0.1942
 2763TIP3   OH229703   6.415   0.939   4.916 -0.1534  0.4141 -0.3816
 2763TIP3    H129704   6.392   1.028   4.889  0.2843  0.2364 -1.3739
 2763TIP3    H229705   6.340   0.886   4.889 -0.8516  0.6153  1.0955
 2764TIP3   OH229706   0.095   0.461   5.049 -0.6840 -0.3338 -0.4724
 2764TIP3    H129707   0.033   0.444   4.978  0.4703 -0.4192 -1.4959
 2764TIP3    H229708   0.065   0.543   5.088 -1.8343 -0.7363 -0.4890
 2765TIP3   OH229709   2.318   5.135  13.720  0.3752  0.2460 -0.2129
 2765TIP3    H129710   2.327   5.116  13.813 -0.1582  0.3562 -0.1347
 2765TIP3    H229711   2.319   5.230  13.715 -0.1797  0.2498 -0.2573
 2766TIP3   OH229712   6.775   6.387   0.647 -0.2116  0.8022  0.3327
 2766TIP3    H129713   6.713   6.403   0.576  0.4473 -0.4777 -0.5718
 2766TIP3    H229714   6.738   6.315   0.697 -0.8053  1.8746  1.4900
 2767TIP3   OH229715   0.733   5.392   2.512  0.1405  0.1215  0.3948
 2767TIP3    H129716   0.713   5.400   2.606  0.2099 -0.0650  0.4256
 2767TIP3    H229717   0.668   5.330   2.479  0.1823  0.1063  0.3412
 2768TIP3   OH229718   5.718   1.183  13.237 -0.8502 -0.6218 -0.2233
 2768TIP3    H129719   5.627   1.204  13.217 -0.8189 -0.7862 -0.5383
 2768TIP3    H229720   5.769   1.251  13.194 -0.8760  0.1103  0.8798
 2769TIP3   OH229721   6.728   4.791  14.526 -0.3951  0.0099  0.5253
 2769TIP3    H129722   6.716   4.706  14.484  2.1592  0.3030 -0.9799
 2769TIP3    H229723   6.690   4.854  14.464  0.4724  0.1807  0.1515
 2770TIP3   OH229724   1.278   4.997   0.793 -0.4714 -0.7974  0.1710
 2770TIP3    H129725   1.211   5.047   0.839 -0.3782  0.2658 -0.8134
 2770TIP3    H229726   1.263   4.906   0.820 -1.7369 -0.4614  0.6498
 2771TIP3   OH229727   6.586   1.668  14.458  0.2303 -0.0188  0.0651
 2771TIP3    H129728   6.527   1.657  14.533 -1.0671 -0.3635 -0.9531
 2771TIP3    H229729   6.660   1.718  14.492 -0.8199  0.7414  1.3252
 2772TIP3   OH229730   5.216   0.066   5.620 -0.3092 -0.0152 -0.3763
 2772TIP3    H129731   5.241   0.155   5.645 -1.9326  0.2924  0.2818
 2772TIP3    H229732   5.217   0.017   5.702  0.9901 -0.7455 -0.7977
 2773TIP3   OH229733   6.312   6.185  13.564  0.1494  0.3832 -0.1531
 2773TIP3    H129734   6.280   6.215  13.649  0.5280  1.8699 -0.5036
 2773TIP3    H229735   6.338   6.265  13.519  0.2137 -0.4106 -1.5689
 2774TIP3   OH229736   3.575   5.790   5.764 -0.3437 -0.8347  0.4934
 2774TIP3    H129737   3.573   5.716   5.704  0.2096  0.3235 -1.0237
 2774TIP3    H229738   3.518   5.856   5.723  1.3941  0.6261  0.2981
 2775TIP3   OH229739   5.620   0.051  16.508  0.5416  0.4261  0.6806
 2775TIP3    H129740   5.644   0.107  16.582  0.5919  0.3524  0.7207
 2775TIP3    H229741   5.593   0.112  16.439 -0.3131  0.4668  1.0422
 2776TIP3   OH229742   4.058   1.902   4.660  0.3260 -1.2134 -0.5395
 2776TIP3    H129743   4.132   1.844   4.640  0.8646  0.0198 -2.3176
 2776TIP3    H229744   4.097   1.987   4.675 -0.3701 -1.3745  3.0182
 2777TIP3   OH229745   4.800   1.949  16.352  0.3488  0.6851 -0.3325
 2777TIP3    H129746   4.758   1.952  16.266 -0.8473  1.3879  0.2463
 2777TIP3    H229747   4.892   1.969  16.334 -0.1212  2.2040 -1.3182
 2778TIP3   OH229748   3.371   2.153   0.524 -0.1194  0.3810  0.2707
 2778TIP3    H129749   3.432   2.126   0.456 -0.4832  1.7617 -0.6451
 2778TIP3    H229750   3.335   2.236   0.492 -0.3151  1.0594  2.1397
 2779TIP3   OH229751   5.783   2.664   3.351  0.1686 -0.1957 -0.1017
 2779TIP3    H129752   5.734   2.725   3.297 -0.2503  1.7869  2.3647
 2779TIP3    H229753   5.773   2.696   3.441  2.9177 -1.8346  0.9422
 2780TIP3   OH229754   2.313   1.191  13.640  0.3763 -0.6698  0.2249
 2780TIP3    H129755   2.295   1.183  13.546  3.3113  0.9147 -0.6084
 2780TIP3    H229756   2.329   1.285  13.653 -1.0277 -0.6742  2.6094
 2781TIP3   OH229757   1.877   2.768  15.348  0.3989 -0.8445 -0.3043
 2781TIP3    H129758   1.831   2.698  15.394 -0.2945  0.3216  0.8236
 2781TIP3    H229759   1.827   2.781  15.267 -0.2484 -0.7630  0.1064
 2782TIP3   OH229760   3.366   3.518   1.462  0.7234 -0.1563  0.1129
 2782TIP3    H129761   3.341   3.569   1.385  1.5416 -2.2026 -1.6099
 2782TIP3    H229762   3.294   3.457   1.475  0.1668  0.7821  1.5842
 2783TIP3   OH229763   3.611   4.609  16.639  0.1061 -0.0207  0.0808
 2783TIP3    H129764   3.672   4.680  16.619  0.6420 -0.0713  1.4113
 2783TIP3    H229765   3.626   4.544  16.571  0.7844  0.4376 -0.2117
 2784TIP3   OH229766   4.217   1.815   5.047 -0.0850  0.8082  0.0217
 2784TIP3    H129767   4.136   1.784   5.006 -0.9617  0.2235  2.0305
 2784TIP3    H229768   4.272   1.736   5.054 -0.6201  0.5120  1.3625
 2785TIP3   OH229769   5.055   2.705  12.617  0.0978  0.2624  0.6081
 2785TIP3    H129770   5.010   2.624  12.594 -0.2135  0.2419  1.2413
 2785TIP3    H229771   5.077   2.746  12.534 -0.0080 -0.3285  0.2865
 2786TIP3   OH229772   2.715   3.720  15.478  0.8500 -0.5378  0.3606
 2786TIP3    H129773   2.746   3.786  15.540 -0.6087 -0.9047  1.5011
 2786TIP3    H229774   2.621   3.735  15.470  0.4100 -2.6379  0.8790
 2787TIP3   OH229775   0.550   1.447   5.065 -0.0718  0.3046 -0.5765
 2787TIP3    H129776   0.532   1.500   4.987  0.8465 -0.6968 -1.5176
 2787TIP3    H229777   0.617   1.496   5.112  0.1526  0.4094 -0.9971
 2788TIP3   OH229778   1.033   6.571   5.661  0.7406 -0.6876  0.6357
 2788TIP3    H129779   1.109   6.612   5.703  0.3682 -0.7925  1.4319
 2788TIP3    H229780   1.030   6.611   5.574 -0.0145  1.5641  1.6030
 2789TIP3   OH229781   3.051   6.195  15.731 -0.1170  0.0905 -0.0434
 2789TIP3    H129782   3.063   6.264  15.797 -0.9905 -0.7721  1.0792
 2789TIP3    H229783   3.115   6.128  15.755  0.9174  0.6070 -1.2962
 2790TIP3   OH229784   4.387   2.803  16.531 -0.1180 -0.2813  0.3893
 2790TIP3    H129785   4.361   2.726  16.481  1.3751 -1.0330  0.7332
 2790TIP3    H229786   4.433   2.769  16.607  1.6365  0.9280 -0.0562
 2791TIP3   OH229787   1.449   4.309  15.051 -0.0697 -0.7082 -0.0572
 2791TIP3    H129788   1.413   4.366  15.119  0.5123  1.3259 -1.3630
 2791TIP3    H229789   1.416   4.222  15.073 -3.0207  0.4887  0.6551
 2792TIP3   OH229790   5.018   2.951  11.191  0.5292 -0.4588  0.2114
 2792TIP3    H129791   4.948   2.958  11.256 -0.6637  1.7488 -1.1439
 2792TIP3    H229792   5.047   3.042  11.178  1.8819 -1.0421 -1.1213
 2793TIP3   OH229793   6.385   2.988  15.123 -0.0908 -0.1744  0.6080
 2793TIP3    H129794   6.366   2.968  15.031 -0.4023 -0.8109  0.7997
 2793TIP3    H229795   6.302   3.019  15.158 -0.1387 -0.5337  0.8225
 2794TIP3   OH229796   1.874   2.492  16.556  0.5315 -0.3847  0.4621
 2794TIP3    H129797   1.876   2.438  16.477 -0.9641  0.9936 -0.5824
 2794TIP3    H229798   1.966   2.501  16.581  0.8786 -2.6889  0.2316
 2795TIP3   OH229799   4.582   3.636   4.304  0.5053  0.1732  0.0921
 2795TIP3    H129800   4.511   3.697   4.320 -1.2592 -1.3256 -1.4307
 2795TIP3    H229801   4.610   3.654   4.214 -1.3337 -2.3490 -1.0896
 2796TIP3   OH229802   3.862   3.792  11.680  0.8748  0.2560  0.8356
 2796TIP3    H129803   3.796   3.845  11.725 -0.1041  1.4122 -1.7495
 2796TIP3    H229804   3.811   3.724  11.636  1.6769 -0.2418  0.6570
 2797TIP3   OH229805   0.707   0.182  15.825  0.0330 -0.3041 -0.2117
 2797TIP3    H129806   0.741   0.102  15.785 -0.5059 -0.4473 -0.3938
 2797TIP3    H229807   0.680   0.237  15.751  0.6375  0.1572 -0.0970
 2798TIP3   OH229808   1.076   3.181  15.904  0.1589  0.0090  0.5380
 2798TIP3    H129809   1.025   3.260  15.919  1.5506  0.8664  0.9057
 2798TIP3    H229810   1.067   3.164  15.810 -1.8601 -0.6352  0.8187
 2799TIP3   OH229811   5.712   0.462   5.640 -0.1533 -0.5622 -0.5196
 2799TIP3    H129812   5.791   0.471   5.694 -0.6298  0.7342 -0.0077
 2799TIP3    H229813   5.654   0.406   5.691 -1.0041  1.4734  0.8393
 2800TIP3   OH229814   5.676   4.473  11.381 -0.4538  0.4090 -0.2413
 2800TIP3    H129815   5.711   4.457  11.468  1.0511  0.9896 -0.7100
 2800TIP3    H229816   5.715   4.405  11.326  0.2248  1.2458 -0.8326
 2801TIP3   OH229817   1.953   6.627  12.594 -0.3986  0.3847 -0.3420
 2801TIP3    H129818   1.915   6.542  12.572  0.5039 -1.0410  2.9330
 2801TIP3    H229819   1.882   6.674  12.637 -1.1686  1.7988 -2.9289
 2802TIP3   OH229820   4.832   1.795  11.783 -1.1031 -0.3105  0.0750
 2802TIP3    H129821   4.784   1.878  11.780 -1.7887 -0.6736  0.5476
 2802TIP3    H229822   4.794   1.748  11.858 -0.8749 -1.1371 -0.3080
 2803TIP3   OH229823   6.252   2.405  12.236 -0.2658 -0.1483  0.3984
 2803TIP3    H129824   6.246   2.343  12.163 -0.0751  0.9243 -0.5538
 2803TIP3    H229825   6.165   2.402  12.277 -0.3444 -0.8326  0.1874
 2804TIP3   OH229826   2.494   1.344  11.410 -0.0291 -0.6574 -0.3808
 2804TIP3    H129827   2.525   1.406  11.476 -2.8638  1.3670 -0.7663
 2804TIP3    H229828   2.509   1.258  11.449  0.0087  0.4144  2.1513
 2805TIP3   OH229829   3.023   4.911   2.928 -0.3905 -0.5283  0.3997
 2805TIP3    H129830   3.087   4.842   2.944 -0.0465 -0.1639  0.6145
 2805TIP3    H229831   3.056   4.959   2.853 -0.6468 -0.6180  0.2290
 2806TIP3   OH229832   4.794   1.071  11.617  0.2622  0.6031  0.8160
 2806TIP3    H129833   4.726   1.105  11.558 -0.4570 -1.1358  0.5726
 2806TIP3    H229834   4.876   1.099  11.577 -0.2270 -0.0654 -0.7649
 2807TIP3   OH229835   1.540   6.070  16.754 -0.1210 -0.4844 -0.1431
 2807TIP3    H129836   1.529   6.119  16.672 -2.5352  0.0939  0.4390
 2807TIP3    H229837   1.536   6.136  16.822  2.5434 -0.8826  0.5068
 2808TIP3   OH229838   4.815   0.755   0.687 -0.2044 -0.2872 -0.2762
 2808TIP3    H129839   4.818   0.839   0.642 -0.5481 -1.5284 -2.7998
 2808TIP3    H229840   4.787   0.776   0.776  1.7796  2.4545 -0.1813
 2809TIP3   OH229841   0.935   1.481  14.570  0.0008  0.1165 -0.1920
 2809TIP3    H129842   0.864   1.439  14.618 -0.2189 -0.3441 -0.8961
 2809TIP3    H229843   1.015   1.454  14.615 -0.2149 -0.1508  0.0299
 2810TIP3   OH229844   4.137   0.575   3.088 -0.2138 -0.1298 -0.0966
 2810TIP3    H129845   4.125   0.527   3.007 -1.6237 -0.3672  0.2166
 2810TIP3    H229846   4.069   0.541   3.146  0.4038  0.4337  0.9937
 2811TIP3   OH229847   2.531   4.787   3.510 -0.3705  0.4106  0.3516
 2811TIP3    H129848   2.551   4.697   3.535  0.3331 -0.2068 -2.1188
 2811TIP3    H229849   2.437   4.787   3.491  0.0760 -0.6328 -2.3369
 2812TIP3   OH229850   6.416   5.458   1.022  0.2508 -0.4002  0.1216
 2812TIP3    H129851   6.488   5.506   0.980  1.0586 -1.0266  0.7377
 2812TIP3    H229852   6.440   5.457   1.115 -1.3850  0.7816  0.6007
 2813TIP3   OH229853   0.413   4.920  13.842  0.1564  0.6669  0.6806
 2813TIP3    H129854   0.398   4.949  13.752  3.5417  0.1491 -0.1829
 2813TIP3    H229855   0.365   4.837  13.849 -0.5593  0.9608 -0.4574
 2814TIP3   OH229856   4.889   4.823  15.113  0.6808  0.3863  0.0115
 2814TIP3    H129857   4.912   4.905  15.156  0.8934 -0.3499  1.3882
 2814TIP3    H229858   4.821   4.785  15.169  0.0902 -0.0479 -0.9814
 2815TIP3   OH229859   0.824   6.382  11.194 -0.1551 -0.4647  0.2457
 2815TIP3    H129860   0.766   6.374  11.118  0.1533  0.7566 -0.1287
 2815TIP3    H229861   0.912   6.364  11.159  0.8413  5.0157 -0.9958
 2816TIP3   OH229862   4.821   2.587   3.156 -0.4136  0.1898 -0.1341
 2816TIP3    H129863   4.729   2.565   3.170 -0.2938 -1.6948 -1.7855
 2816TIP3    H229864   4.869   2.512   3.192  0.5143  1.1984  0.8083
 2817TIP3   OH229865   0.717   2.469  12.940 -0.0992  0.9663 -0.3945
 2817TIP3    H129866   0.757   2.385  12.918  1.0988  1.1965  0.7960
 2817TIP3    H229867   0.632   2.445  12.978  0.9945  0.1171  1.6991
 2818TIP3   OH229868   6.607   0.659   1.395  0.4398 -0.6140  0.0846
 2818TIP3    H129869   6.675   0.597   1.370  0.2669 -0.1330 -1.7031
 2818TIP3    H229870   6.608   0.725   1.326 -1.9732 -0.6986 -0.1188
 2819TIP3   OH229871   5.816   0.784  12.758 -0.0487 -0.0354  0.3242
 2819TIP3    H129872   5.884   0.724  12.788 -1.6125 -2.0778  0.0805
 2819TIP3    H229873   5.770   0.810  12.838  1.7936  2.4851  0.6537
 2820TIP3   OH229874   6.714   2.831   0.338 -0.3927  0.1345  0.0331
 2820TIP3    H129875   6.726   2.879   0.421 -0.6536 -0.0055  0.1509
 2820TIP3    H229876   6.653   2.885   0.288  2.1753  1.9212 -1.4068
 2821TIP3   OH229877   1.755   6.299   5.317 -0.5807  0.8779 -0.6389
 2821TIP3    H129878   1.839   6.341   5.332 -0.2703  0.0313  0.0034
 2821TIP3    H229879   1.749   6.291   5.222 -0.6157  2.2895 -0.7817
 2822TIP3   OH229880   5.951   1.787   1.002 -0.3344 -0.0953  0.2699
 2822TIP3    H129881   5.950   1.849   1.075 -0.6014 -0.0947  0.2693
 2822TIP3    H229882   5.859   1.779   0.976 -0.1080  0.9811 -0.9877
 2823TIP3   OH229883   4.938   6.337   3.897 -0.2876  0.3123  0.0114
 2823TIP3    H129884   4.955   6.282   3.974  1.7478  0.0212 -0.5937
 2823TIP3    H229885   5.024   6.370   3.871 -0.9483  0.6007 -2.0035
 2824TIP3   OH229886   4.701   2.395  11.223  0.2883 -0.1331  0.0614
 2824TIP3    H129887   4.636   2.348  11.276  1.2752 -0.3829  1.0963
 2824TIP3    H229888   4.650   2.456  11.170 -0.7818 -0.2669  0.9046
 2825TIP3   OH229889   0.891   1.233  12.076  0.0838 -0.0814 -0.6001
 2825TIP3    H129890   0.929   1.306  12.028 -0.7990 -0.8232 -2.5414
 2825TIP3    H229891   0.796   1.245  12.067 -0.1276 -0.3657  0.8481
 2826TIP3   OH229892   3.434   3.398  16.782  0.3913 -0.5868 -0.0252
 2826TIP3    H129893   3.521   3.426  16.811  0.1160 -1.2131  1.4790
 2826TIP3    H229894   3.401   3.344  16.853 -0.4548 -1.9785 -1.4046
 2827TIP3   OH229895   3.230   4.616  15.034  0.1210 -0.0270 -0.0420
 2827TIP3    H129896   3.162   4.549  15.027  0.8032 -0.8223  0.8481
 2827TIP3    H229897   3.234   4.655  14.947  0.4226 -1.8299 -0.8789
 2828TIP3   OH229898   6.405   6.233   3.314  0.1693  0.0037  0.1245
 2828TIP3    H129899   6.474   6.200   3.371  1.0597 -0.0937 -0.9810
 2828TIP3    H229900   6.334   6.257   3.374 -0.3887 -3.4384  1.0603
 2829TIP3   OH229901   4.593   5.383   5.930  0.2104 -0.1565 -0.3220
 2829TIP3    H129902   4.689   5.390   5.923  0.2266  1.7024  1.1430
 2829TIP3    H229903   4.577   5.360   6.022 -0.7566 -1.7847 -0.8417
 2830TIP3   OH229904   2.680   4.846   6.054 -0.0695 -0.5353  0.2366
 2830TIP3    H129905   2.591   4.834   6.088 -0.1860 -2.3906 -0.6097
 2830TIP3    H229906   2.723   4.761   6.069  0.9311 -0.2989 -1.1315
 2831TIP3   OH229907   1.801   5.215   5.354 -0.6106 -0.6569 -0.0026
 2831TIP3    H129908   1.793   5.217   5.450 -0.0698 -2.0130  0.0935
 2831TIP3    H229909   1.809   5.122   5.333 -0.0153 -0.3315 -1.3119
 2832TIP3   OH229910   2.595   4.488   5.813 -0.5625 -0.2876  0.2817
 2832TIP3    H129911   2.566   4.492   5.904 -1.0699 -0.5366  0.1374
 2832TIP3    H229912   2.690   4.489   5.818 -0.5544 -1.7358  0.8926
 2833TIP3   OH229913   5.607   5.401  10.973  0.1697 -0.3192  0.1897
 2833TIP3    H129914   5.617   5.483  10.924  1.8868 -0.0667  0.8785
 2833TIP3    H229915   5.547   5.349  10.921 -1.5067  1.6197  0.0597
 2834TIP3   OH229916   1.529   0.818  15.682 -0.3445  0.5219 -0.6508
 2834TIP3    H129917   1.577   0.815  15.765 -1.2872  1.6504 -0.0313
 2834TIP3    H229918   1.488   0.731  15.675 -0.4654  0.5058  0.1973
 2835TIP3   OH229919   4.899   1.153  16.486  0.0608  0.3941  0.4529
 2835TIP3    H129920   4.845   1.230  16.508  0.0326  0.4574  0.1711
 2835TIP3    H229921   4.888   1.094  16.560 -0.9129  0.1305  0.1192
 2836TIP3   OH229922   0.807   6.241  14.176  0.4351  0.1515  0.3760
 2836TIP3    H129923   0.740   6.215  14.240  1.9162 -2.3242  1.0613
 2836TIP3    H229924   0.890   6.217  14.218  1.4886 -1.3898 -2.3933
 2837TIP3   OH229925   1.650   0.327   2.279 -0.4433 -0.3521  0.5881
 2837TIP3    H129926   1.582   0.391   2.297  0.3822  1.1196 -1.1718
 2837TIP3    H229927   1.621   0.284   2.198  0.4560 -0.0259  0.0772
 2838TIP3   OH229928   2.847   4.042  16.678 -0.7783  0.1955  0.3283
 2838TIP3    H129929   2.920   3.982  16.664 -0.2187  1.1038 -0.8551
 2838TIP3    H229930   2.889   4.126  16.699 -1.4173  1.0074 -1.4829
 2839TIP3   OH229931   5.315   1.415   5.374  0.2487  0.4849 -0.3783
 2839TIP3    H129932   5.254   1.430   5.302 -0.7140  0.6506  0.4488
 2839TIP3    H229933   5.264   1.367   5.439  0.4830  2.0483  1.0431
 2840TIP3   OH229934   5.594   4.866  10.371  0.4347 -0.0492  0.0984
 2840TIP3    H129935   5.669   4.878  10.313 -1.0674  1.4404 -1.6692
 2840TIP3    H229936   5.559   4.780  10.347  1.7342 -0.9409  1.2204
 2841TIP3   OH229937   4.132   6.677   3.477  0.2949 -0.1986  0.1940
 2841TIP3    H129938   4.194   6.723   3.421 -2.9550 -0.5809 -4.2823
 2841TIP3    H229939   4.133   6.587   3.444 -1.4529 -0.5964  1.1050
 2842TIP3   OH229940   2.055   4.291  11.799  0.3592  0.3293 -0.0383
 2842TIP3    H129941   2.047   4.203  11.762  2.9991  0.4364 -1.0926
 2842TIP3    H229942   1.966   4.314  11.827 -0.4074 -2.6505  0.2810
 2843TIP3   OH229943   0.490   6.726  14.343 -0.3015 -0.0418 -0.2559
 2843TIP3    H129944   0.502   6.774  14.261 -0.8904  0.3347 -0.1294
 2843TIP3    H229945   0.579   6.713  14.376  0.1118 -1.9901 -1.9404
 2844TIP3   OH229946   3.990   2.835   5.519  0.0266  0.2276  0.3459
 2844TIP3    H129947   3.962   2.923   5.493 -0.2783  0.2302  0.6667
 2844TIP3    H229948   4.084   2.833   5.500 -0.2191  0.1444 -0.9360
 2845TIP3   OH229949   3.978   6.414   4.353  0.1512 -0.0955  0.1636
 2845TIP3    H129950   4.033   6.487   4.327  1.2200 -0.5925  0.9514
 2845TIP3    H229951   4.022   6.376   4.430  0.0681 -2.0643 -0.6917
 2846TIP3   OH229952   4.713   4.213  11.044 -0.3181  0.3188  0.6525
 2846TIP3    H129953   4.682   4.304  11.047  0.2654  0.5366  0.0491
 2846TIP3    H229954   4.635   4.163  11.021 -0.4189  0.7785 -0.0352
 2847TIP3   OH229955   1.806   6.459  11.852 -0.0059 -0.1994  0.4037
 2847TIP3    H129956   1.741   6.517  11.890  0.0560 -1.2221  2.1906
 2847TIP3    H229957   1.791   6.464  11.758 -1.4546  0.9747  0.6645
 2848TIP3   OH229958   1.540   4.318   1.394  0.1415 -0.5419 -0.0804
 2848TIP3    H129959   1.551   4.223   1.398 -3.3683 -1.1571 -1.4001
 2848TIP3    H229960   1.512   4.335   1.304  0.2346  1.6859  0.2643
 2849TIP3   OH229961   4.005   2.697  14.369  0.6214  0.1317  0.7456
 2849TIP3    H129962   3.959   2.710  14.286 -2.2365  1.0861  2.3530
 2849TIP3    H229963   4.067   2.770  14.373 -0.4064  1.0622  0.1809
 2850TIP3   OH229964   2.070   0.833  15.982  0.0641  0.8594  0.0207
 2850TIP3    H129965   2.055   0.766  16.049 -0.4578  1.4972  0.5526
 2850TIP3    H229966   2.112   0.905  16.029  2.4113  0.2061 -0.9000
 2851TIP3   OH229967   0.763   5.093  14.914 -0.3058 -0.3188 -0.5207
 2851TIP3    H129968   0.711   5.089  14.994 -0.3383 -0.7811 -0.5631
 2851TIP3    H229969   0.828   5.024  14.924 -0.2155 -0.2797 -0.8287
 2852TIP3   OH229970   0.731   0.109   4.382 -0.0217  0.1086  0.3439
 2852TIP3    H129971   0.711   0.088   4.473  2.0561  1.8686  1.2891
 2852TIP3    H229972   0.655   0.157   4.350 -1.5515 -2.0634  0.5051
 2853TIP3   OH229973   4.894   5.090   5.131 -0.6560  0.2943 -0.0523
 2853TIP3    H129974   4.807   5.104   5.096 -0.4918 -0.2602 -0.7028
 2853TIP3    H229975   4.953   5.104   5.057 -0.4400 -3.0523 -0.6621
 2854TIP3   OH229976   4.380   1.035  16.328  0.3452 -0.1542  0.3578
 2854TIP3    H129977   4.410   0.968  16.389 -0.9633 -0.5252  0.6200
 2854TIP3    H229978   4.285   1.034  16.336  0.2211  0.6718 -0.7667
 2855TIP3   OH229979   4.492   2.169  12.898 -0.3504 -0.1179  0.0719
 2855TIP3    H129980   4.455   2.229  12.964 -0.4274 -0.2442  0.1447
 2855TIP3    H229981   4.424   2.165  12.830  0.0781  0.6595 -0.4162
 2856TIP3   OH229982   6.025   5.389  12.446  0.4920 -0.0575  0.0025
 2856TIP3    H129983   6.120   5.390  12.439  0.4889  1.6605 -0.0849
 2856TIP3    H229984   6.007   5.361  12.536  1.1941  2.4747  1.0129
 2857TIP3   OH229985   2.923   5.651  14.858 -0.4319  0.1058 -0.8846
 2857TIP3    H129986   3.004   5.637  14.907 -0.6223  2.0299  0.0908
 2857TIP3    H229987   2.949   5.702  14.782 -0.5340 -0.5571 -1.3744
 2858TIP3   OH229988   6.138   2.861  13.646  0.3004  0.0359  0.3311
 2858TIP3    H129989   6.214   2.899  13.690  0.5414  1.6401 -1.3281
 2858TIP3    H229990   6.171   2.783  13.603  0.6671 -0.0691  0.8010
 2859TIP3   OH229991   4.221   5.765  14.743 -0.4073  0.3881 -0.0448
 2859TIP3    H129992   4.294   5.702  14.739 -0.7571  0.0602 -2.1537
 2859TIP3    H229993   4.261   5.849  14.721 -0.2312  0.6892  1.3028
 2860TIP3   OH229994   1.999   2.115   2.656 -0.3701  0.4228 -0.4428
 2860TIP3    H129995   2.032   2.181   2.595 -3.3762  0.5674 -2.1284
 2860TIP3    H229996   1.965   2.045   2.599 -0.8553 -0.7239  1.1698
 2861TIP3   OH229997   4.638   3.738   4.041  0.2209  0.1744 -0.6304
 2861TIP3    H129998   4.570   3.801   4.067  0.4964  1.2410 -2.3202
 2861TIP3    H229999   4.635   3.738   3.946  1.5860 -0.9040 -0.7035
 2862TIP3   OH230000   2.392   5.327   5.984 -0.5295 -0.5246 -0.6475
 2862TIP3    H130001   2.464   5.362   6.037  0.2837 -0.5870 -1.6627
 2862TIP3    H230002   2.340   5.275   6.046 -1.1109  1.4610  0.6311
 2863TIP3   OH230003   1.946   2.099  12.488 -0.0588 -0.1039  0.1830
 2863TIP3    H130004   1.887   2.043  12.437 -1.0947 -0.8442  2.0856
 2863TIP3    H230005   2.003   2.039  12.534  1.0885  0.5639 -0.3275
 2864TIP3   OH230006   5.246   4.323   5.414  0.0765 -0.2355  0.6984
 2864TIP3    H130007   5.241   4.283   5.328  2.3588  0.6235  0.0833
 2864TIP3    H230008   5.228   4.416   5.398  1.8431  0.1634  0.8813
 2865TIP3   OH230009   1.878   0.712   5.590  0.4567  0.1743  0.2241
 2865TIP3    H130010   1.857   0.705   5.683  1.8902 -0.0629  0.5407
 2865TIP3    H230011   1.945   0.780   5.586 -0.5141  1.1200 -0.8072
 2866TIP3   OH230012   2.129   5.314   2.865 -0.2292  0.3182 -0.3818
 2866TIP3    H130013   2.195   5.365   2.817  1.2416 -0.9668  0.1755
 2866TIP3    H230014   2.146   5.335   2.957 -1.1234  0.5615 -0.2694
 2867TIP3   OH230015   6.474   0.989  16.972  0.0405 -0.0885 -0.1338
 2867TIP3    H130016   6.497   0.906  17.015 -0.3069  0.3895  1.0228
 2867TIP3    H230017   6.415   0.963  16.901 -0.4165 -0.8094  0.4872
 2868TIP3   OH230018   2.138   2.066   2.306  0.5447  0.1245  0.2138
 2868TIP3    H130019   2.130   1.979   2.267  2.3126 -0.2112  0.5481
 2868TIP3    H230020   2.219   2.102   2.270 -0.2483  1.7423 -0.0839
 2869TIP3   OH230021   6.070   2.104  17.109 -0.3134  0.5131  0.1664
 2869TIP3    H130022   6.025   2.042  17.166 -2.6641 -0.5739 -2.6017
 2869TIP3    H230023   6.161   2.074  17.108 -1.2535 -2.7583 -0.6778
 2870TIP3   OH230024   4.726   0.186  12.929  0.5229 -0.0172 -0.2173
 2870TIP3    H130025   4.816   0.152  12.931  0.7167 -0.0655 -3.7498
 2870TIP3    H230026   4.671   0.112  12.954  1.2905 -1.2515 -2.0215
 2871TIP3   OH230027   0.744   4.451   4.413 -0.3290  0.0638  0.5320
 2871TIP3    H130028   0.714   4.362   4.429  0.1749 -0.3541 -0.6644
 2871TIP3    H230029   0.785   4.446   4.326  1.2861  1.0541  1.1902
 2872TIP3   OH230030   3.063   1.007  16.446  0.1157  0.1007 -0.0836
 2872TIP3    H130031   3.026   0.942  16.386 -2.3347 -0.0670  1.4833
 2872TIP3    H230032   3.113   0.954  16.509  0.9946  0.0949 -0.7659
 2873TIP3   OH230033   4.386   2.981   4.623 -0.5625 -0.1194  0.3939
 2873TIP3    H130034   4.341   2.967   4.540 -0.6974  1.3821  0.2019
 2873TIP3    H230035   4.395   3.076   4.631  1.3541 -0.3116  1.0769
 2874TIP3   OH230036   4.330   3.176  13.272  0.1270  0.2138 -0.3754
 2874TIP3    H130037   4.294   3.170  13.184  0.3643 -1.3792 -0.3996
 2874TIP3    H230038   4.334   3.085  13.302  0.8596  0.6595  0.9423
 2875TIP3   OH230039   5.939   5.972   4.255 -0.8186  0.5858  0.4221
 2875TIP3    H130040   5.976   5.896   4.301  0.2396  1.3574  0.8780
 2875TIP3    H230041   5.923   5.940   4.166 -0.5128 -0.2145  0.6430
 2876TIP3   OH230042   2.296   4.015   1.669 -0.1612 -0.4547 -0.6080
 2876TIP3    H130043   2.294   3.996   1.576  0.6142  0.4056 -0.8154
 2876TIP3    H230044   2.371   4.073   1.680 -0.7890  0.2053  0.3962
 2877TIP3   OH230045   6.401   3.585  14.027 -0.3362 -0.1418 -0.2711
 2877TIP3    H130046   6.425   3.564  14.117  0.6530  1.3656 -0.1442
 2877TIP3    H230047   6.481   3.571  13.977 -0.7304 -0.4292 -0.8305
 2878TIP3   OH230048   2.882   4.926   0.457  0.3649 -0.1413  0.4139
 2878TIP3    H130049   2.837   4.965   0.532 -0.7537 -3.3899  1.5990
 2878TIP3    H230050   2.966   4.970   0.454 -0.6678  2.1106  1.7249
 2879TIP3   OH230051   5.339   1.689   5.268  0.4898  0.0469 -0.0560
 2879TIP3    H130052   5.253   1.712   5.230  0.6444  1.3029  0.2900
 2879TIP3    H230053   5.341   1.594   5.267 -0.7311  0.0030 -0.4866
 2880TIP3   OH230054   3.224   3.368   0.200  0.0782 -0.6832 -0.1980
 2880TIP3    H130055   3.233   3.365   0.295  2.5220  0.2128 -0.3212
 2880TIP3    H230056   3.280   3.298   0.168 -1.2480 -1.4110 -0.9950
 2881TIP3   OH230057   0.133   2.790   2.408  0.5512  0.0339  0.3254
 2881TIP3    H130058   0.068   2.725   2.381 -1.6027  2.4457 -0.8045
 2881TIP3    H230059   0.111   2.808   2.500  0.3233  0.0236  0.2751
 2882TIP3   OH230060   2.864   0.326   2.723 -0.1045  0.6176 -0.1553
 2882TIP3    H130061   2.828   0.414   2.729  1.2826  1.1029  1.7214
 2882TIP3    H230062   2.958   0.339   2.710 -0.0887 -0.6105 -1.5064
 2883TIP3   OH230063   3.862   5.390   0.247 -0.2084  0.1583 -0.0822
 2883TIP3    H130064   3.812   5.308   0.238 -0.8434  0.6541 -1.4029
 2883TIP3    H230065   3.847   5.417   0.337 -0.1313 -1.0886  0.3258
 2884TIP3   OH230066   3.147   4.086  17.024 -0.2409 -0.0194 -0.2671
 2884TIP3    H130067   3.150   4.111  16.932 -2.1724  0.2843 -0.2819
 2884TIP3    H230068   3.105   4.000  17.025 -1.4423  0.5477  0.3884
 2885TIP3   OH230069   0.461   4.637   2.267 -0.5478 -0.5021  0.2708
 2885TIP3    H130070   0.550   4.653   2.237  0.0846  1.1247  2.6650
 2885TIP3    H230071   0.472   4.595   2.352 -2.1130 -1.3351  0.0988
 2886TIP3   OH230072   2.026   2.261  12.960  0.3389  0.0358 -0.0164
 2886TIP3    H130073   1.966   2.223  12.895  2.3602 -0.4360 -1.7107
 2886TIP3    H230074   2.045   2.188  13.020  0.3658 -0.2224 -0.3378
 2887TIP3   OH230075   1.238   0.646   1.175 -0.3530  0.2799 -0.4845
 2887TIP3    H130076   1.189   0.624   1.254  0.9914 -0.8582  0.0805
 2887TIP3    H230077   1.321   0.682   1.208  0.0561  0.1696 -1.3691
 2888TIP3   OH230078   2.725   5.431  12.778  0.4025 -0.2887  0.2296
 2888TIP3    H130079   2.809   5.424  12.823 -0.4779 -0.5372  1.9249
 2888TIP3    H230080   2.660   5.430  12.849 -0.9614  1.5592 -0.9036
 2889TIP3   OH230081   5.633   1.559  12.922  0.3249 -0.5496 -0.0239
 2889TIP3    H130082   5.726   1.547  12.940  0.4763 -0.4497 -0.7360
 2889TIP3    H230083   5.589   1.521  12.998  1.0013  3.9767  3.0170
 2890TIP3   OH230084   5.422   4.405   1.520 -0.0978  0.4782  0.2435
 2890TIP3    H130085   5.396   4.389   1.611  0.4588 -0.5549  0.2351
 2890TIP3    H230086   5.509   4.446   1.527  1.1552 -2.0078  0.1619
 2891TIP3   OH230087   5.571   4.454  15.527  0.5612  0.1495 -0.2312
 2891TIP3    H130088   5.529   4.526  15.479  2.1304  0.1531 -1.6946
 2891TIP3    H230089   5.578   4.486  15.616 -1.3690  0.6315 -0.2022
 2892TIP3   OH230090   1.375   4.745  13.159  0.1719 -0.1331 -0.2966
 2892TIP3    H130091   1.399   4.799  13.083  0.3266 -0.9550 -0.8469
 2892TIP3    H230092   1.351   4.660  13.121  0.9605 -0.7953  0.6339
 2893TIP3   OH230093   3.477   2.684   5.389 -0.1629  0.0067 -0.5877
 2893TIP3    H130094   3.537   2.758   5.398  1.1761 -1.2835  2.7285
 2893TIP3    H230095   3.527   2.617   5.343 -0.1533 -0.0002 -0.5672
 2894TIP3   OH230096   6.694   6.303   5.344  0.3872 -0.3684 -0.5638
 2894TIP3    H130097   6.630   6.314   5.274  0.0927  3.4970  0.0666
 2894TIP3    H230098   6.753   6.234   5.313 -2.1998 -1.8914 -2.5478
 2895TIP3   OH230099   1.790   0.325   0.026 -0.7745  0.0159 -0.7945
 2895TIP3    H130100   1.795   0.381  -0.051  3.0795  1.5644  0.3557
 2895TIP3    H230101   1.791   0.236  -0.009 -0.6039  0.6767 -2.5576
 2896TIP3   OH230102   0.653   3.447  13.514  0.1333 -0.2018 -0.5656
 2896TIP3    H130103   0.749   3.453  13.516  0.0705  0.6817  0.4152
 2896TIP3    H230104   0.635   3.354  13.533  0.7783 -0.1601  0.3124
 2897TIP3   OH230105   5.185   3.042  11.979  0.3630 -0.0498  0.0397
 2897TIP3    H130106   5.099   3.083  11.987 -0.5749 -1.9068 -0.0910
 2897TIP3    H230107   5.218   3.073  11.894 -0.3332  0.3855 -0.0827
 2898TIP3   OH230108   4.935   5.656  14.605 -0.0220  0.1040 -0.0188
 2898TIP3    H130109   4.905   5.574  14.564 -0.6348 -0.0296  0.6689
 2898TIP3    H230110   5.030   5.652  14.601 -0.0520  0.2029 -1.6290
 2899TIP3   OH230111   4.030   3.867   3.166 -0.1232 -0.2927 -0.0987
 2899TIP3    H130112   4.036   3.774   3.187 -0.6771  0.0987  1.9983
 2899TIP3    H230113   4.105   3.906   3.211 -0.4056  0.3917 -0.2207
 2900TIP3   OH230114   3.402   5.880  12.965 -0.6057  0.1935  0.6949
 2900TIP3    H130115   3.471   5.884  12.899 -2.2450  2.3549 -1.0257
 2900TIP3    H230116   3.444   5.909  13.046  0.5976  1.1585 -0.2396
 2901TIP3   OH230117   5.658   4.462  13.959  0.6614 -0.6530 -0.0913
 2901TIP3    H130118   5.699   4.537  14.005  2.3866 -0.3717 -1.9569
 2901TIP3    H230119   5.571   4.494  13.934 -0.1943 -0.6812  2.5237
 2902TIP3   OH230120   6.654   4.934  15.242 -0.5424 -0.0141 -0.1291
 2902TIP3    H130121   6.681   4.908  15.154 -2.0964 -0.5930 -0.4683
 2902TIP3    H230122   6.729   4.914  15.298  0.1359 -0.4539 -1.1853
 2903TIP3   OH230123   0.981   3.809  10.925  0.5203  0.7203  0.3279
 2903TIP3    H130124   1.025   3.859  10.994 -0.8396 -0.0185  1.7901
 2903TIP3    H230125   1.047   3.746  10.896  0.4378 -0.5029  2.6289
 2904TIP3   OH230126   1.849   1.503  13.548 -0.6035  0.1016 -0.0141
 2904TIP3    H130127   1.767   1.514  13.596 -1.9298  0.6224 -2.2537
 2904TIP3    H230128   1.828   1.442  13.477  0.8539  0.4902 -0.8240
 2905TIP3   OH230129   1.238   5.133   2.654 -1.0166  0.1610 -0.3503
 2905TIP3    H130130   1.170   5.081   2.697 -0.1316 -2.3214 -1.7212
 2905TIP3    H230131   1.196   5.166   2.575 -1.3556  0.8485  0.1143
 2906TIP3   OH230132   2.296   3.535  14.147 -0.0788 -0.3337 -0.4621
 2906TIP3    H130133   2.385   3.529  14.113  0.3887  1.6879  0.2722
 2906TIP3    H230134   2.241   3.544  14.069  0.6575  1.1073 -0.8535
 2907TIP3   OH230135   6.407   4.688   4.219 -0.3681  0.3071  0.0013
 2907TIP3    H130136   6.425   4.597   4.242 -1.2960  0.2921  0.7293
 2907TIP3    H230137   6.313   4.699   4.236 -0.2977  1.3546 -0.2231
 2908TIP3   OH230138   2.453   5.818  14.999  0.3716  0.3472  0.1767
 2908TIP3    H130139   2.525   5.801  15.060  0.5824 -0.2538 -0.2314
 2908TIP3    H230140   2.391   5.746  15.015  0.4500  0.1595 -0.3411
 2909TIP3   OH230141   3.567   4.037   3.044  0.1121  0.0945 -0.5022
 2909TIP3    H130142   3.472   4.046   3.039 -0.0304  1.3715  2.4383
 2909TIP3    H230143   3.581   3.975   3.116  1.5036  0.6832 -0.2294
 2910TIP3   OH230144   6.518   5.200  13.316  0.0980  0.6997 -0.4035
 2910TIP3    H130145   6.434   5.163  13.291  0.7558 -1.5368  0.4740
 2910TIP3    H230146   6.576   5.180  13.242  0.4394 -0.0095  0.0455
 2911TIP3   OH230147   5.742   4.744  16.293  0.7792  0.1857  0.0902
 2911TIP3    H130148   5.786   4.687  16.230 -2.7475 -0.7266 -1.7977
 2911TIP3    H230149   5.748   4.697  16.376  0.8140 -1.3196 -0.7364
 2912TIP3   OH230150   4.696   1.019   5.007  0.0115 -0.2695  0.2534
 2912TIP3    H130151   4.659   0.996   5.092 -1.0941 -0.5726 -0.2941
 2912TIP3    H230152   4.787   1.041   5.026 -0.3127  0.0208  1.5614
 2913TIP3   OH230153   5.683   3.855  15.596  0.2397 -0.4988  0.6132
 2913TIP3    H130154   5.756   3.804  15.632  1.5962  1.3029  0.5584
 2913TIP3    H230155   5.712   3.946  15.603 -0.5228  0.0997 -2.5873
 2914TIP3   OH230156   4.602   5.676  13.403  0.0666  0.0814  0.1717
 2914TIP3    H130157   4.530   5.618  13.429  0.0737  0.8331  2.0358
 2914TIP3    H230158   4.679   5.620  13.406  0.0808  0.1341  2.0141
 2915TIP3   OH230159   2.731   0.397   3.901 -0.5425  0.4302 -0.1163
 2915TIP3    H130160   2.772   0.346   3.971 -1.4317  0.9401  0.8064
 2915TIP3    H230161   2.766   0.486   3.913  0.3457  0.2335 -1.1774
 2916TIP3   OH230162   5.311   5.007   0.599 -0.0191 -0.2803 -0.1273
 2916TIP3    H130163   5.311   4.924   0.550 -1.7762 -0.6002  0.3140
 2916TIP3    H230164   5.280   4.982   0.686 -2.0124  1.0101 -0.3955
 2917TIP3   OH230165   0.213   4.528  11.400  0.2968 -0.2074 -0.5090
 2917TIP3    H130166   0.294   4.511  11.351 -0.2347  1.0851 -1.9220
 2917TIP3    H230167   0.184   4.613  11.369 -0.4556  0.3751  1.6317
 2918TIP3   OH230168   4.129   6.296  13.052  0.6740 -0.2367  0.5262
 2918TIP3    H130169   4.172   6.283  12.967  1.2076  0.2285  0.7208
 2918TIP3    H230170   4.057   6.357  13.033 -0.2699 -1.4410  0.0967
 2919TIP3   OH230171   1.216   1.749   3.621 -0.2693 -0.0899  0.3707
 2919TIP3    H130172   1.151   1.769   3.552 -0.4516  0.9942  0.8432
 2919TIP3    H230173   1.231   1.655   3.612 -0.6667 -0.0629 -0.8308
 2920TIP3   OH230174   2.247   0.637   1.339  0.5944 -0.2382 -0.0256
 2920TIP3    H130175   2.197   0.574   1.391 -0.9117  1.7864  1.1409
 2920TIP3    H230176   2.285   0.696   1.404 -0.0472  1.4468 -1.1059
 2921TIP3   OH230177   6.636   4.392  14.954  1.0381 -0.3800  0.2884
 2921TIP3    H130178   6.700   4.393  15.025 -0.1397 -1.1551  1.4059
 2921TIP3    H230179   6.661   4.316  14.900  0.0787 -1.7818  1.7152
 2922TIP3   OH230180   2.564   1.882   4.166  0.6062  0.1194  0.5940
 2922TIP3    H130181   2.531   1.961   4.123  0.7583 -0.5057 -0.7078
 2922TIP3    H230182   2.491   1.821   4.165  0.6766  0.0227  1.0474
 2923TIP3   OH230183   5.178   0.092   4.452  0.3738 -0.0423 -0.7912
 2923TIP3    H130184   5.152   0.057   4.367  0.4738 -0.6872 -0.5587
 2923TIP3    H230185   5.132   0.037   4.516  2.3771 -1.3193 -0.3650
 2924TIP3   OH230186   2.369   2.981   5.487 -0.0312  0.1307 -0.5121
 2924TIP3    H130187   2.358   3.039   5.563  0.8240  0.1623 -0.4052
 2924TIP3    H230188   2.434   2.917   5.515 -0.1274 -0.1958 -1.0275
 2925TIP3   OH230189   6.025   5.939  16.702 -0.5680 -0.0088 -0.0336
 2925TIP3    H130190   5.946   5.897  16.669 -0.4100 -0.4421  0.1361
 2925TIP3    H230191   6.063   5.875  16.762  0.0421  0.1009 -0.2963
 2926TIP3   OH230192   3.679   3.602   6.198 -0.2377  0.1431  0.1886
 2926TIP3    H130193   3.602   3.648   6.164  0.3437  0.8636 -0.1882
 2926TIP3    H230194   3.666   3.600   6.293 -1.0962 -0.4524  0.0705
 2927TIP3   OH230195   3.097   0.457  12.683  0.6715  0.1218 -0.4034
 2927TIP3    H130196   3.032   0.454  12.753 -0.8006 -2.8150 -1.7155
 2927TIP3    H230197   3.169   0.402  12.714  2.0930  2.3604  0.5196
 2928TIP3   OH230198   5.159   1.212   0.928 -0.9709  0.1304  0.1499
 2928TIP3    H130199   5.124   1.140   0.981 -0.6373 -0.0291  0.1563
 2928TIP3    H230200   5.160   1.287   0.987 -0.5860 -0.0507  0.3710
 2929TIP3   OH230201   0.791   0.654  11.782 -0.0729  0.3415  0.6187
 2929TIP3    H130202   0.875   0.662  11.826 -0.4780  2.6653  1.1344
 2929TIP3    H230203   0.785   0.562  11.756  2.3632  0.0048  1.0393
 2930TIP3   OH230204   0.073   6.252   3.694 -0.4204  0.2425  0.0327
 2930TIP3    H130205   0.080   6.159   3.716  0.1807 -0.1366 -1.5907
 2930TIP3    H230206   0.001   6.285   3.748 -0.9783 -1.2777  0.2545
 2931TIP3   OH230207   0.907   4.024  15.119 -0.1622  0.3827 -0.0270
 2931TIP3    H130208   0.819   4.053  15.095 -0.1278 -1.7897 -3.6870
 2931TIP3    H230209   0.965   4.088  15.079 -0.0015  1.4220  1.7783
 2932TIP3   OH230210   2.583   4.328   5.297 -0.0087  0.4595 -0.6786
 2932TIP3    H130211   2.525   4.394   5.259 -1.5821  0.5344  1.6304
 2932TIP3    H230212   2.600   4.359   5.386 -1.6223 -2.6324  0.8790
 2933TIP3   OH230213   2.500   1.214  16.315 -0.1151  0.1813  0.5696
 2933TIP3    H130214   2.522   1.307  16.320 -2.0654  0.6960  0.4071
 2933TIP3    H230215   2.448   1.206  16.235  0.6166 -1.2025  0.1888
 2934TIP3   OH230216   3.128   2.314   0.128  0.5825 -0.3669  0.2767
 2934TIP3    H130217   3.191   2.311   0.057  0.1391  0.8414 -0.1912
 2934TIP3    H230218   3.074   2.390   0.109 -0.0672 -0.5041  1.4741
 2935TIP3   OH230219   3.434   5.253   2.606 -0.1687  0.5930 -0.1473
 2935TIP3    H130220   3.494   5.326   2.593 -0.4884  0.8313 -0.3216
 2935TIP3    H230221   3.462   5.188   2.542  0.7763  0.1263  0.7205
 2936TIP3   OH230222   3.083   4.643  13.911  0.1244 -0.4277  0.2823
 2936TIP3    H130223   3.079   4.610  14.001  0.4600  1.6940  1.1454
 2936TIP3    H230224   2.995   4.631  13.878 -0.0882 -0.9686  1.0026
 2937TIP3   OH230225   2.956   5.877   6.278  0.1700 -0.0608 -0.2638
 2937TIP3    H130226   2.927   5.946   6.337  2.8297  1.5059 -0.6431
 2937TIP3    H230227   3.004   5.816   6.334 -1.2716 -1.1349 -0.1153
 2938TIP3   OH230228   1.350   2.057  17.054 -0.0498  0.1549  0.4150
 2938TIP3    H130229   1.270   2.064  17.002  0.9390 -2.0245 -1.6381
 2938TIP3    H230230   1.322   2.016  17.136 -1.0378 -0.8004 -0.3662
 2939TIP3   OH230231   0.311   5.590   3.826  0.4436 -0.1396 -0.1067
 2939TIP3    H130232   0.244   5.610   3.761 -0.7628 -1.8388  0.5471
 2939TIP3    H230233   0.262   5.562   3.903  1.8770  0.5288  1.0963
 2940TIP3   OH230234   3.668   1.455   3.585  0.1418  0.0859 -0.0597
 2940TIP3    H130235   3.685   1.363   3.565  0.8761 -0.0928  1.2154
 2940TIP3    H230236   3.585   1.454   3.632 -0.0530  0.1289 -0.4006
 2941TIP3   OH230237   3.403   5.686  14.887 -0.1840  0.6381  0.1762
 2941TIP3    H130238   3.493   5.658  14.869 -0.4974  1.0860 -2.6831
 2941TIP3    H230239   3.408   5.781  14.894 -0.5685  0.8106 -1.4641
 2942TIP3   OH230240   1.546   5.016  16.467 -0.1202  0.4998 -0.0977
 2942TIP3    H130241   1.569   4.994  16.377 -0.7110  0.1730 -0.1705
 2942TIP3    H230242   1.607   4.965  16.520 -1.5114 -1.4348 -0.2611
 2943TIP3   OH230243   5.021   5.057  13.080  0.4181  0.3542  0.5530
 2943TIP3    H130244   4.930   5.083  13.095  0.6222  1.5421 -0.1437
 2943TIP3    H230245   5.067   5.082  13.160  0.3290  0.7714  0.4763
 2944TIP3   OH230246   0.752   2.029   1.976 -0.5593  0.1334 -0.7125
 2944TIP3    H130247   0.755   2.014   2.070  1.3265  2.2001 -0.3529
 2944TIP3    H230248   0.659   2.026   1.954 -1.1601  0.8940  1.4727
 2945TIP3   OH230249   5.849   3.300   2.112  0.2875  0.4387  0.5037
 2945TIP3    H130250   5.765   3.254   2.106  0.8972 -0.5218 -1.6643
 2945TIP3    H230251   5.908   3.237   2.155  0.5875 -0.0314 -0.5605
 2946TIP3   OH230252   5.014   5.664  16.558 -0.2764 -0.6179 -0.0913
 2946TIP3    H130253   5.054   5.578  16.567  1.2888  0.1697  1.1802
 2946TIP3    H230254   5.034   5.708  16.641 -0.7326  1.0759 -0.8251
 2947TIP3   OH230255   3.132   0.074   3.998  0.2039 -0.1717 -0.2971
 2947TIP3    H130256   3.144   0.040   4.086  0.2900 -0.6017 -0.4708
 2947TIP3    H230257   3.211   0.124   3.980 -0.5201  1.3233  0.4866
 2948TIP3   OH230258   0.025   6.408  13.805 -0.3322  0.8799  0.5841
 2948TIP3    H130259  -0.067   6.390  13.825 -0.3769  0.6181  0.1477
 2948TIP3    H230260   0.073   6.341  13.853 -0.3652  1.0345  0.8361
 2949TIP3   OH230261   2.300   0.400  12.442 -0.7805  0.1735  0.0458
 2949TIP3    H130262   2.384   0.438  12.465 -1.1456  0.6318  0.6615
 2949TIP3    H230263   2.306   0.381  12.349  0.7671 -1.7915  0.4767
 2950TIP3   OH230264   6.104   5.879  13.156  0.8898 -0.0012  0.7273
 2950TIP3    H130265   6.054   5.961  13.157  0.4604 -0.2658  1.7470
 2950TIP3    H230266   6.146   5.876  13.242  1.0153 -0.7816  0.6414
 2951TIP3   OH230267   0.360   5.141  11.398 -0.2176 -0.7838  0.2255
 2951TIP3    H130268   0.308   5.166  11.474 -0.7109 -3.4074  0.8657
 2951TIP3    H230269   0.337   5.206  11.331 -0.7323  0.8439  1.8974
 2952TIP3   OH230270   5.121   4.040   0.515  0.0529 -0.5045 -0.3546
 2952TIP3    H130271   5.108   4.117   0.572 -0.7743 -1.3362  0.6327
 2952TIP3    H230272   5.212   4.014   0.531  0.4615  0.4662 -0.9792
 2953TIP3   OH230273   1.323   3.063  14.590 -0.6215  0.5624  0.4352
 2953TIP3    H130274   1.408   3.021  14.573 -0.9324 -1.2579  2.8663
 2953TIP3    H230275   1.346   3.151  14.620  0.2969  0.6398 -0.4222
 2954TIP3   OH230276   4.810   6.618   4.480 -0.0211  0.0709 -1.0172
 2954TIP3    H130277   4.904   6.606   4.496  0.0617  1.4639 -0.2776
 2954TIP3    H230278   4.768   6.557   4.541  0.3967 -0.3074 -1.1013
 2955TIP3   OH230279   6.220   5.080   1.831  0.1028 -0.1901 -0.9036
 2955TIP3    H130280   6.197   5.141   1.761  0.2029  2.1590  0.9847
 2955TIP3    H230281   6.171   5.111   1.907  0.2901 -2.4163  0.2159
 2956TIP3   OH230282   3.272   3.215  13.961  0.0140  0.4161  0.1129
 2956TIP3    H130283   3.247   3.234  13.871 -0.6283  0.6913  0.3468
 2956TIP3    H230284   3.330   3.138  13.954 -0.5456  0.0357 -0.4736
 2957TIP3   OH230285   6.099   1.996  14.264  0.5265 -0.1469  0.1820
 2957TIP3    H130286   6.069   1.907  14.283 -0.6384  0.4102  1.1016
 2957TIP3    H230287   6.194   1.990  14.262  0.4994 -1.2100  1.2670
 2958TIP3   OH230288   4.113   4.361  12.309  0.4652  0.5627 -0.2669
 2958TIP3    H130289   4.085   4.342  12.398  1.6510  2.2096  0.5006
 2958TIP3    H230290   4.204   4.331  12.305  0.3069  0.1506 -1.0585
 2959TIP3   OH230291   2.099   3.261  12.068 -0.1471 -0.5293  0.1320
 2959TIP3    H130292   2.048   3.329  12.111  0.5070  0.2400 -0.2828
 2959TIP3    H230293   2.157   3.308  12.008 -1.1325 -1.5814 -1.7171
 2960TIP3   OH230294   4.473   6.485   6.174  0.3794 -0.3625 -0.0904
 2960TIP3    H130295   4.450   6.572   6.140 -0.2938 -0.2651  0.5812
 2960TIP3    H230296   4.388   6.440   6.183  0.5542 -0.4602  1.2397
 2961TIP3   OH230297   0.809   6.621   3.412  0.1051 -0.2066 -0.3655
 2961TIP3    H130298   0.903   6.616   3.428  0.0470 -1.0881 -0.2731
 2961TIP3    H230299   0.784   6.534   3.382 -0.5086  0.2886 -1.3879
 2962TIP3   OH230300   2.813   5.392   4.503 -0.3764  0.6683  0.0785
 2962TIP3    H130301   2.765   5.350   4.574  0.0161  1.1358  0.6357
 2962TIP3    H230302   2.756   5.464   4.474 -0.4708  0.5706  0.0243
 2963TIP3   OH230303   4.022   5.933  13.818  0.1148  0.1340  0.3926
 2963TIP3    H130304   3.932   5.923  13.785  0.0982  0.1438  0.4344
 2963TIP3    H230305   4.035   5.855  13.872 -0.3251  0.7576  1.4281
 2964TIP3   OH230306   3.334   0.655  10.518  0.0698 -0.5780  0.4347
 2964TIP3    H130307   3.335   0.701  10.434 -2.4731  0.4785  0.8623
 2964TIP3    H230308   3.310   0.723  10.581  0.1326 -1.7245  1.7277
 2965TIP3   OH230309   5.225   6.777  15.587 -0.1179  0.3902 -0.3576
 2965TIP3    H130310   5.158   6.842  15.566  0.1321  0.8544  0.2605
 2965TIP3    H230311   5.199   6.743  15.673  1.5927  2.1372  0.9276
 2966TIP3   OH230312   3.569   5.740  12.418  0.1232  0.0294  0.6323
 2966TIP3    H130313   3.613   5.672  12.470  0.7492 -1.4052 -1.6236
 2966TIP3    H230314   3.483   5.703  12.399  0.0739  0.3163  0.2853
 2967TIP3   OH230315   0.617   6.143  16.396 -0.1811 -0.0886 -0.0988
 2967TIP3    H130316   0.625   6.057  16.355 -2.3623  0.3800 -1.6895
 2967TIP3    H230317   0.557   6.191  16.339  1.3011  2.6681  0.5138
 2968TIP3   OH230318   2.942   4.491  10.681 -0.2593 -0.4068 -0.2628
 2968TIP3    H130319   3.037   4.482  10.690  0.3131  2.5157 -1.9115
 2968TIP3    H230320   2.919   4.429  10.612  0.8371  0.1682 -1.1891
 2969TIP3   OH230321   1.053   1.736  14.903 -0.6834 -0.3412 -0.2635
 2969TIP3    H130322   0.991   1.664  14.887  0.7459 -1.3456 -1.6764
 2969TIP3    H230323   1.117   1.728  14.831 -0.1945  2.0554 -0.1558
 2970TIP3   OH230324   6.317   2.956  12.078 -0.1761 -0.6312  0.0223
 2970TIP3    H130325   6.297   2.954  11.985 -0.2211  0.4675  0.0069
 2970TIP3    H230326   6.355   2.870  12.096  1.7177 -0.1378 -1.4249
 2971TIP3   OH230327   4.684   3.723  12.941 -0.0447  0.9342  0.0679
 2971TIP3    H130328   4.751   3.791  12.935  0.8690  0.1306  0.8018
 2971TIP3    H230329   4.650   3.715  12.852  1.7107  0.5036 -0.5903
 2972TIP3   OH230330   5.740   1.981   2.590 -0.3724  0.2603  0.0225
 2972TIP3    H130331   5.679   1.945   2.655 -1.8474  0.8104 -1.0046
 2972TIP3    H230332   5.759   2.069   2.620 -0.9044  0.4482 -0.1919
 2973TIP3   OH230333   5.050   6.394  15.104  0.3126  0.3564 -0.2183
 2973TIP3    H130334   5.083   6.448  15.177 -0.4304  1.1210 -0.4414
 2973TIP3    H230335   5.076   6.442  15.025  0.5879 -0.1702 -0.4566
 2974TIP3   OH230336   1.739   6.279   5.028  0.2087 -0.1204 -0.4290
 2974TIP3    H130337   1.765   6.338   4.957 -0.0589  1.6038  0.8293
 2974TIP3    H230338   1.750   6.191   4.992  1.9976  0.6489 -1.9255
 2975TIP3   OH230339   3.895   3.968   3.378  0.0403 -0.1464  0.0275
 2975TIP3    H130340   3.886   3.950   3.285 -2.4092  3.0061 -0.5326
 2975TIP3    H230341   3.949   4.047   3.383 -0.3743  0.0910  1.1865
 2976TIP3   OH230342   3.033   2.826   2.099  0.3996 -0.2473 -0.6623
 2976TIP3    H130343   2.987   2.908   2.114  1.0109  0.1222 -0.7327
 2976TIP3    H230344   3.020   2.775   2.179 -0.5924 -0.3889 -0.9030
 2977TIP3   OH230345   0.243   4.916   1.087 -0.2886 -0.3724  0.4099
 2977TIP3    H130346   0.303   4.991   1.084  0.2746 -0.8107  0.4622
 2977TIP3    H230347   0.199   4.924   1.172  0.4794 -0.6270  0.8494
 2978TIP3   OH230348   3.665   2.049   3.365 -0.4789  0.0127  0.0378
 2978TIP3    H130349   3.574   2.072   3.384 -0.3494  1.4544 -0.8650
 2978TIP3    H230350   3.698   2.010   3.445 -1.6561  0.2641  0.6617
 2979TIP3   OH230351   2.696   3.977   4.876 -0.3431  0.7085 -0.2235
 2979TIP3    H130352   2.676   3.998   4.785  0.3364 -0.0822 -0.5626
 2979TIP3    H230353   2.791   3.969   4.879 -0.4083  0.0585  0.3994
 2980TIP3   OH230354   4.311   2.872   5.401 -0.3168  0.2989  0.4498
 2980TIP3    H130355   4.305   2.835   5.313 -1.0033  0.1158  0.5638
 2980TIP3    H230356   4.350   2.958   5.389  2.1352 -0.7637  0.2700
 2981TIP3   OH230357   5.640   3.216  11.945  0.5389  0.2657 -0.0046
 2981TIP3    H130358   5.723   3.248  11.981  1.5575 -2.0457 -0.1073
 2981TIP3    H230359   5.664   3.137  11.897 -1.5006  0.5426 -1.6069
 2982TIP3   OH230360   1.237   1.134  11.867 -0.3067  0.1463  0.3780
 2982TIP3    H130361   1.167   1.083  11.826 -0.3254  0.9885 -0.6846
 2982TIP3    H230362   1.255   1.204  11.805  0.8877  0.4524  1.0359
 2983TIP3   OH230363   3.044   4.418  13.445  0.0767 -0.1390  0.0999
 2983TIP3    H130364   3.020   4.503  13.483  2.7017  0.8484 -0.2415
 2983TIP3    H230365   3.091   4.373  13.515  1.2051 -0.0844 -0.5958
 2984TIP3   OH230366   4.927   0.356  13.183  0.3868 -0.2096  0.1092
 2984TIP3    H130367   4.831   0.358  13.180  0.3765 -0.5980  0.0787
 2984TIP3    H230368   4.954   0.427  13.124  0.1159  1.1123  1.5297
 2985TIP3   OH230369   2.952   5.464  17.045  0.4869 -0.1287 -0.2428
 2985TIP3    H130370   2.966   5.375  17.077  0.3539 -0.2087 -0.4053
 2985TIP3    H230371   2.995   5.519  17.110  2.8040 -0.4241 -1.4267
 2986TIP3   OH230372   1.106   6.135   4.257  0.0838 -0.0290 -0.2702
 2986TIP3    H130373   1.161   6.057   4.250 -0.9688 -0.6872 -1.8176
 2986TIP3    H230374   1.129   6.173   4.341  0.7633 -1.9009  0.4496
 2987TIP3   OH230375   3.281   0.665   5.508  0.3670  0.3088 -0.0791
 2987TIP3    H130376   3.202   0.706   5.543 -0.0472  0.0793 -0.7378
 2987TIP3    H230377   3.331   0.738   5.470 -0.1412  0.2758 -0.8209
 2988TIP3   OH230378   3.519   6.147  14.479 -0.2485 -0.1053  0.0421
 2988TIP3    H130379   3.509   6.054  14.458 -1.0618 -0.1620  0.6270
 2988TIP3    H230380   3.450   6.191  14.429 -0.5185  0.0580  0.5481
 2989TIP3   OH230381   0.768   2.764   2.258 -0.0062 -0.5332  0.2561
 2989TIP3    H130382   0.765   2.848   2.305 -1.6552 -0.3506 -0.0936
 2989TIP3    H230383   0.838   2.775   2.194 -2.0111  1.7370 -1.7656
 2990TIP3   OH230384   6.027   4.694  13.016  0.0963  0.4628  0.3580
 2990TIP3    H130385   6.066   4.732  12.937  0.0027 -0.2945 -0.0597
 2990TIP3    H230386   5.948   4.746  13.031  0.1047  0.6016 -0.0606
 2991TIP3   OH230387   5.290   3.179  14.173 -0.4637 -0.0982  0.0296
 2991TIP3    H130388   5.303   3.249  14.110  0.8871 -0.8589 -0.5687
 2991TIP3    H230389   5.331   3.102  14.133 -0.4360 -0.8330  1.4002
 2992TIP3   OH230390   6.651   0.830   1.191  0.1620  0.1738  0.0313
 2992TIP3    H130391   6.742   0.859   1.184  0.6066 -1.0664  0.3858
 2992TIP3    H230392   6.634   0.784   1.110  0.8871 -2.2703  1.1730
 2993TIP3   OH230393   4.094   1.589  12.784  0.5474 -0.8028 -0.0541
 2993TIP3    H130394   4.154   1.575  12.711  0.2314 -2.9344  0.0078
 2993TIP3    H230395   4.018   1.534  12.763 -0.8355  0.8322  0.4811
 2994TIP3   OH230396   5.711   5.320  12.037  0.0353 -0.1959  0.2975
 2994TIP3    H130397   5.708   5.409  12.071  1.3933  0.8447 -2.0963
 2994TIP3    H230398   5.767   5.273  12.099 -0.9704  0.4596  1.7796
 2995TIP3   OH230399   4.430   1.445  13.856 -0.5892 -0.0804  0.0464
 2995TIP3    H130400   4.427   1.391  13.935 -1.8989  0.0114  0.0900
 2995TIP3    H230401   4.338   1.461  13.835 -0.2807  2.6667  0.3779
 2996TIP3   OH230402   5.154   0.413   2.497 -0.2088 -0.1438  0.0012
 2996TIP3    H130403   5.064   0.419   2.465  0.3921  1.8438 -1.5658
 2996TIP3    H230404   5.148   0.363   2.579 -2.6346 -0.5178 -0.3404
 2997TIP3   OH230405   4.548   2.553  15.142 -0.2826  0.2694  0.7211
 2997TIP3    H130406   4.514   2.541  15.054 -0.1124  1.9752  0.4042
 2997TIP3    H230407   4.567   2.464  15.172 -0.0201 -0.3125 -1.0718
 2998TIP3   OH230408   1.181   1.971   0.107  0.2675 -0.5048 -0.4891
 2998TIP3    H130409   1.106   1.916   0.085  0.5294 -0.8024 -0.6437
 2998TIP3    H230410   1.143   2.045   0.156  0.1500 -1.9395  1.7271
 2999TIP3   OH230411   4.769   5.379   3.946  0.2475 -0.0795  0.1604
 2999TIP3    H130412   4.700   5.366   4.011  0.9080  1.6114  1.2732
 2999TIP3    H230413   4.767   5.299   3.893  1.0805 -2.6021  3.5556
 3000TIP3   OH230414   4.816   1.935   4.588 -0.0710  0.2133  0.1040
 3000TIP3    H130415   4.904   1.903   4.610 -0.1493 -2.1821 -2.5346
 3000TIP3    H230416   4.814   1.938   4.493 -2.9095  0.0003  0.0686
 3001TIP3   OH230417   6.261   4.508  16.164  0.5835  0.2825 -0.3142
 3001TIP3    H130418   6.200   4.469  16.227 -0.1870 -0.5288 -1.5186
 3001TIP3    H230419   6.226   4.484  16.079  2.3835  0.1418 -1.0600
 3002TIP3   OH230420   4.123   2.711  11.527 -0.4516  0.0440  0.3851
 3002TIP3    H130421   4.177   2.789  11.535 -0.8670  0.1391  2.6900
 3002TIP3    H230422   4.118   2.675  11.615  1.3134 -3.7232 -0.8459
 3003TIP3   OH230423   4.281   0.199   2.893 -0.2416  0.0246  0.0222
 3003TIP3    H130424   4.259   0.122   2.840  0.4437  0.3736 -0.7948
 3003TIP3    H230425   4.213   0.202   2.960 -0.9258 -0.6448 -0.6180
 3004TIP3   OH230426   3.219   0.898   1.794 -0.1934  0.1980 -0.3658
 3004TIP3    H130427   3.161   0.920   1.867 -0.2527 -0.2966 -0.2562
 3004TIP3    H230428   3.270   0.977   1.778  0.8812 -0.1412  1.1905
 3005TIP3   OH230429   4.677   6.378  14.139  0.6992  0.6930 -0.9349
 3005TIP3    H130430   4.678   6.429  14.058  0.8504  0.1831 -1.2597
 3005TIP3    H230431   4.769   6.378  14.168  0.4408  1.9757 -0.0539
 3006TIP3   OH230432   4.325   3.987  12.792 -0.1583  1.0947  0.4467
 3006TIP3    H130433   4.383   3.959  12.863  0.3681  2.0204  0.3824
 3006TIP3    H230434   4.373   3.968  12.712 -1.7360 -2.3809  0.1118
 3007TIP3   OH230435   6.503   6.326   6.455  0.1395 -0.0285 -0.4292
 3007TIP3    H130436   6.519   6.283   6.372  0.0756  2.6377 -1.9390
 3007TIP3    H230437   6.590   6.355   6.484  0.1005 -0.5214  0.2023
 3008TIP3   OH230438   0.696   2.317  13.689  0.1673  0.6402  0.8743
 3008TIP3    H130439   0.610   2.285  13.719 -0.5337  1.0993 -0.5562
 3008TIP3    H230440   0.743   2.237  13.665 -1.3679  0.4882 -2.1373
 3009TIP3   OH230441   4.541   5.313   4.131 -0.5924 -0.4016  0.8490
 3009TIP3    H130442   4.518   5.305   4.223  1.4273 -1.7701  1.2944
 3009TIP3    H230443   4.488   5.247   4.087 -1.5929  0.2849  0.9951
 3010TIP3   OH230444   1.958   0.348  11.530  0.0247  0.5265 -0.1586
 3010TIP3    H130445   1.944   0.306  11.615 -0.4979 -0.0299 -0.5136
 3010TIP3    H230446   2.018   0.290  11.484  0.2377  0.7828 -0.2047
 3011TIP3   OH230447   5.696   3.074  11.695 -0.6189  0.0287 -0.4225
 3011TIP3    H130448   5.674   3.015  11.622  0.5726  0.2327 -0.9705
 3011TIP3    H230449   5.776   3.118  11.667 -0.7689  0.9529  0.5433
 3012TIP3   OH230450   5.370   3.992   5.357  0.4405 -0.4348  0.0390
 3012TIP3    H130451   5.421   3.974   5.436  2.4011  1.3245 -0.7415
 3012TIP3    H230452   5.431   4.035   5.298 -1.4094 -0.2256 -1.8315
 3013TIP3   OH230453   0.531   3.410  16.248 -0.5619 -0.4610  0.5480
 3013TIP3    H130454   0.528   3.322  16.285  0.3602 -0.0502  1.6738
 3013TIP3    H230455   0.617   3.444  16.274 -0.4767  0.3893 -0.7692
 3014TIP3   OH230456   0.888   6.314   5.657 -0.4969 -0.4522  0.0706
 3014TIP3    H130457   0.920   6.402   5.636  0.3522 -0.8182 -0.2095
 3014TIP3    H230458   0.793   6.322   5.655 -0.4575 -0.0410 -2.0758
 3015TIP3   OH230459   6.723   6.637  14.532 -0.1625 -0.4251  0.1243
 3015TIP3    H130460   6.662   6.598  14.470  3.5121 -1.1679 -3.4194
 3015TIP3    H230461   6.750   6.564  14.588 -2.6803  0.0313  2.1570
 3016TIP3   OH230462   4.778   4.891  14.314 -0.0977 -0.3310 -0.2499
 3016TIP3    H130463   4.864   4.891  14.272  0.1178  0.4681  0.1671
 3016TIP3    H230464   4.761   4.983  14.333  0.5821 -0.7301  2.9341
 3017TIP3   OH230465   2.014   2.955  15.096  0.4577  0.5986  0.3431
 3017TIP3    H130466   1.964   2.879  15.068  1.8357 -0.3666  0.3983
 3017TIP3    H230467   2.001   3.020  15.028 -0.1319  0.0335 -0.0859
 3018TIP3   OH230468   2.696   2.754   5.558 -0.0904  0.4194 -0.3288
 3018TIP3    H130469   2.689   2.727   5.649 -2.6499  2.8746  0.3630
 3018TIP3    H230470   2.758   2.827   5.559  0.7375 -0.2496 -0.8107
 3019TIP3   OH230471   0.254   0.486   4.614  0.2987 -0.3448  0.4283
 3019TIP3    H130472   0.244   0.527   4.699 -1.0616 -1.5194  0.8813
 3019TIP3    H230473   0.312   0.412   4.630  0.0687 -0.5464  0.3438
 3020TIP3   OH230474   2.802   3.513   1.693  0.5742  0.1239  0.2496
 3020TIP3    H130475   2.817   3.560   1.611  0.7200 -0.6299 -0.1682
 3020TIP3    H230476   2.772   3.580   1.754 -0.2801  0.5736 -0.6322
 3021TIP3   OH230477   3.692   3.651  14.721 -0.2961 -0.0581 -0.0080
 3021TIP3    H130478   3.737   3.713  14.778 -1.3030  1.5525 -0.9043
 3021TIP3    H230479   3.599   3.665  14.737 -0.5647 -0.9566 -0.6363
 3022TIP3   OH230480   4.550   4.866  12.549  0.0587 -0.4730 -0.1128
 3022TIP3    H130481   4.557   4.848  12.455 -3.6338 -0.9579 -0.4561
 3022TIP3    H230482   4.529   4.781  12.587 -0.3136  0.0486  0.8672
 3023TIP3   OH230483   0.853   0.855   5.884 -0.5020 -0.7882  0.3779
 3023TIP3    H130484   0.851   0.877   5.791 -1.2093 -0.2015  0.5187
 3023TIP3    H230485   0.941   0.877   5.912 -0.9072  1.0618  0.3008
 3024TIP3   OH230486   3.793   5.874  16.645 -0.1486 -0.2244  0.4952
 3024TIP3    H130487   3.821   5.866  16.554  1.3789 -0.8616  0.9741
 3024TIP3    H230488   3.698   5.882  16.641 -0.0692  0.3669 -1.1744
 3025TIP3   OH230489   6.499   6.125   0.568 -0.2018  0.2661 -1.1628
 3025TIP3    H130490   6.574   6.080   0.528 -0.7418 -0.8480 -0.9729
 3025TIP3    H230491   6.487   6.081   0.652 -0.2843  1.3016 -0.6154
 3026TIP3   OH230492   4.131   5.570   4.543 -0.0986  0.0626 -0.2585
 3026TIP3    H130493   4.183   5.496   4.513  0.8746  0.3502  0.6581
 3026TIP3    H230494   4.146   5.573   4.638 -0.3810  1.2367 -0.2389
 3027TIP3   OH230495   6.602   6.138   1.250 -0.0481  0.8075 -0.2434
 3027TIP3    H130496   6.674   6.187   1.289  0.4099 -0.9382  1.2372
 3027TIP3    H230497   6.643   6.090   1.178  0.0029  0.7717 -0.1904
 3028TIP3   OH230498   4.370   2.812  12.442  0.3394 -0.6689  0.2663
 3028TIP3    H130499   4.334   2.792  12.356 -0.5104  2.4099 -0.1989
 3028TIP3    H230500   4.294   2.824  12.499  0.8446 -0.7312  0.9803
 3029TIP3   OH230501   0.957   6.319   1.259 -0.2701  0.6249 -0.0225
 3029TIP3    H130502   0.995   6.235   1.234 -1.4899  0.2931 -0.8577
 3029TIP3    H230503   0.907   6.300   1.339 -0.0784  0.6764  0.1084
 3030TIP3   OH230504   1.651   5.921  13.504  0.3692 -0.3587  0.0946
 3030TIP3    H130505   1.618   5.921  13.414  1.4790  2.9194 -0.4543
 3030TIP3    H230506   1.585   5.968  13.554  0.5581 -0.6518  0.6210
 3031TIP3   OH230507   4.589   3.863   4.592 -0.5956 -0.1312 -0.5693
 3031TIP3    H130508   4.624   3.865   4.681 -1.2380 -3.7022 -0.0725
 3031TIP3    H230509   4.659   3.825   4.539 -1.6605 -2.1236 -0.6536
 3032TIP3   OH230510   4.493   1.392   2.220  0.4723 -0.3333 -0.2604
 3032TIP3    H130511   4.417   1.413   2.167  1.3678 -0.7782 -1.7677
 3032TIP3    H230512   4.566   1.388   2.158  1.5371 -1.0070  0.9789
 3033TIP3   OH230513   6.117   4.492  14.044 -0.0789  0.6760 -0.4132
 3033TIP3    H130514   6.199   4.466  14.086  1.1025  1.7223 -1.9442
 3033TIP3    H230515   6.049   4.443  14.090  1.5011 -0.9445  0.2773
 3034TIP3   OH230516   2.697   4.667   0.011  0.3324 -0.1589  0.2268
 3034TIP3    H130517   2.774   4.650   0.065  0.3967  1.8755  0.8479
 3034TIP3    H230518   2.643   4.589   0.022 -0.1168  0.5048  4.0320
 3035TIP3   OH230519   3.483   2.495   5.739  0.6226 -0.2941  0.3030
 3035TIP3    H130520   3.429   2.565   5.704  0.7313  0.2352  1.1556
 3035TIP3    H230521   3.421   2.427   5.766  0.5297 -0.6077 -0.6869
 3036TIP3   OH230522   0.345   0.537  16.165 -0.4887 -0.3180  1.0919
 3036TIP3    H130523   0.364   0.561  16.074 -0.6885 -0.5296  0.9932
 3036TIP3    H230524   0.385   0.606  16.217  2.1171 -1.6301  0.9810
 3037TIP3   OH230525   1.558   2.405  15.765  0.6257 -0.3232 -0.7902
 3037TIP3    H130526   1.578   2.499  15.767 -0.9599  0.0384 -0.0696
 3037TIP3    H230527   1.581   2.374  15.852 -0.2087 -0.2895 -0.5560
 3038TIP3   OH230528   4.221   6.759   2.744 -0.1707  0.0913  0.1950
 3038TIP3    H130529   4.222   6.703   2.667 -1.3436  0.6509 -0.2502
 3038TIP3    H230530   4.135   6.745   2.783 -0.4157  1.4021  0.1833
 3039TIP3   OH230531   1.707   3.921  15.957 -0.2605  0.3232  0.0559
 3039TIP3    H130532   1.704   3.995  15.897 -0.5677 -0.2763 -0.6906
 3039TIP3    H230533   1.777   3.865  15.922  0.3270  0.5062  0.9104
 3040TIP3   OH230534   1.491   4.552   5.956  0.2057  0.4879  0.7879
 3040TIP3    H130535   1.502   4.616   6.026  0.4157 -1.0560  2.2150
 3040TIP3    H230536   1.546   4.478   5.982  1.2829  0.3289 -1.6261
 3041TIP3   OH230537   5.851   2.186  12.004  0.3262  0.5306 -0.4199
 3041TIP3    H130538   5.844   2.214  11.913 -1.0274 -0.3986 -0.6289
 3041TIP3    H230539   5.822   2.095  12.003 -0.0431  0.6129  0.9930
 3042TIP3   OH230540   4.042   1.548   5.140  0.1513  0.0947  0.6030
 3042TIP3    H130541   4.068   1.615   5.076 -1.3750  0.8364  0.7156
 3042TIP3    H230542   3.995   1.597   5.208 -1.9509 -1.1818  0.1543
 3043TIP3   OH230543   4.763   4.067  11.270  0.1877  0.1964 -0.2068
 3043TIP3    H130544   4.751   4.145  11.216 -0.0042  1.2863  1.3293
 3043TIP3    H230545   4.841   4.086  11.322 -0.0700 -0.4752  0.4420
 3044TIP3   OH230546   0.992   3.876  12.691  0.8955  0.3442 -0.5967
 3044TIP3    H130547   0.976   3.843  12.603 -1.2202 -0.9197  0.1773
 3044TIP3    H230548   0.978   3.971  12.685 -0.2196  0.1397 -1.4309
 3045TIP3   OH230549   3.846   2.803  13.339 -0.0766  0.6334  0.3718
 3045TIP3    H130550   3.859   2.791  13.433 -0.7770  0.2299  0.4176
 3045TIP3    H230551   3.777   2.742  13.315  0.1220  0.6978 -0.4204
 3046TIP3   OH230552   1.257   3.305  11.334 -0.8029 -0.2225  0.2076
 3046TIP3    H130553   1.266   3.221  11.377  2.2746 -0.6057 -0.9410
 3046TIP3    H230554   1.273   3.287  11.241 -1.4981  1.4407 -0.2860
 3047TIP3   OH230555   4.157   6.044  16.570  0.1810  0.1551 -0.1909
 3047TIP3    H130556   4.146   6.028  16.664 -1.2137  0.5010 -0.2774
 3047TIP3    H230557   4.070   6.031  16.533  0.5295  0.8738 -1.3125
 3048TIP3   OH230558   0.910   6.062  13.951 -0.3938  0.0427 -0.6067
 3048TIP3    H130559   0.874   6.077  13.864  0.4223 -0.8558 -1.1098
 3048TIP3    H230560   0.964   6.139  13.969 -1.6024  0.8536 -0.3260
 3049TIP3   OH230561   6.635   6.716  15.732  0.0236 -0.3156  0.5333
 3049TIP3    H130562   6.633   6.812  15.728 -0.6820 -0.3649 -2.1294
 3049TIP3    H230563   6.561   6.692  15.787 -1.4469  0.6652 -0.9381
 3050TIP3   OH230564   1.351   0.566   3.869 -0.4215 -0.5631 -0.2514
 3050TIP3    H130565   1.444   0.544   3.868  0.0314  1.1561  0.2606
 3050TIP3    H230566   1.349   0.662   3.864 -2.1262 -0.4942  0.8407
 3051TIP3   OH230567   2.132   3.815  10.600  0.4055 -0.2437  0.2161
 3051TIP3    H130568   2.170   3.840  10.515 -0.4870  2.1650  0.4488
 3051TIP3    H230569   2.072   3.743  10.579 -0.2545  0.6992 -1.3247
 3052TIP3   OH230570   2.192   4.016  16.746 -0.4689  0.1954 -0.3241
 3052TIP3    H130571   2.176   4.102  16.707 -2.4693 -0.3382 -0.8364
 3052TIP3    H230572   2.171   3.954  16.675  1.8984 -0.7460 -0.2935
 3053TIP3   OH230573   5.514   2.091   1.111  0.1462 -0.6617  0.1566
 3053TIP3    H130574   5.474   2.174   1.084 -0.7390 -1.5401 -1.3382
 3053TIP3    H230575   5.465   2.065   1.189 -0.1745 -0.2256  0.1041
 3054TIP3   OH230576   1.867   3.928  15.105 -0.1116  0.0372 -0.1619
 3054TIP3    H130577   1.928   3.924  15.031 -0.2293 -1.0813 -0.2179
 3054TIP3    H230578   1.816   4.007  15.089 -1.8106 -1.4134 -2.6507
 3055TIP3   OH230579   3.443   0.784   4.673 -0.2130  0.2688 -0.1172
 3055TIP3    H130580   3.358   0.784   4.628 -0.5205  2.2804  0.3777
 3055TIP3    H230581   3.468   0.876   4.677  2.8705 -0.3520 -1.7883
 3056TIP3   OH230582   1.017   6.132  11.137 -0.0790 -0.5343 -0.6322
 3056TIP3    H130583   1.027   6.226  11.118 -1.8449 -0.2521 -0.2735
 3056TIP3    H230584   1.083   6.115  11.205  2.1071 -0.2068 -2.5471
 3057TIP3   OH230585   0.908   2.854   1.564  0.3708  0.2078  0.1315
 3057TIP3    H130586   0.838   2.884   1.507 -1.2463 -0.3002  1.7722
 3057TIP3    H230587   0.934   2.931   1.614  0.1948  0.1480  0.3159
 3058TIP3   OH230588   0.997   4.444  14.434  0.1767  0.7550 -0.4455
 3058TIP3    H130589   1.012   4.538  14.439 -0.6581  0.8800  0.0289
 3058TIP3    H230590   0.928   4.434  14.368  0.3359  0.4645 -0.5709
 3059TIP3   OH230591   0.934   3.048  12.925  0.5246 -0.1366  0.1597
 3059TIP3    H130592   0.913   2.991  12.851  0.9883 -0.8072  0.5320
 3059TIP3    H230593   0.947   2.988  12.998  1.1381  0.4433  0.5394
 3060TIP3   OH230594   0.916   2.257   4.959 -0.1126 -0.8199 -0.2226
 3060TIP3    H130595   1.007   2.269   4.984  0.6747 -4.4132 -0.8488
 3060TIP3    H230596   0.875   2.342   4.975  3.3879  1.0415 -0.3164
 3061TIP3   OH230597   2.147   5.877  14.853  0.2024 -0.1617 -0.1040
 3061TIP3    H130598   2.140   5.929  14.933 -1.1602  0.2584 -0.4825
 3061TIP3    H230599   2.064   5.890  14.807  0.5923 -1.1312 -1.1507
 3062TIP3   OH230600   6.411   1.561  12.135  0.2417 -0.6371  0.1095
 3062TIP3    H130601   6.447   1.649  12.144 -0.3638 -0.2900 -0.7421
 3062TIP3    H230602   6.438   1.516  12.215 -0.7812  0.8018  1.3385
 3063TIP3   OH230603   4.670   3.822  14.960  0.1332  0.0884  0.2490
 3063TIP3    H130604   4.729   3.815  15.035 -0.0856  1.5333  0.5717
 3063TIP3    H230605   4.612   3.746  14.968  0.7277 -0.2931  0.9947
 3064TIP3   OH230606   6.482   1.704  15.707  0.1352  0.7605  0.3845
 3064TIP3    H130607   6.482   1.613  15.677 -1.7737  0.2996  1.6453
 3064TIP3    H230608   6.411   1.709  15.770  0.9119  2.8839  1.1822
 3065TIP3   OH230609   0.950   3.660  17.042  0.1028 -0.0027 -0.1157
 3065TIP3    H130610   1.019   3.702  16.989 -0.0691  2.0435  1.1482
 3065TIP3    H230611   0.991   3.647  17.127 -0.7711  0.3559  0.3693
 3066TIP3   OH230612   0.844   4.003   1.467 -0.2257 -0.3431 -0.5471
 3066TIP3    H130613   0.884   3.968   1.547  0.0809  1.1636 -0.0104
 3066TIP3    H230614   0.766   3.950   1.454 -1.3242  0.5819  1.8372
 3067TIP3   OH230615   5.441   0.183   5.283 -0.0992 -0.1957 -0.7654
 3067TIP3    H130616   5.513   0.192   5.346  1.8054 -1.8532 -2.5507
 3067TIP3    H230617   5.473   0.226   5.204 -2.2364  1.4075 -0.8585
 3068TIP3   OH230618   6.696   3.331  13.957  0.3129  0.0520 -0.0003
 3068TIP3    H130619   6.650   3.256  13.995  0.3842  0.1459  0.2758
 3068TIP3    H230620   6.755   3.292  13.892  0.1376 -0.1034 -0.0679
 3069TIP3   OH230621   0.332   3.296  14.933 -0.0289 -0.3751 -0.0150
 3069TIP3    H130622   0.325   3.294  14.837 -0.1196 -1.5207  0.0037
 3069TIP3    H230623   0.333   3.204  14.959  2.9599 -0.1627  0.9080
 3070TIP3   OH230624   4.110   6.031   0.138  0.4529  0.2466  0.4482
 3070TIP3    H130625   4.072   6.085   0.207  0.0035  0.1273  0.2951
 3070TIP3    H230626   4.196   6.070   0.122 -0.1682  1.3921 -0.2039
 3071TIP3   OH230627   5.366   1.419  15.940  0.1030 -0.7126  0.2432
 3071TIP3    H130628   5.337   1.439  16.030 -1.6749 -0.1935 -0.3992
 3071TIP3    H230629   5.293   1.372  15.901  0.7320 -0.6801 -1.0325
 3072TIP3   OH230630   4.327   6.518   1.725  0.3305  0.4777 -0.1997
 3072TIP3    H130631   4.342   6.603   1.683  2.2100  1.1620  1.6798
 3072TIP3    H230632   4.339   6.454   1.656  1.4087  1.6414 -1.1233
 3073TIP3   OH230633   5.226   0.593   4.177 -0.0940  0.1671  0.2295
 3073TIP3    H130634   5.261   0.516   4.221  1.1508  0.2911 -0.4940
 3073TIP3    H230635   5.285   0.664   4.201 -1.0419  0.8491  0.6311
 3074TIP3   OH230636   3.541   2.665   0.253 -0.2335  0.2431 -0.5904
 3074TIP3    H130637   3.565   2.621   0.172 -0.2382  2.6269 -2.0006
 3074TIP3    H230638   3.610   2.730   0.267 -0.4171  0.1262  1.1683
 3075TIP3   OH230639   2.838   2.644   0.966 -0.2451  0.0859  0.4110
 3075TIP3    H130640   2.849   2.686   1.051  0.9115  1.5838 -0.4245
 3075TIP3    H230641   2.840   2.550   0.984 -0.9912  0.3702  2.1200
 3076TIP3   OH230642   5.222   4.136   4.547 -0.5291 -0.7569 -0.0532
 3076TIP3    H130643   5.273   4.136   4.629 -1.2049  0.2392  0.3758
 3076TIP3    H230644   5.267   4.199   4.491 -0.6214 -0.7408 -0.1081
 3077TIP3   OH230645   5.906   4.672   0.562  0.0125  0.3807 -0.2230
 3077TIP3    H130646   5.898   4.652   0.469  0.8768 -0.2961 -0.1601
 3077TIP3    H230647   5.982   4.622   0.591  0.2824  1.2721  0.6534
 3078TIP3   OH230648   1.995   6.441   0.050 -0.2893 -0.5449  0.4641
 3078TIP3    H130649   1.983   6.348   0.030 -0.9584 -1.0466  2.9162
 3078TIP3    H230650   2.008   6.443   0.145  2.8956  1.5691  0.1384
 3079TIP3   OH230651   4.644   2.214   5.615 -0.1406  0.0206  0.0854
 3079TIP3    H130652   4.590   2.193   5.692  0.4743 -1.3345  0.1778
 3079TIP3    H230653   4.589   2.192   5.540 -0.1185 -0.3161  0.1663
 3080TIP3   OH230654   0.830   0.409   0.466  0.1955  0.0336  0.4165
 3080TIP3    H130655   0.745   0.423   0.424 -0.3493 -0.2565  1.4011
 3080TIP3    H230656   0.880   0.488   0.447 -0.5216  0.4754  0.3592
 3081TIP3   OH230657   3.578   5.718   2.198  0.3391 -0.5288  0.3707
 3081TIP3    H130658   3.523   5.781   2.243  1.5010  0.8107 -0.0103
 3081TIP3    H230659   3.649   5.770   2.160  0.7401 -1.9170 -0.9191
 3082TIP3   OH230660   1.124   5.335  10.942 -0.3846  0.1234  0.0453
 3082TIP3    H130661   1.180   5.342  11.020 -0.1801 -0.9305  0.0126
 3082TIP3    H230662   1.035   5.343  10.976 -0.2867 -0.1207  0.3694
 3083TIP3   OH230663   6.051   4.061  13.306  0.2660  0.1835 -0.4367
 3083TIP3    H130664   6.078   4.080  13.396 -2.0602  1.0649  0.1570
 3083TIP3    H230665   6.116   3.999  13.274  1.1662 -0.1601  1.8429
 3084TIP3   OH230666   4.514   4.377   4.778  1.0896  0.2367 -0.8800
 3084TIP3    H130667   4.533   4.301   4.723 -1.3371 -0.6333 -0.6478
 3084TIP3    H230668   4.475   4.340   4.857  1.3329  1.6686 -0.0472
 3085TIP3   OH230669   3.566   6.034   5.000 -0.4881  0.5778  0.0063
 3085TIP3    H130670   3.541   6.072   5.084 -0.5930  0.5297 -0.0034
 3085TIP3    H230671   3.583   5.942   5.019  0.3258  0.7418  0.1440
 3086TIP3   OH230672   1.652   0.943  13.813  0.0912  0.0691 -0.4435
 3086TIP3    H130673   1.732   0.928  13.763  1.8049 -0.2042  2.1975
 3086TIP3    H230674   1.674   1.014  13.874 -2.1013  0.8775 -0.4869
 3087TIP3   OH230675   1.931   2.387   4.364  0.4409 -0.1221 -0.1055
 3087TIP3    H130676   1.855   2.411   4.312  0.8237  2.2075  0.2934
 3087TIP3    H230677   1.904   2.403   4.455  1.7400  2.0372 -0.0232
 3088TIP3   OH230678   4.380   6.407  12.608 -0.6021  0.2602  0.2483
 3088TIP3    H130679   4.366   6.498  12.584 -1.5264 -0.1369 -0.8160
 3088TIP3    H230680   4.297   6.378  12.645 -0.7918 -0.5244 -0.7323
 3089TIP3   OH230681   0.521   2.450   4.892  0.5766 -0.1260 -0.1666
 3089TIP3    H130682   0.523   2.471   4.985 -0.4395 -0.2884 -0.0915
 3089TIP3    H230683   0.549   2.358   4.887 -2.3554 -1.1545  0.3577
 3090TIP3   OH230684   0.136   3.416  16.022  0.5751 -0.0729 -0.0777
 3090TIP3    H130685   0.159   3.437  16.112  2.9229 -0.9774 -0.3909
 3090TIP3    H230686   0.155   3.496  15.972  1.0787 -0.1568 -0.0237
 3091TIP3   OH230687   4.122   5.160  16.544  0.3280  0.4215  0.0576
 3091TIP3    H130688   4.204   5.210  16.541  0.6128 -0.0414  0.1068
 3091TIP3    H230689   4.118   5.127  16.634 -1.1723  2.5365  0.8642
 3092TIP3   OH230690   5.466   4.606   3.837  0.1586  0.7330 -0.0561
 3092TIP3    H130691   5.404   4.535   3.822  0.5898  0.1162  0.9581
 3092TIP3    H230692   5.429   4.655   3.910  0.4443  0.8564  0.0096
 3093TIP3   OH230693   5.555   2.317  10.917  0.0955 -0.0103 -0.1691
 3093TIP3    H130694   5.559   2.377  10.842 -0.0021  0.1019 -0.0849
 3093TIP3    H230695   5.589   2.235  10.883 -0.7875 -0.2178 -0.5916
 3094TIP3   OH230696   2.230   3.917  13.660  0.4872 -0.2917  0.3642
 3094TIP3    H130697   2.217   3.827  13.631 -1.2518  0.0082  0.1094
 3094TIP3    H230698   2.308   3.914  13.715  0.0409 -2.0793  0.9516
 3095TIP3   OH230699   3.153   0.105  13.484  0.2546 -0.0258  0.1648
 3095TIP3    H130700   3.092   0.178  13.496  0.5105  0.1118  0.6283
 3095TIP3    H230701   3.112   0.051  13.415 -0.7167 -0.2798  0.9182
 3096TIP3   OH230702   4.196   3.000  17.163  0.3172 -0.4724 -0.3159
 3096TIP3    H130703   4.182   2.990  17.069  1.8971  0.1345 -0.6535
 3096TIP3    H230704   4.282   2.961  17.179 -0.8103 -2.5482  1.2959
 3097TIP3   OH230705   6.317   5.483   1.851 -0.5779  0.6562 -0.0691
 3097TIP3    H130706   6.390   5.440   1.895 -1.2635 -1.0088 -0.4758
 3097TIP3    H230707   6.359   5.551   1.798  1.1590 -2.1834 -2.7264
 3098TIP3   OH230708   4.605   3.881  11.748 -0.1097 -0.1077 -0.3585
 3098TIP3    H130709   4.632   3.790  11.733 -1.2626 -0.1200 -2.8135
 3098TIP3    H230710   4.561   3.879  11.833  0.8666 -1.6008  0.1557
 3099TIP3   OH230711   4.563   2.071   5.032 -0.0905  0.2440 -0.2309
 3099TIP3    H130712   4.492   2.128   5.060 -0.6271  0.5488 -2.0823
 3099TIP3    H230713   4.572   2.088   4.938  1.1161 -1.2151 -0.4184
 3100TIP3   OH230714   2.458   2.941  16.316 -0.9372  0.1999 -0.0946
 3100TIP3    H130715   2.403   3.009  16.353  0.5442  1.6564 -0.4106
 3100TIP3    H230716   2.489   2.978  16.233  1.2530 -0.1093  0.5113
 3101TIP3   OH230717   4.001   1.737  13.062 -0.0490 -0.1021  0.2204
 3101TIP3    H130718   3.998   1.695  12.976  0.3660  0.0574  0.1250
 3101TIP3    H230719   3.921   1.790  13.066 -0.3912 -0.6106  0.1931
 3102TIP3   OH230720   3.690   2.194   0.959 -0.3405 -0.4972  0.3667
 3102TIP3    H130721   3.736   2.277   0.944  0.8948 -1.0104  1.1962
 3102TIP3    H230722   3.607   2.219   1.000 -0.3983  0.3832 -0.2684
 3103TIP3   OH230723   2.642   5.100   5.043 -0.3225 -0.5520 -0.1407
 3103TIP3    H130724   2.592   5.107   4.961 -0.4544 -0.2102 -0.0331
 3103TIP3    H230725   2.697   5.023   5.031  1.0898  0.5824 -1.3276
 3104TIP3   OH230726   4.528   5.030  11.098  0.1265  0.2019  0.1307
 3104TIP3    H130727   4.620   5.011  11.079 -0.2067 -2.5913  0.8854
 3104TIP3    H230728   4.530   5.076  11.182  0.8496  0.5017 -0.0430
 3105TIP3   OH230729   2.337   2.000   2.086  0.1055 -0.5661 -0.5067
 3105TIP3    H130730   2.390   2.079   2.091  2.6988 -2.0455 -2.1357
 3105TIP3    H230731   2.301   2.001   1.997  0.5071 -1.3956 -0.6876
 3106TIP3   OH230732   5.352   0.351  12.624  0.1079 -0.5258  0.5173
 3106TIP3    H130733   5.361   0.256  12.635  0.2059 -0.4494  1.1635
 3106TIP3    H230734   5.317   0.381  12.708 -1.5469 -0.1945 -0.2365
 3107TIP3   OH230735   2.596   4.846  14.719  0.6653 -0.1533 -0.4721
 3107TIP3    H130736   2.636   4.829  14.634  0.6581  0.7304 -0.6616
 3107TIP3    H230737   2.522   4.903  14.700 -0.0713 -0.9227 -0.0034
 3108TIP3   OH230738   5.400   1.004   0.747 -0.0532  0.0363 -0.2980
 3108TIP3    H130739   5.372   0.921   0.709 -0.1985  0.3995 -0.9970
 3108TIP3    H230740   5.354   1.070   0.696  3.0607  0.7633 -2.4173
 3109TIP3   OH230741   2.324   5.885  15.706  0.4980 -0.0248  0.1771
 3109TIP3    H130742   2.375   5.942  15.762  1.6315 -2.4609  1.7914
 3109TIP3    H230743   2.236   5.883  15.745  0.1038  1.4063 -0.5576
 3110TIP3   OH230744   3.181   0.959  12.280 -0.7369 -0.4169  0.5027
 3110TIP3    H130745   3.259   0.918  12.241 -1.1241  1.0927 -2.0451
 3110TIP3    H230746   3.185   1.050  12.251 -3.6471 -0.3749 -0.0522
 3111TIP3   OH230747   2.165   4.634   1.617  0.3217 -0.5537  0.0030
 3111TIP3    H130748   2.119   4.710   1.582 -0.3059 -0.6214  0.6466
 3111TIP3    H230749   2.124   4.559   1.575 -0.8087 -0.6668  1.2434
 3112TIP3   OH230750   2.032   3.175   1.063  0.5487  0.3827 -0.2104
 3112TIP3    H130751   2.125   3.163   1.044  0.2344 -0.4357 -1.3298
 3112TIP3    H230752   1.998   3.225   0.989  0.0578  0.5408  0.1147
 3113TIP3   OH230753   2.679   5.073  15.778  0.7230 -0.1482  0.5911
 3113TIP3    H130754   2.709   5.080  15.868  1.8618 -1.3313  0.3321
 3113TIP3    H230755   2.653   4.981  15.768  0.4352  0.0116 -0.2292
 3114TIP3   OH230756   1.724   3.252  13.347 -0.1234 -0.0306  1.0359
 3114TIP3    H130757   1.691   3.174  13.391  0.3596 -0.3888  0.7668
 3114TIP3    H230758   1.788   3.219  13.283 -2.1168  0.2823 -1.2774
 3115TIP3   OH230759   1.448   3.661   5.459  0.5141  0.7828  0.0708
 3115TIP3    H130760   1.494   3.717   5.522  0.1015  0.8503  0.3178
 3115TIP3    H230761   1.358   3.694   5.460 -0.2797 -1.2044  1.8138
 3116TIP3   OH230762   2.943   1.183   2.226 -0.0971 -0.5226  0.3258
 3116TIP3    H130763   2.994   1.103   2.214  0.3503 -0.2190  0.1785
 3116TIP3    H230764   2.852   1.152   2.233  0.0029 -0.9928 -0.3534
 3117TIP3   OH230765   6.350   4.599  17.091 -0.2119  0.3073  0.2645
 3117TIP3    H130766   6.255   4.606  17.089 -0.1839  0.5598 -0.7483
 3117TIP3    H230767   6.374   4.578  17.000  0.9260  3.4316 -0.2749
 3118TIP3   OH230768   5.491   5.402  10.641 -0.2757  0.2863 -0.0651
 3118TIP3    H130769   5.533   5.327  10.684 -0.3301 -0.8398 -1.8546
 3118TIP3    H230770   5.421   5.363  10.589  0.6179  1.3679 -2.2093
 3119TIP3   OH230771   2.029   4.366  13.099 -0.1186 -0.2055  1.0035
 3119TIP3    H130772   2.053   4.342  13.009 -2.5481  0.8962 -0.0436
 3119TIP3    H230773   2.010   4.282  13.142  0.4784 -0.7106  0.3095
 3120TIP3   OH230774   4.246   4.510  15.767  0.4150  0.5573  0.2944
 3120TIP3    H130775   4.273   4.585  15.713 -0.3403 -0.4190 -1.5403
 3120TIP3    H230776   4.152   4.522  15.779  0.3929  0.2085  0.4733
 3121TIP3   OH230777   5.620   1.446   2.253  0.7086  0.5677 -0.2096
 3121TIP3    H130778   5.637   1.367   2.202  1.9886 -0.2405  1.3651
 3121TIP3    H230779   5.528   1.441   2.276  0.7285 -0.3684 -0.3081
 3122TIP3   OH230780   1.232   2.428   1.316 -0.2738  0.0170 -0.2400
 3122TIP3    H130781   1.208   2.361   1.380  0.6966 -0.7062 -0.6076
 3122TIP3    H230782   1.154   2.483   1.308 -1.1123 -1.1051  0.0255
 3123TIP3   OH230783   2.206   2.387   0.813 -0.0798 -0.4224 -0.2225
 3123TIP3    H130784   2.195   2.397   0.718 -0.1690 -0.1399 -0.1833
 3123TIP3    H230785   2.126   2.425   0.851 -0.0288 -0.5030 -0.0334
 3124TIP3   OH230786   5.440   3.650   0.757  0.7586  0.3387  0.1548
 3124TIP3    H130787   5.495   3.571   0.761  0.5356  0.0498 -1.6204
 3124TIP3    H230788   5.444   3.687   0.845  1.4314 -1.2800  0.8402
 3125TIP3   OH230789   5.877   4.780  11.248 -0.2337 -0.2442 -0.8396
 3125TIP3    H130790   5.852   4.812  11.335 -0.1077 -0.6365 -0.6599
 3125TIP3    H230791   5.927   4.701  11.265  0.2013 -0.0592 -1.2524
 3126TIP3   OH230792   3.389   0.791  16.458 -0.0216  0.3718  0.2995
 3126TIP3    H130793   3.411   0.868  16.407 -0.2940  0.4826  0.3488
 3126TIP3    H230794   3.304   0.811  16.498 -0.1846 -0.0258  0.1595
 3127TIP3   OH230795   2.113   2.337   4.868 -0.5256  0.4421 -0.0359
 3127TIP3    H130796   2.052   2.406   4.894 -1.4622 -0.5103  0.3992
 3127TIP3    H230797   2.058   2.258   4.863  0.5593 -0.3149 -0.2653
 3128TIP3   OH230798   3.117   1.375  14.479 -0.1349  0.3706  0.3225
 3128TIP3    H130799   3.124   1.283  14.455 -1.9026 -0.3540  2.2616
 3128TIP3    H230800   3.140   1.378  14.572  2.6064  2.3950 -0.2926
 3129TIP3   OH230801   0.372   0.282  14.894  0.1131  0.2473 -0.4640
 3129TIP3    H130802   0.308   0.230  14.845  0.3820 -1.6726  1.0788
 3129TIP3    H230803   0.330   0.299  14.978 -0.0233  2.7779 -0.9752
 3130TIP3   OH230804   4.027   2.888  10.532 -0.1126 -0.4480  0.5838
 3130TIP3    H130805   4.052   2.908  10.442  0.8350 -1.8809  0.4900
 3130TIP3    H230806   4.108   2.897  10.582 -0.3766 -0.8024  1.0837
 3131TIP3   OH230807   6.081   3.291   6.775  0.4214  0.2889 -0.5098
 3131TIP3    H130808   6.073   3.206   6.732  0.6443 -0.3086  0.6065
 3131TIP3    H230809   6.004   3.339   6.745 -0.0162 -0.5056 -0.6970
 3132TIP3   OH230810   5.782   5.209   0.391 -0.3986 -0.0102  0.0172
 3132TIP3    H130811   5.704   5.200   0.446 -0.9367 -0.2755 -0.7651
 3132TIP3    H230812   5.763   5.157   0.313  0.3991  0.2463 -0.3674
 3133TIP3   OH230813   0.299   2.658  11.814  0.3688  0.0743  0.1049
 3133TIP3    H130814   0.375   2.625  11.766  0.9890  1.6138 -0.0269
 3133TIP3    H230815   0.230   2.666  11.748 -0.1944 -2.0818  0.3760
 3134TIP3   OH230816   2.141   4.497  12.357 -0.2816  0.4689 -0.2861
 3134TIP3    H130817   2.183   4.431  12.300  0.9011  1.8329 -1.0592
 3134TIP3    H230818   2.195   4.575  12.347 -1.8026  1.6599  0.4126
 3135TIP3   OH230819   4.321   6.497  15.430  0.3008  0.2948  0.1011
 3135TIP3    H130820   4.375   6.418  15.436 -0.0747 -0.0339 -0.7268
 3135TIP3    H230821   4.272   6.499  15.512  0.6997 -0.0407  0.3506
 3136TIP3   OH230822   1.268   1.067   0.027 -0.3595 -0.2350 -0.6768
 3136TIP3    H130823   1.358   1.067   0.061 -0.4538 -0.4193 -0.4254
 3136TIP3    H230824   1.255   1.156  -0.006 -0.3751  0.0371  0.0521
 3137TIP3   OH230825   6.537   3.829  14.847 -0.0501  0.3851  0.4684
 3137TIP3    H130826   6.470   3.897  14.846 -0.2886  0.2296 -2.1310
 3137TIP3    H230827   6.561   3.819  14.755  1.5686 -1.5122  1.0366
 3138TIP3   OH230828   4.587   0.720  15.638  0.5747  0.1410 -0.2568
 3138TIP3    H130829   4.630   0.758  15.561 -0.4002 -0.0606 -0.9295
 3138TIP3    H230830   4.540   0.793  15.677 -0.2501 -0.0862 -0.8039
 3139TIP3   OH230831   2.633   3.401   1.495 -0.3892  0.5348 -0.2897
 3139TIP3    H130832   2.695   3.372   1.428 -0.3834  2.8725 -1.3806
 3139TIP3    H230833   2.689   3.431   1.568 -0.3501 -0.2432  0.0113
 3140TIP3   OH230834   5.585   4.409   4.097 -0.5155 -0.2743 -0.0491
 3140TIP3    H130835   5.493   4.427   4.078 -0.1986  0.6997 -0.7351
 3140TIP3    H230836   5.631   4.434   4.016  0.4067 -0.2647  0.4683
 3141TIP3   OH230837   0.030   4.273  11.449 -0.1628  0.4578 -0.4322
 3141TIP3    H130838  -0.006   4.271  11.361 -1.3925  2.2539 -0.0125
 3141TIP3    H230839   0.089   4.348  11.449  0.3932  0.0406  0.1046
 3142TIP3   OH230840   4.107   5.305   4.208  0.7075 -0.6060 -0.5887
 3142TIP3    H130841   4.124   5.390   4.168 -0.6672  0.0468  0.1188
 3142TIP3    H230842   4.168   5.300   4.282 -0.5934  0.7725  0.6715
 3143TIP3   OH230843   1.651   3.609  11.152  0.0960  0.2283  0.5628
 3143TIP3    H130844   1.703   3.530  11.138 -1.2328 -0.6165  0.2315
 3143TIP3    H230845   1.597   3.590  11.229 -1.0925  0.3429 -0.2230
 3144TIP3   OH230846   3.148   6.639   4.589  0.8859 -0.6071 -0.1810
 3144TIP3    H130847   3.126   6.732   4.591  0.2656 -0.7400 -0.4712
 3144TIP3    H230848   3.066   6.594   4.610  1.5103 -1.0630  1.4637
 3145TIP3   OH230849   2.766   3.303   3.485 -0.6133 -0.1551  0.2226
 3145TIP3    H130850   2.734   3.233   3.542  0.9528 -1.2204 -0.1466
 3145TIP3    H230851   2.859   3.310   3.505 -0.2093  0.0630 -1.5517
 3146TIP3   OH230852   0.308   2.516   6.214 -0.7526  0.1072 -0.6621
 3146TIP3    H130853   0.340   2.428   6.197 -1.9038 -0.8152  1.4632
 3146TIP3    H230854   0.370   2.573   6.168  1.6866 -1.6852  0.1332
 3147TIP3   OH230855   5.632   2.498   0.181 -0.2464 -0.3925  0.2940
 3147TIP3    H130856   5.603   2.589   0.172 -1.0359 -0.7410 -0.9197
 3147TIP3    H230857   5.592   2.453   0.107  0.0405 -1.7580  0.9408
 3148TIP3   OH230858   3.340   0.683   3.569 -0.3971 -0.7208  0.1318
 3148TIP3    H130859   3.276   0.613   3.560 -2.0619  0.6526  0.7423
 3148TIP3    H230860   3.293   0.753   3.614  1.3501  0.6130 -0.0022
 3149TIP3   OH230861   0.767   0.005  12.426 -0.2471 -0.2427  0.2507
 3149TIP3    H130862   0.688   0.036  12.382  0.1937  0.4585 -0.0742
 3149TIP3    H230863   0.751   0.021  12.519 -0.8394 -0.9317  0.2734
 3150TIP3   OH230864   1.179   3.299   2.779 -0.7074  0.3140  0.1535
 3150TIP3    H130865   1.268   3.267   2.796 -0.5147  0.0327 -1.2667
 3150TIP3    H230866   1.122   3.228   2.810 -0.5241  1.0793  2.3649
 3151TIP3   OH230867   3.648   2.194  15.720  0.4920  0.0005  0.2968
 3151TIP3    H130868   3.567   2.226  15.680  0.9534 -1.8981 -2.4229
 3151TIP3    H230869   3.619   2.151  15.801 -1.6496 -2.5024 -1.5992
 3152TIP3   OH230870   6.506   3.180  14.547 -0.1601 -0.2926 -0.4526
 3152TIP3    H130871   6.479   3.249  14.609 -0.0847 -0.1360 -0.5939
 3152TIP3    H230872   6.579   3.137  14.591 -0.9962 -1.1013  0.1944
 3153TIP3   OH230873   1.740   2.571  15.500  0.4168 -0.3345 -0.0271
 3153TIP3    H130874   1.702   2.623  15.570  1.2431  0.8602 -0.4259
 3153TIP3    H230875   1.789   2.502  15.544 -0.5558 -0.6939  0.5168
 3154TIP3   OH230876   4.517   2.570   5.164  0.1713 -0.1326 -0.1671
 3154TIP3    H130877   4.590   2.534   5.114 -0.3581  0.8177 -1.6697
 3154TIP3    H230878   4.522   2.526   5.249 -0.1995 -3.4190 -1.7246
 3155TIP3   OH230879   0.819   2.809   3.479  0.2875 -0.5521 -0.6756
 3155TIP3    H130880   0.839   2.826   3.387  0.0886  1.1804 -0.4403
 3155TIP3    H230881   0.843   2.718   3.493  0.2341 -0.8677 -2.4665
 3156TIP3   OH230882   0.884   6.088  14.721 -0.3039  0.2021  0.5732
 3156TIP3    H130883   0.940   6.158  14.688 -2.0810  0.9734 -1.0021
 3156TIP3    H230884   0.873   6.029  14.646 -0.1289 -0.9198  1.4095
 3157TIP3   OH230885   5.727   3.841  11.871  0.0030 -0.6358  0.4800
 3157TIP3    H130886   5.664   3.877  11.934 -2.2526  0.2018 -2.0612
 3157TIP3    H230887   5.734   3.748  11.895 -0.0997 -0.1940  2.4336
 3158TIP3   OH230888   4.131   2.588   2.105  0.5843  0.0058  0.7221
 3158TIP3    H130889   4.055   2.645   2.109  0.6828  0.1920  0.1085
 3158TIP3    H230890   4.154   2.585   2.012  0.6961 -0.8803  0.7663
 3159TIP3   OH230891   5.677   5.289  15.703  0.1519 -0.1988 -0.6609
 3159TIP3    H130892   5.766   5.280  15.670  1.0697  1.4827  1.0945
 3159TIP3    H230893   5.669   5.382  15.724 -2.3004 -0.1622 -1.4571
 3160TIP3   OH230894   3.579   6.032  12.478 -0.5388 -0.2366 -0.4593
 3160TIP3    H130895   3.539   6.061  12.396  0.2902  1.0707 -0.4419
 3160TIP3    H230896   3.591   5.938  12.467 -0.5134 -0.1035 -1.8149
 3161TIP3   OH230897   0.886   3.552  12.321 -0.0776  0.2797 -0.0650
 3161TIP3    H130898   0.975   3.534  12.351  0.4942  1.4930 -0.9350
 3161TIP3    H230899   0.891   3.549  12.226 -1.2467 -0.8110 -0.1213
 3162TIP3   OH230900   2.153   2.540  15.720  0.0918 -0.7532 -0.2149
 3162TIP3    H130901   2.089   2.490  15.772  0.7486 -1.7228 -0.3206
 3162TIP3    H230902   2.133   2.517  15.629  0.0810 -0.4319 -0.2935
 3163TIP3   OH230903   2.754   1.294  13.836 -0.0609 -0.0251 -0.1133
 3163TIP3    H130904   2.676   1.243  13.811 -2.1917  1.5656  2.6345
 3163TIP3    H230905   2.795   1.242  13.905 -0.8573  0.7264  0.9810
 3164TIP3   OH230906   6.068   5.578   2.035  0.6751 -0.0410  0.4233
 3164TIP3    H130907   6.034   5.635   1.967 -0.8984 -0.8997  0.4533
 3164TIP3    H230908   6.159   5.606   2.046  0.5836  0.9688 -1.0940
 3165TIP3   OH230909   6.172   2.902   0.921  0.3201 -0.1942 -0.2773
 3165TIP3    H130910   6.237   2.954   0.968  1.5491 -0.5720 -1.4806
 3165TIP3    H230911   6.120   2.860   0.990 -0.5291  2.3161  0.7251
 3166TIP3   OH230912   2.798   5.282   5.208 -0.1196  0.0581  0.1706
 3166TIP3    H130913   2.738   5.355   5.222 -0.5526 -0.6143  2.1672
 3166TIP3    H230914   2.752   5.225   5.145 -1.9033 -0.7235  2.0728
 3167TIP3   OH230915   5.098   5.883  11.428 -0.1192  0.5814  0.5225
 3167TIP3    H130916   5.021   5.940  11.429  0.0282  0.7822  0.4640
 3167TIP3    H230917   5.120   5.873  11.335 -0.9344 -0.6455  0.4352
 3168TIP3   OH230918   3.743   3.299  12.355  0.3453  0.4668 -0.0592
 3168TIP3    H130919   3.671   3.240  12.331  0.0411  1.0019 -0.5002
 3168TIP3    H230920   3.771   3.270  12.442 -0.1752  0.0322 -0.0351
 3169TIP3   OH230921   2.840   4.244  10.580  0.0133  0.0417  0.1797
 3169TIP3    H130922   2.806   4.209  10.662  0.1294 -0.6230 -0.0530
 3169TIP3    H230923   2.913   4.187  10.557  0.3778  0.6000 -0.0683
 3170TIP3   OH230924   4.385   3.313  13.907 -0.0477  0.5767  0.9903
 3170TIP3    H130925   4.474   3.277  13.900  0.9030  2.9212 -0.1063
 3170TIP3    H230926   4.394   3.384  13.971 -0.2200  3.1209 -1.6218
 3171TIP3   OH230927   2.695   3.945  14.557 -0.2386 -0.6974  0.3575
 3171TIP3    H130928   2.710   3.886  14.483  0.6294  1.1104 -1.0026
 3171TIP3    H230929   2.726   3.897  14.633  1.2189 -1.7093 -0.8109
 3172TIP3   OH230930   5.962   0.957   0.611  0.6173  0.4740 -0.1809
 3172TIP3    H130931   5.916   1.034   0.578 -0.2939 -0.1823 -0.5259
 3172TIP3    H230932   5.893   0.904   0.651  0.9986 -0.7081 -1.0168
 3173TIP3   OH230933   3.763   6.243  14.565 -0.1726 -0.1205 -0.0383
 3173TIP3    H130934   3.678   6.211  14.535 -0.7149 -0.6142  1.9026
 3173TIP3    H230935   3.788   6.184  14.636  1.9488 -0.1450 -0.7233
 3174TIP3   OH230936   2.414   6.154   0.090 -0.4826  0.0121 -0.2003
 3174TIP3    H130937   2.424   6.083   0.153 -2.9561  0.6943  1.1191
 3174TIP3    H230938   2.395   6.110   0.007 -1.8541 -0.9324  0.5647
 3175TIP3   OH230939   3.568   1.830   2.243  0.0565 -0.0133  0.4586
 3175TIP3    H130940   3.620   1.905   2.216  2.3277 -1.5042  0.3604
 3175TIP3    H230941   3.478   1.858   2.233  0.7712  1.6762 -2.5014
 3176TIP3   OH230942   0.960   4.562  11.466  0.3746 -0.2365  0.1366
 3176TIP3    H130943   0.978   4.558  11.372  0.3689  0.2893  0.1075
 3176TIP3    H230944   0.869   4.590  11.471  0.0639 -1.2356  0.2976
 3177TIP3   OH230945   5.314   3.428  12.314 -0.2365  0.5866 -0.4277
 3177TIP3    H130946   5.381   3.360  12.323 -1.1922 -0.2859  0.3814
 3177TIP3    H230947   5.350   3.489  12.250  0.4989 -0.8727 -1.4712
 3178TIP3   OH230948   6.586   2.928  14.232  0.4085  0.1569  0.2910
 3178TIP3    H130949   6.528   2.857  14.260  0.6502 -0.3716 -0.5219
 3178TIP3    H230950   6.643   2.944  14.307  0.4029 -0.5612  0.4576
 3179TIP3   OH230951   6.538   0.075   1.618 -0.1765 -0.0622  0.1958
 3179TIP3    H130952   6.563   0.159   1.657 -1.1050  1.0288 -1.3975
 3179TIP3    H230953   6.592   0.010   1.662 -1.8587  0.8466  4.0313
 3180TIP3   OH230954   5.748   1.143   0.522  0.0885  0.1717  0.1847
 3180TIP3    H130955   5.674   1.142   0.584  1.1704 -0.0383  1.5166
 3180TIP3    H230956   5.744   1.230   0.482 -1.2197 -0.0465 -0.2018
 3181TIP3   OH230957   4.282   0.550  12.360  0.5298  0.0413 -0.0329
 3181TIP3    H130958   4.298   0.565  12.453 -1.9738  0.8651  0.3266
 3181TIP3    H230959   4.322   0.626  12.317  0.2475  0.5170  0.5284
 3182TIP3   OH230960   1.764   3.709  14.456  0.8426  0.1267 -0.0893
 3182TIP3    H130961   1.701   3.706  14.528  0.3173 -0.9431 -0.5602
 3182TIP3    H230962   1.726   3.769  14.392 -1.0480 -2.3429 -1.4973
 3183TIP3   OH230963   4.573   2.012   1.154 -0.1754 -0.2265 -0.4772
 3183TIP3    H130964   4.604   1.957   1.227  0.6712  0.9813  0.1163
 3183TIP3    H230965   4.550   2.095   1.195  0.1515  0.4223 -1.5593
 3184TIP3   OH230966   5.888   6.383   1.394  0.2094  0.1866  0.6050
 3184TIP3    H130967   5.867   6.466   1.351  1.7941 -0.0628 -0.7440
 3184TIP3    H230968   5.949   6.406   1.464  1.0066  0.1458 -0.0564
 3185TIP3   OH230969   1.513   2.978   6.082 -0.0276 -0.8997 -0.6729
 3185TIP3    H130970   1.519   3.063   6.125 -1.9795 -0.2207 -1.6534
 3185TIP3    H230971   1.595   2.934   6.105  0.9799  1.1863 -0.0596
 3186TIP3   OH230972   6.438   6.413  15.909  0.0460  0.5050  0.5799
 3186TIP3    H130973   6.436   6.508  15.922 -0.7478  0.7112 -0.8155
 3186TIP3    H230974   6.443   6.402  15.814  1.1414 -0.8606  0.7773
 3187TIP3   OH230975   0.307   4.696  11.925 -0.0079 -0.3986 -0.1811
 3187TIP3    H130976   0.331   4.611  11.963 -1.3840 -0.3806  0.8073
 3187TIP3    H230977   0.273   4.675  11.838  0.1919 -0.7988 -0.1666
 3188TIP3   OH230978   6.298   0.324   4.796  0.3942  0.3918  0.4356
 3188TIP3    H130979   6.372   0.295   4.850  0.7415 -0.0857 -0.2730
 3188TIP3    H230980   6.221   0.290   4.841  0.6424  0.4345  0.8976
 3189TIP3   OH230981   0.326   6.708   4.004 -0.2795  0.0339 -0.1260
 3189TIP3    H130982   0.278   6.729   4.084 -0.4391 -0.0199 -0.2071
 3189TIP3    H230983   0.296   6.775   3.941  0.4730  0.5961  0.1004
 3190TIP3   OH230984   0.994   5.875   4.412 -0.0103 -0.4210 -0.3985
 3190TIP3    H130985   1.047   5.804   4.450 -0.5798 -0.5240  0.2264
 3190TIP3    H230986   0.995   5.944   4.479 -1.0444 -0.6120 -0.1625
 3191TIP3   OH230987   2.404   3.225  13.609 -0.2529  0.2490  0.5991
 3191TIP3    H130988   2.393   3.249  13.517 -0.5249  1.4331  0.9131
 3191TIP3    H230989   2.359   3.142  13.618  1.8839 -1.1651 -0.8741
 3192TIP3   OH230990   4.892   3.915   3.209 -0.6463  0.1179  0.0618
 3192TIP3    H130991   4.902   3.919   3.304 -0.5300  0.5087  0.0336
 3192TIP3    H230992   4.850   3.831   3.193 -1.2010  0.3012  0.5107
 3193TIP3   OH230993   2.157   3.525   0.533 -0.0855 -0.1906 -0.2466
 3193TIP3    H130994   2.129   3.597   0.590  0.3417  1.3625 -1.9096
 3193TIP3    H230995   2.094   3.455   0.551 -1.4856  1.1540  0.2927
 3194TIP3   OH230996   5.909   4.639  15.534 -0.9273 -0.0792  0.1976
 3194TIP3    H130997   5.912   4.597  15.621  1.2774 -1.9535 -0.6491
 3194TIP3    H230998   5.964   4.716  15.543 -1.1077  0.0048  0.5973
 3195TIP3   OH230999   2.448   0.383   3.471 -0.0699  0.6428  0.0333
 3195TIP3    H131000   2.445   0.431   3.388 -1.7576 -1.1925 -1.0364
 3195TIP3    H231001   2.377   0.319   3.465  0.7499 -0.5882  2.2621
 3196TIP3   OH231002   0.484   0.820   1.891  0.2471  0.3912  0.4520
 3196TIP3    H131003   0.436   0.762   1.832  0.5566 -0.1128  0.6879
 3196TIP3    H231004   0.518   0.889   1.834  0.0248  0.2414  0.1366
 3197TIP3   OH231005   4.738   1.793   4.136 -0.2543  0.5158  0.2938
 3197TIP3    H131006   4.833   1.780   4.133 -0.1611  0.0856  2.7022
 3197TIP3    H231007   4.702   1.705   4.133 -0.6846  0.7235 -1.7438
 3198TIP3   OH231008   3.305   4.057  15.994 -0.5624  0.4661  0.2200
 3198TIP3    H131009   3.284   3.964  15.979 -3.5504  1.0577  0.0060
 3198TIP3    H231010   3.389   4.056  16.039 -0.5962 -2.3662  0.3977
 3199TIP3   OH231011   0.655   2.309   0.684 -0.4461  0.5191 -0.1054
 3199TIP3    H131012   0.718   2.371   0.721  1.1538 -0.9818 -0.2074
 3199TIP3    H231013   0.672   2.313   0.589 -1.5505  1.1849 -0.2884
 3200TIP3   OH231014   3.956   3.047  14.472  0.3140 -0.1521  0.2157
 3200TIP3    H131015   3.872   3.007  14.493 -0.4105  0.8418 -0.6534
 3200TIP3    H231016   3.942   3.090  14.388  1.2978  1.1420  0.6675
 3201TIP3   OH231017   0.486   0.739  16.281  0.3578 -0.0654  0.2478
 3201TIP3    H131018   0.579   0.758  16.268  0.3038  0.2023  0.2403
 3201TIP3    H231019   0.463   0.787  16.360 -0.1665  1.2589 -0.6639
 3202TIP3   OH231020   0.875   5.651  12.999  0.3563 -0.1678  0.2405
 3202TIP3    H131021   0.952   5.667  13.053  0.1931  0.8356  0.2038
 3202TIP3    H231022   0.910   5.616  12.917  0.7712  0.1897  0.2606
 3203TIP3   OH231023   3.371   5.686   0.003  0.2543  0.2279  0.0383
 3203TIP3    H131024   3.375   5.684   0.099  1.7340 -0.3033 -0.0037
 3203TIP3    H231025   3.460   5.709  -0.024  0.0052 -0.2140 -1.2276
 3204TIP3   OH231026   0.465   6.609  12.397 -0.2745 -0.1305 -0.5950
 3204TIP3    H131027   0.473   6.596  12.492  0.1838 -0.3172 -0.6540
 3204TIP3    H231028   0.517   6.688  12.379 -0.5580  0.0418 -0.6567
 3205TIP3   OH231029   5.031   0.183  14.487  0.5997 -0.2661 -0.0392
 3205TIP3    H131030   4.972   0.193  14.413  0.8485  1.0022 -0.0999
 3205TIP3    H231031   4.976   0.197  14.564  0.5146 -0.6730 -0.0272
 3206TIP3   OH231032   4.063   6.422   1.827 -0.0284 -0.3759 -0.2329
 3206TIP3    H131033   4.141   6.457   1.784 -0.3011  2.2876  1.2176
 3206TIP3    H231034   4.097   6.379   1.906  0.1935 -2.3496 -1.3470
 3207TIP3   OH231035   3.013   4.866   5.970  0.4692 -0.0659  0.6613
 3207TIP3    H131036   3.085   4.879   5.908  1.2596  1.4649  1.8354
 3207TIP3    H231037   3.055   4.834   6.049 -0.3059 -0.3495  0.9623
 3208TIP3   OH231038   1.162   6.229   2.873 -0.1465  0.2783  0.2627
 3208TIP3    H131039   1.168   6.216   2.778  3.8464 -3.6340  0.7244
 3208TIP3    H231040   1.100   6.161   2.902 -0.5738  0.7966  0.5812
 3209TIP3   OH231041   1.501   4.433  11.887  0.4691 -0.0689 -0.1509
 3209TIP3    H131042   1.479   4.370  11.955  2.9661  0.4347  1.2773
 3209TIP3    H231043   1.448   4.510  11.907 -0.2064 -0.5783  0.0507
 3210TIP3   OH231044   2.883   4.000   1.658 -0.6168  0.5422 -0.1256
 3210TIP3    H131045   2.968   3.977   1.697 -0.2119 -0.2012 -1.3736
 3210TIP3    H231046   2.903   4.017   1.566 -1.8796  0.0153 -0.5165
 3211TIP3   OH231047   2.869   5.267   4.130  0.0745  0.1378 -0.2460
 3211TIP3    H131048   2.906   5.278   4.218  0.4820  1.2467 -0.5323
 3211TIP3    H231049   2.821   5.348   4.115 -0.3007 -0.2025 -0.9020
 3212TIP3   OH231050   5.782   3.793   3.123 -0.2215  0.3992  0.3190
 3212TIP3    H131051   5.874   3.794   3.149  0.5721 -0.0403 -2.1990
 3212TIP3    H231052   5.753   3.704   3.143 -0.2765  0.7026  1.6285
 3213TIP3   OH231053   4.623   6.576  10.704 -0.7876 -0.2029  0.2251
 3213TIP3    H131054   4.573   6.649  10.741 -0.9191  1.8453 -3.5375
 3213TIP3    H231055   4.587   6.565  10.615  0.8543 -3.3092 -0.1999
 3214TIP3   OH231056   6.221   6.796  16.232  0.2088 -0.0330  0.0768
 3214TIP3    H131057   6.254   6.707  16.245  0.1008  0.0017  0.5751
 3214TIP3    H231058   6.139   6.785  16.183 -1.2914 -0.4070  2.5407
 3215TIP3   OH231059   1.395   3.450  16.456 -0.0645  0.3206 -0.2210
 3215TIP3    H131060   1.335   3.404  16.397 -2.3645 -1.6090  3.2606
 3215TIP3    H231061   1.480   3.410  16.439 -0.9258 -1.2031 -1.2237
 3216TIP3   OH231062   3.521   5.626  15.724 -0.2354 -1.0055 -0.2121
 3216TIP3    H131063   3.473   5.673  15.656 -2.2147 -0.9182  1.1390
 3216TIP3    H231064   3.489   5.664  15.806  1.9442 -1.2066  0.8000
 3217TIP3   OH231065   6.238   6.178   1.426 -0.5065 -0.1755 -0.2563
 3217TIP3    H131066   6.274   6.267   1.419  0.5527 -0.6599 -1.5249
 3217TIP3    H231067   6.153   6.183   1.382 -0.5289  0.2441 -0.1727
 3218TIP3   OH231068   4.556   0.825   2.454  0.3955 -0.5586  0.1985
 3218TIP3    H131069   4.508   0.809   2.372  0.3515 -0.7045  0.2519
 3218TIP3    H231070   4.516   0.904   2.490  1.5699  0.5131 -0.7790
 3219TIP3   OH231071   1.471   1.964   4.495  0.1666 -1.0475  0.4479
 3219TIP3    H131072   1.440   2.016   4.421 -0.4989 -1.4711  0.4169
 3219TIP3    H231073   1.447   1.874   4.472 -0.7942 -1.0887  1.5407
 3220TIP3   OH231074   1.239   5.000   5.103  0.1735 -0.2540  0.4974
 3220TIP3    H131075   1.273   5.000   5.193  0.2557 -0.0126  0.4665
 3220TIP3    H231076   1.316   4.987   5.048  0.0705 -0.8013  0.4796
 3221TIP3   OH231077   2.550   4.008   1.119  0.4916 -0.1390  0.0544
 3221TIP3    H131078   2.479   4.060   1.156 -0.1624 -2.0032  1.5736
 3221TIP3    H231079   2.630   4.054   1.144 -0.0233 -0.2742  2.1557
 3222TIP3   OH231080   3.047   6.238  13.291 -0.0312 -0.5285 -0.2411
 3222TIP3    H131081   2.977   6.193  13.243 -0.8003 -0.8831  1.1572
 3222TIP3    H231082   3.091   6.168  13.340 -0.6451  0.0584  1.2254
 3223TIP3   OH231083   6.074   2.709   1.552  0.4683 -0.3267 -0.7963
 3223TIP3    H131084   5.994   2.670   1.516  0.0250 -0.4269  0.2718
 3223TIP3    H231085   6.055   2.803   1.554  0.2031 -0.3911 -0.1347
 3224TIP3   OH231086   0.507   2.391   2.974 -0.2399 -0.2905  0.6263
 3224TIP3    H131087   0.416   2.421   2.970  0.9310  4.1365  1.6200
 3224TIP3    H231088   0.523   2.375   3.067  0.0295 -0.9045  0.4770
 3225TIP3   OH231089   6.771   2.084   1.849 -0.7031 -0.5991 -0.1428
 3225TIP3    H131090   6.740   2.065   1.761 -0.3347 -0.5127 -0.2924
 3225TIP3    H231091   6.763   2.001   1.896 -0.4772 -0.7545 -0.3823
 3226TIP3   OH231092   3.895   5.576   5.052 -0.2543  0.1801  0.2035
 3226TIP3    H131093   3.918   5.651   5.107  0.5670 -0.6786  1.0633
 3226TIP3    H231094   3.902   5.501   5.110  1.4174 -0.8487 -1.2629
 3227TIP3   OH231095   4.718   2.238  10.287 -0.8971  0.2852  0.4039
 3227TIP3    H131096   4.658   2.182  10.237 -0.3893  1.5777 -1.7630
 3227TIP3    H231097   4.797   2.185  10.297 -1.8155 -0.8819  2.0278
 3228TIP3   OH231098   0.684   4.091  10.881 -0.6647  0.3364  0.4468
 3228TIP3    H131099   0.729   4.163  10.838  0.2128 -1.1543 -1.2466
 3228TIP3    H231100   0.596   4.125  10.900 -0.2062  1.8855 -0.1449
 3229TIP3   OH231101   4.106   5.641  13.859 -0.8657 -0.1060  0.5136
 3229TIP3    H131102   4.081   5.596  13.940 -0.8801  1.0066  1.1494
 3229TIP3    H231103   4.058   5.595  13.790 -0.3809 -1.4593  1.0556
 3230TIP3   OH231104   0.688   3.479  14.948  0.2462 -0.0446 -0.2573
 3230TIP3    H131105   0.599   3.509  14.968 -0.4680 -1.1256 -1.6418
 3230TIP3    H231106   0.686   3.385  14.966  1.0730 -0.1069 -0.4645
 3231TIP3   OH231107   4.980   2.896   0.569 -0.4934  0.1525  0.7374
 3231TIP3    H131108   5.047   2.887   0.502 -0.3076 -1.1038  1.0513
 3231TIP3    H231109   5.028   2.889   0.652 -0.9130  0.0212  0.9760
 3232TIP3   OH231110   3.555   0.559   6.636 -0.4550 -0.4260 -0.2219
 3232TIP3    H131111   3.609   0.491   6.596  0.3177 -0.5740  1.0145
 3232TIP3    H231112   3.549   0.627   6.569  2.7067  0.3470  0.1450
 3233TIP3   OH231113   0.286   3.123   2.063  1.0111  0.4016  0.3207
 3233TIP3    H131114   0.225   3.054   2.087  0.3612  0.9136  0.1751
 3233TIP3    H231115   0.369   3.078   2.048  0.3060 -0.5278 -1.0239
 3234TIP3   OH231116   1.891   5.615   0.430 -0.1860 -0.3128  0.5965
 3234TIP3    H131117   1.905   5.612   0.336  1.5283  1.4988  0.7347
 3234TIP3    H231118   1.803   5.580   0.442 -1.1901  1.1240 -1.8621
 3235TIP3   OH231119   2.593   2.197   3.699 -0.0294 -0.7393 -0.1676
 3235TIP3    H131120   2.609   2.200   3.605  1.3501  0.3243  0.0713
 3235TIP3    H231121   2.520   2.258   3.713  0.5801  0.0605 -0.4094
 3236TIP3   OH231122   4.788   6.323   1.166 -0.3806  0.3593  0.6608
 3236TIP3    H131123   4.818   6.405   1.127  1.3209 -0.7771 -0.6106
 3236TIP3    H231124   4.861   6.294   1.221 -0.2996 -0.9962 -0.0977
 3237TIP3   OH231125   6.257   6.400   0.616  0.1143 -0.5083  0.4205
 3237TIP3    H131126   6.240   6.407   0.710  0.1343  0.6092  0.3473
 3237TIP3    H231127   6.213   6.475   0.577  1.3153 -0.1438 -0.2952
 3238TIP3   OH231128   6.278   6.793  12.131 -0.2883  0.6484  0.0756
 3238TIP3    H131129   6.325   6.785  12.214 -0.1779 -0.2172 -0.0580
 3238TIP3    H231130   6.190   6.763  12.151 -0.2671  0.4613 -0.1096
 3239TIP3   OH231131   1.797   4.163  13.665 -0.8666  0.4814 -0.3492
 3239TIP3    H131132   1.856   4.188  13.737 -0.0607 -1.4161 -0.2968
 3239TIP3    H231133   1.803   4.236  13.604  0.6480  0.8721  0.2100
 3240TIP3   OH231134   2.737   1.948  12.433  0.1992 -0.0280  0.2327
 3240TIP3    H131135   2.773   1.860  12.446 -0.2086  0.0636  2.1914
 3240TIP3    H231136   2.677   1.961  12.506 -0.7282  1.4018 -0.7412
 3241TIP3   OH231137   6.392   5.015  11.363 -0.2890  0.5934  0.7648
 3241TIP3    H131138   6.361   5.087  11.308 -0.9683  0.6531  1.2156
 3241TIP3    H231139   6.315   4.959  11.374  0.0394  0.1916  1.0415
 3242TIP3   OH231140   4.689   6.153   0.445  0.3024  0.0439 -0.2481
 3242TIP3    H131141   4.750   6.079   0.434  1.3690  1.0209 -1.2122
 3242TIP3    H231142   4.624   6.121   0.508  1.3378 -1.3320  0.1834
 3243TIP3   OH231143   0.290   6.367  14.296 -0.0681 -0.5007  0.5587
 3243TIP3    H131144   0.326   6.321  14.221 -0.5544 -1.3121  0.8143
 3243TIP3    H231145   0.229   6.305  14.336 -1.5615  0.7487  0.2912
 3244TIP3   OH231146   5.591   3.533   4.889 -0.3607  0.1381  0.3265
 3244TIP3    H131147   5.678   3.498   4.909 -0.4795 -0.5467 -0.3160
 3244TIP3    H231148   5.601   3.575   4.804 -0.7306 -0.2398  0.0917
 3245TIP3   OH231149   1.706   0.783   4.690 -0.3375  0.7582  0.2203
 3245TIP3    H131150   1.775   0.780   4.756  0.0231 -1.1433 -0.1657
 3245TIP3    H231151   1.632   0.824   4.734  0.7969  2.1998  0.8537
 3246TIP3   OH231152   4.320   4.018   4.829 -0.1337  0.2973 -0.4637
 3246TIP3    H131153   4.299   4.041   4.919  1.2134  1.2641 -0.3637
 3246TIP3    H231154   4.295   4.096   4.778  0.0477  0.1452 -0.7894
 3247TIP3   OH231155   4.583   5.575  12.523 -0.1701  0.0293  0.2760
 3247TIP3    H131156   4.541   5.640  12.466 -0.3870 -0.6905 -0.4167
 3247TIP3    H231157   4.675   5.600  12.525  0.0094 -0.4374 -1.1418
 3248TIP3   OH231158   3.989   2.863   4.008 -0.0185 -0.2389 -0.1454
 3248TIP3    H131159   3.943   2.945   4.028 -2.7150 -1.3456 -1.3184
 3248TIP3    H231160   3.968   2.805   4.082 -1.4020 -1.0632 -1.1433
 3249TIP3   OH231161   0.516   3.888   3.842  0.4241  0.1145  0.3506
 3249TIP3    H131162   0.469   3.966   3.811  2.5019  2.0481  1.6662
 3249TIP3    H231163   0.454   3.845   3.900 -0.3957  1.5099  0.5780
 3250TIP3   OH231164   6.145   3.847   0.387  0.2932 -0.3926 -0.0102
 3250TIP3    H131165   6.095   3.920   0.425  0.8864 -0.0470  0.1169
 3250TIP3    H231166   6.107   3.835   0.300  0.0596 -0.0593  0.0422
 3251TIP3   OH231167   6.440   4.959   3.379  0.0710  0.3046 -0.1866
 3251TIP3    H131168   6.357   4.978   3.335  1.0521 -0.9354 -2.7905
 3251TIP3    H231169   6.492   4.912   3.313  2.6084  0.4574  1.5515
 3252TIP3   OH231170   3.343   4.308   3.135 -0.1751 -0.0958 -0.0461
 3252TIP3    H131171   3.266   4.300   3.191  0.1470 -1.5253  0.2436
 3252TIP3    H231172   3.410   4.346   3.191 -0.6531  1.1785 -0.3076
 3253TIP3   OH231173   2.548   3.575   0.697  0.0936 -0.0964 -0.1283
 3253TIP3    H131174   2.511   3.517   0.631 -1.0099 -1.4017  1.5564
 3253TIP3    H231175   2.595   3.517   0.757  0.3128  0.9447  0.7421
 3254TIP3   OH231176   1.435   3.709   0.561 -0.5046  0.6582 -0.2002
 3254TIP3    H131177   1.432   3.723   0.466 -0.8490  0.6907 -0.1853
 3254TIP3    H231178   1.527   3.723   0.584  0.2103 -2.0961 -0.9558
 3255TIP3   OH231179   5.921   2.451  15.436  0.3188 -0.0736  0.1640
 3255TIP3    H131180   6.011   2.432  15.463  0.8133  0.1222 -1.2809
 3255TIP3    H231181   5.905   2.390  15.364 -1.2667 -1.1798  1.3631
 3256TIP3   OH231182   4.843   1.697  17.158 -0.1445 -0.5801 -0.3863
 3256TIP3    H131183   4.880   1.760  17.220 -0.1706  0.0736 -1.0175
 3256TIP3    H231184   4.907   1.626  17.154 -0.8286 -1.3937  1.5102
 3257TIP3   OH231185   0.140   2.830   5.234  0.1721  0.1532  0.3409
 3257TIP3    H131186   0.194   2.820   5.155 -0.1970 -1.2741  0.2378
 3257TIP3    H231187   0.064   2.880   5.205  0.1685 -0.1340 -0.1590
 3258TIP3   OH231188   3.521   3.773   1.862  0.2826 -0.2727  0.3708
 3258TIP3    H131189   3.536   3.712   1.789 -1.4907  0.1800 -0.4166
 3258TIP3    H231190   3.437   3.747   1.898 -0.3055  1.4208  0.2944
 3259TIP3   OH231191   1.540   2.310   4.408  0.0379 -0.1067 -0.1541
 3259TIP3    H131192   1.584   2.234   4.371  1.0160  0.4891 -0.2746
 3259TIP3    H231193   1.541   2.375   4.337 -1.1661 -0.1272 -0.1973
 3260TIP3   OH231194   6.257   3.272   1.004  0.0118  0.0364  0.2903
 3260TIP3    H131195   6.263   3.187   1.048  0.3325  1.0083  2.2364
 3260TIP3    H231196   6.341   3.314   1.022 -0.4370  1.0636  0.0178
 3261TIP3   OH231197   4.221   0.577   5.162 -0.2957  0.2683 -0.2905
 3261TIP3    H131198   4.263   0.510   5.217  0.2231  1.1988  0.4665
 3261TIP3    H231199   4.269   0.572   5.079  1.6546  1.5849  0.6807
 3262TIP3   OH231200   6.796   1.981   3.255  0.0433 -0.1098 -0.7058
 3262TIP3    H131201   6.766   1.900   3.213  0.7593 -0.8685  0.2169
 3262TIP3    H231202   6.864   2.015   3.197 -0.2378 -0.1823 -1.0799
 3263TIP3   OH231203   1.926   2.498   0.605  0.2698 -0.5040  0.4565
 3263TIP3    H131204   1.888   2.573   0.651  1.5838  1.7952 -1.9324
 3263TIP3    H231205   2.020   2.518   0.600  0.6819 -2.3823 -0.1625
 3264TIP3   OH231206   0.344   3.056  13.064  0.5483 -0.5835 -0.2309
 3264TIP3    H131207   0.400   3.006  13.004 -0.1906 -0.8198 -0.7301
 3264TIP3    H231208   0.304   2.990  13.120  1.7762 -0.3144  1.0185
 3265TIP3   OH231209   0.205   4.275   4.318 -0.0189 -0.3547 -0.2276
 3265TIP3    H131210   0.200   4.191   4.364 -1.0654  0.1519  0.6466
 3265TIP3    H231211   0.137   4.269   4.251 -0.0819 -0.2237 -0.1764
 3266TIP3   OH231212   1.719   0.539   3.612  0.4117  0.0483  0.3146
 3266TIP3    H131213   1.746   0.598   3.683  0.9123 -0.4043  0.5067
 3266TIP3    H231214   1.678   0.466   3.658  0.5257 -0.1350  0.1201
 3267TIP3   OH231215   1.434   5.885   4.783  0.2286 -0.0067  0.3377
 3267TIP3    H131216   1.513   5.837   4.761 -0.1542  0.0814 -1.3683
 3267TIP3    H231217   1.370   5.817   4.806  0.9261 -0.0508  2.3257
 3268TIP3   OH231218   1.397   4.976  15.201 -0.1214  0.2630  0.1525
 3268TIP3    H131219   1.380   5.067  15.179 -0.6058  0.5273  1.5536
 3268TIP3    H231220   1.410   4.975  15.296  1.6049 -0.8658 -0.0369
 3269TIP3   OH231221   1.663   6.146   1.919 -0.5268  0.1058  0.4223
 3269TIP3    H131222   1.593   6.190   1.968 -0.2114  1.8662 -0.6105
 3269TIP3    H231223   1.620   6.072   1.877 -1.1893 -0.3571  1.8535
 3270TIP3   OH231224   0.597   2.807   4.274 -0.2126  0.2327  0.0616
 3270TIP3    H131225   0.602   2.711   4.272 -0.5157  0.1809  1.1928
 3270TIP3    H231226   0.549   2.830   4.194  0.0382 -0.5397 -0.3266
 3271TIP3   OH231227   6.155   1.905   6.302 -0.0830  0.0166  0.0814
 3271TIP3    H131228   6.136   1.989   6.345  2.1763 -0.2301  1.7158
 3271TIP3    H231229   6.140   1.923   6.209 -1.8949  1.5339  0.5910
 3272TIP3   OH231230   1.201   3.748  15.018 -0.1212 -0.0548  0.3361
 3272TIP3    H131231   1.154   3.677  15.062 -0.4430  0.0585  0.1823
 3272TIP3    H231232   1.153   3.761  14.936  0.8902 -0.7513 -0.3900
 3273TIP3   OH231233   1.098   5.495  16.324  0.6347  0.7615 -0.0209
 3273TIP3    H131234   1.169   5.510  16.386  0.7505 -1.0405  0.3458
 3273TIP3    H231235   1.018   5.520  16.371  0.8810  1.1314  0.1984
 3274TIP3   OH231236   4.161   3.961  13.983  0.1948 -0.0303  0.0481
 3274TIP3    H131237   4.128   3.903  14.051  0.4556  1.0265  1.1029
 3274TIP3    H231238   4.110   4.042  13.993 -0.3063 -0.1224 -1.5238
 3275TIP3   OH231239   2.635   2.053  11.822  0.5460 -0.0082 -0.0394
 3275TIP3    H131240   2.684   2.065  11.741  1.6055 -1.4351  0.3357
 3275TIP3    H231241   2.701   2.063  11.891  0.0309 -0.5629  0.5525
 3276TIP3   OH231242   0.878   2.708   3.980  0.7903  0.1837 -0.1995
 3276TIP3    H131243   0.839   2.623   3.999  0.5732  0.3964  0.3361
 3276TIP3    H231244   0.907   2.702   3.889  1.5058 -0.7344  0.0787
 3277TIP3   OH231245   3.151   0.906   2.415  0.4744  0.1107  0.4115
 3277TIP3    H131246   3.225   0.876   2.468  0.7595  0.0929  0.0119
 3277TIP3    H231247   3.103   0.965   2.472 -0.4047 -1.4919  1.4301
 3278TIP3   OH231248   5.363   2.358  11.692  0.1297 -0.2348 -0.5273
 3278TIP3    H131249   5.350   2.390  11.781 -0.5507 -0.5480 -0.5122
 3278TIP3    H231250   5.409   2.429  11.648 -1.8038  0.9904 -0.6374
 3279TIP3   OH231251   3.535   2.284   3.097 -0.2071  0.2120  0.1734
 3279TIP3    H131252   3.531   2.318   3.008 -1.6750 -1.1318 -0.3151
 3279TIP3    H231253   3.452   2.310   3.137 -0.5892 -1.2098  0.3542
 3280TIP3   OH231254   3.772   0.478  14.252 -0.4459 -0.1200 -0.1415
 3280TIP3    H131255   3.782   0.481  14.156 -1.6304 -1.8933 -0.3600
 3280TIP3    H231256   3.679   0.491  14.267  0.0499  3.0135  1.0261
 3281TIP3   OH231257   4.119   2.669   3.867  0.1064 -0.3743  0.4317
 3281TIP3    H131258   4.088   2.747   3.913 -0.9332  2.5186 -4.4266
 3281TIP3    H231259   4.041   2.616   3.854 -0.2802  0.4486 -0.7116
 3282TIP3   OH231260   5.949   1.725   6.313  0.0086  0.2038 -0.3102
 3282TIP3    H131261   6.032   1.772   6.308  0.2020 -0.3099 -2.7780
 3282TIP3    H231262   5.896   1.762   6.243 -1.4931 -0.1764  0.5851
 3283TIP3   OH231263   4.249   1.003   2.543  0.1178 -0.1394 -0.4755
 3283TIP3    H131264   4.188   0.929   2.543 -1.3182  0.9968 -1.8389
 3283TIP3    H231265   4.225   1.055   2.467  2.3110  0.7785 -0.6167
 3284TIP3   OH231266   0.204   4.460  13.943  0.3606  0.0531  0.4832
 3284TIP3    H131267   0.287   4.412  13.952  0.0162 -0.6548  0.0289
 3284TIP3    H231268   0.227   4.540  13.897  0.8677  0.0858  0.7817
 3285TIP3   OH231269   6.473   1.510   4.999 -0.2167  0.6866 -0.6347
 3285TIP3    H131270   6.450   1.560   4.920 -0.8992 -1.0569 -1.5907
 3285TIP3    H231271   6.437   1.561   5.071 -0.2516  1.9401 -1.5015
 3286TIP3   OH231272   6.348   4.711  14.211 -0.6112 -0.0011 -0.1051
 3286TIP3    H131273   6.360   4.671  14.125 -0.9546  0.0079 -0.1582
 3286TIP3    H231274   6.320   4.639  14.267 -5.6697  0.7679 -1.1286
 3287TIP3   OH231275   1.373   5.543  14.261 -0.5966 -0.4661  0.0767
 3287TIP3    H131276   1.421   5.468  14.295 -1.3646 -1.4300 -0.8882
 3287TIP3    H231277   1.367   5.526  14.167 -0.1127  1.2050 -0.2951
 3288TIP3   OH231278   5.484   2.782   0.440 -0.3133 -0.2328 -0.0817
 3288TIP3    H131279   5.553   2.844   0.465 -0.0353 -0.2141 -0.8468
 3288TIP3    H231280   5.518   2.697   0.465  1.3265 -0.5789 -2.9698
 3289TIP3   OH231281   3.841   3.143   0.245 -0.4474 -0.0184  0.2611
 3289TIP3    H131282   3.916   3.156   0.187  0.5677  0.8738  1.7069
 3289TIP3    H231283   3.841   3.049   0.264 -0.6163 -0.2678 -0.9191
 3290TIP3   OH231284   3.885   3.494   2.584 -0.2459  0.2057  0.1134
 3290TIP3    H131285   3.792   3.511   2.600 -0.1532  0.1357  0.7327
 3290TIP3    H231286   3.889   3.401   2.560 -0.2702  0.0747  0.6182
 3291TIP3   OH231287   2.674   1.766   5.724  0.4439  0.4173 -0.3476
 3291TIP3    H131288   2.709   1.854   5.713 -0.8665  1.1571  1.0487
 3291TIP3    H231289   2.698   1.741   5.813  0.4452 -0.4887 -0.5876
 3292TIP3   OH231290   2.737   3.119   1.384 -0.1667 -0.2968 -0.1307
 3292TIP3    H131291   2.734   3.110   1.480  0.6529 -2.1697 -0.2331
 3292TIP3    H231292   2.647   3.140   1.359 -0.2176  1.1426  1.1072
 3293TIP3   OH231293   4.136   4.327   2.432 -0.1799  0.2142  0.1183
 3293TIP3    H131294   4.145   4.410   2.385  2.1018 -0.3369 -0.5243
 3293TIP3    H231295   4.124   4.353   2.523  1.5305  1.2784  0.0744
 3294TIP3   OH231296   4.974   5.676   2.646  0.1887  0.1669  0.0194
 3294TIP3    H131297   4.991   5.685   2.740 -1.5776  0.2248  0.3550
 3294TIP3    H231298   4.958   5.582   2.634 -2.8458  0.5459  0.4198
 3295TIP3   OH231299   2.589   0.233  11.566 -0.2627 -0.7264 -0.4519
 3295TIP3    H131300   2.560   0.318  11.532 -1.4413 -0.6203  0.7281
 3295TIP3    H231301   2.540   0.169  11.514 -1.2506 -0.5949  0.2919
 3296TIP3   OH231302   5.086   2.149   0.283 -0.1805 -0.1930  0.3704
 3296TIP3    H131303   5.097   2.108   0.197 -2.3719 -0.6385  0.2370
 3296TIP3    H231304   5.037   2.085   0.335  0.6480  0.2775  1.8007
 3297TIP3   OH231305   1.665   2.464   5.308 -0.9961 -0.3876  0.2986
 3297TIP3    H131306   1.648   2.377   5.273 -0.3893 -0.3839 -0.0216
 3297TIP3    H231307   1.603   2.474   5.380 -0.1275 -1.6421  1.2597
 3298TIP3   OH231308   4.329   3.570   4.791 -0.2831  0.4917 -0.1354
 3298TIP3    H131309   4.272   3.604   4.860 -0.9416  0.0089 -0.4250
 3298TIP3    H231310   4.270   3.557   4.716 -0.3566 -2.3848  0.2931
 3299TIP3   OH231311   0.711   5.851  13.056  0.2049 -0.0338  0.1727
 3299TIP3    H131312   0.696   5.858  12.961  0.3084  1.0364  0.2252
 3299TIP3    H231313   0.790   5.798  13.064  0.1286 -0.2347 -0.3278
 3300TIP3   OH231314   0.793   6.442   5.022  0.4014  0.1923  0.1081
 3300TIP3    H131315   0.775   6.483   4.937 -2.3614  1.7486  1.3182
 3300TIP3    H231316   0.885   6.462   5.039  0.0906  2.9560 -0.9517
 3301TIP3   OH231317   1.970   4.206   3.206  1.0859  0.8309 -0.1047
 3301TIP3    H131318   2.027   4.137   3.239  0.0198  0.1252  0.3105
 3301TIP3    H231319   1.996   4.284   3.255  0.2148  0.0249  1.7282
 3302TIP3   OH231320   4.077   5.592   2.072 -0.2510 -0.0779 -0.0637
 3302TIP3    H131321   4.071   5.672   2.020  0.8509  0.0629  0.0042
 3302TIP3    H231322   4.158   5.602   2.123 -0.6201 -0.7945  0.6941
 3303TIP3   OH231323   3.678   4.357  11.873  0.6934  0.1911 -0.2433
 3303TIP3    H131324   3.624   4.428  11.906 -0.1449  0.7016 -2.4848
 3303TIP3    H231325   3.632   4.327  11.794  2.2469 -1.2473 -0.6755
 3304TIP3   OH231326   4.060   4.350  12.674  0.2284 -0.5183  0.0971
 3304TIP3    H131327   4.028   4.270  12.630  0.4521 -0.6204  0.1209
 3304TIP3    H231328   4.092   4.320  12.758  1.6304 -0.6200 -0.4509
 3305TIP3   OH231329   2.162   4.383   2.537 -0.4181  0.1570 -0.1188
 3305TIP3    H131330   2.230   4.375   2.604  0.0471 -0.6878 -0.6641
 3305TIP3    H231331   2.205   4.427   2.463 -0.3103 -0.7824 -0.6358
 3306TIP3   OH231332   5.352   4.352   3.156  0.2816  0.2429 -0.3855
 3306TIP3    H131333   5.417   4.341   3.225  0.0355 -0.0868 -0.2024
 3306TIP3    H231334   5.357   4.444   3.132  1.3275  0.0722 -0.8811
 3307TIP3   OH231335   0.721   0.135   5.380 -0.4292 -0.1065 -0.3158
 3307TIP3    H131336   0.633   0.160   5.409 -0.5178 -0.8979  0.1443
 3307TIP3    H231337   0.724   0.040   5.395  0.3536 -0.1532 -0.7346
 3308TIP3   OH231338   4.082   0.941   3.802 -0.5597 -0.2549 -0.0333
 3308TIP3    H131339   4.118   0.917   3.717  0.1820  1.1445 -0.1526
 3308TIP3    H231340   4.107   1.033   3.813 -1.8770 -0.0010  1.0647
 3309TIP3   OH231341   5.810   4.825   2.799  0.6030 -0.8654 -0.1914
 3309TIP3    H131342   5.725   4.859   2.770  0.7221 -1.5517 -1.4257
 3309TIP3    H231343   5.788   4.763   2.869  0.1334 -0.5913 -0.0937
 3310TIP3   OH231344   0.004   1.821   5.254 -0.3223 -0.9498  0.5804
 3310TIP3    H131345  -0.074   1.803   5.306 -0.4931 -1.5362  0.1250
 3310TIP3    H231346   0.063   1.748   5.272 -0.8145 -1.7369 -0.8779
 3311TIP3   OH231347   6.731   6.598   3.055  0.2900 -0.1144  0.2849
 3311TIP3    H131348   6.718   6.529   3.120 -1.3817 -2.1348 -1.9880
 3311TIP3    H231349   6.678   6.570   2.980  3.5725  1.0183 -2.7447
 3312TIP3   OH231350   0.653   3.175  11.715  0.2489  0.6579  0.4561
 3312TIP3    H131351   0.573   3.143  11.674  0.6463  2.0647 -1.5618
 3312TIP3    H231352   0.678   3.106  11.777 -1.2863 -0.8291 -0.5154
 3313TIP3   OH231353   0.698   3.841   3.284  0.1955  0.0170 -0.1844
 3313TIP3    H131354   0.710   3.857   3.377 -0.6891  1.6870 -0.3249
 3313TIP3    H231355   0.612   3.800   3.276  0.7859 -1.2847 -0.1912
 3314TIP3   OH231356   3.925   6.357  13.692 -0.0518 -0.7770 -0.3853
 3314TIP3    H131357   3.980   6.398  13.759 -1.6124 -1.4025  1.3667
 3314TIP3    H231358   3.867   6.427  13.663 -0.4708 -0.9013  0.1403
 3315TIP3   OH231359   2.179   3.747   4.234  0.2473 -0.1353  0.5698
 3315TIP3    H131360   2.148   3.767   4.145  0.6883 -0.5269  0.3225
 3315TIP3    H231361   2.101   3.757   4.289 -0.0696 -0.0467  0.1148
 3316TIP3   OH231362   2.787   1.423  11.718  0.0716 -0.1898  0.0316
 3316TIP3    H131363   2.694   1.437  11.698  0.0574  0.1158  0.3196
 3316TIP3    H231364   2.802   1.469  11.800  0.5921  0.1450 -0.2469
 3317TIP3   OH231365   6.445   0.362  10.678  0.4452 -0.2756  0.1909
 3317TIP3    H131366   6.481   0.337  10.763 -0.0588 -0.1858  0.4372
 3317TIP3    H231367   6.363   0.408  10.699 -2.0573 -4.0342 -0.4159
 3318TIP3   OH231368   0.905   5.322   2.945  0.3899  0.1124 -0.2324
 3318TIP3    H131369   0.898   5.398   3.003 -0.2052  1.3339 -1.8080
 3318TIP3    H231370   0.965   5.262   2.989  0.9866  1.5697  0.9991
 3319TIP3   OH231371   1.094   5.007   3.587  0.1946  0.0927  0.2963
 3319TIP3    H131372   1.079   4.953   3.665 -3.5215  1.2314  0.5717
 3319TIP3    H231373   1.053   4.959   3.516  2.3958 -0.3002 -0.7985
 3320TIP3   OH231374   4.726   3.394  13.843  0.5908  0.1622 -0.0601
 3320TIP3    H131375   4.724   3.350  13.928  2.0409  1.3031  0.6070
 3320TIP3    H231376   4.688   3.480  13.859  1.4991  0.6439 -0.3705
 3321TIP3   OH231377   5.648   2.058   0.488 -0.2873 -0.5349  0.3548
 3321TIP3    H131378   5.708   2.052   0.562  0.7761  0.9142 -0.3561
 3321TIP3    H231379   5.696   2.020   0.415 -1.4319 -2.2036  0.4087
 3322TIP3   OH231380   5.227   6.295   4.368  0.3846 -0.0368  0.0109
 3322TIP3    H131381   5.276   6.230   4.317  0.5415 -0.6521  0.9309
 3322TIP3    H231382   5.137   6.288   4.335  0.5803 -0.0607 -0.5319
 3323TIP3   OH231383   0.170   0.802  15.905 -0.5322  0.2566 -0.2462
 3323TIP3    H131384   0.239   0.739  15.883  1.0871  1.9115 -0.0972
 3323TIP3    H231385   0.129   0.823  15.821  0.3971  0.6524 -0.6114
 3324TIP3   OH231386   0.392   5.473  15.368  0.2410 -0.3863 -0.1608
 3324TIP3    H131387   0.470   5.511  15.409  0.5599 -1.0602 -0.1344
 3324TIP3    H231388   0.352   5.421  15.437 -0.3992  0.1869 -0.0903
 3325TIP3   OH231389   4.477   6.202  12.484  0.3482  0.4333  0.6641
 3325TIP3    H131390   4.467   6.287  12.527 -0.9122  0.3353  0.6250
 3325TIP3    H231391   4.529   6.149  12.544 -1.6397  0.1940  2.2839
 3326TIP3   OH231392   4.378   5.330  16.293  0.0583  0.1084 -0.3872
 3326TIP3    H131393   4.304   5.272  16.279 -0.7482  0.7534  1.0076
 3326TIP3    H231394   4.343   5.418  16.280  1.2570  0.3652 -2.4459
 3327TIP3   OH231395   5.232   0.272   3.460  0.1156 -0.2322  0.3678
 3327TIP3    H131396   5.211   0.189   3.502 -0.3515 -0.1819  0.2372
 3327TIP3    H231397   5.166   0.333   3.493 -0.5023 -0.2830 -0.7369
 3328TIP3   OH231398   2.668   3.235  15.504  0.7507  0.0312  0.2077
 3328TIP3    H131399   2.573   3.230  15.503  0.7838 -0.6607 -0.0819
 3328TIP3    H231400   2.688   3.305  15.565  0.0438  0.4368 -0.0207
 3329TIP3   OH231401   3.888   4.054   5.069  0.6453 -0.4063 -0.7217
 3329TIP3    H131402   3.879   3.990   4.998  1.0819  0.2965 -1.4228
 3329TIP3    H231403   3.956   4.017   5.126 -1.4851 -2.2616  0.7924
 3330TIP3   OH231404   2.681   0.890  16.600  0.1566  0.1693 -0.7073
 3330TIP3    H131405   2.687   0.866  16.507 -2.0581 -0.5047 -0.7209
 3330TIP3    H231406   2.606   0.949  16.605  1.2009  1.4753  0.4517
 3331TIP3   OH231407   1.503   3.017  12.718 -0.2135 -0.2864  0.1447
 3331TIP3    H131408   1.486   2.941  12.773 -0.7993 -0.6160 -0.4821
 3331TIP3    H231409   1.418   3.039  12.679 -0.0470  0.6623  0.2807
 3332TIP3   OH231410   5.846   5.090  16.590 -0.2676  0.7405 -0.3443
 3332TIP3    H131411   5.922   5.127  16.633 -0.5223  2.5991 -1.3904
 3332TIP3    H231412   5.795   5.166  16.562 -0.5388 -0.3547 -3.1193
 3333TIP3   OH231413   1.038   4.291  16.341 -0.5139 -0.2213 -0.3953
 3333TIP3    H131414   1.073   4.217  16.290  0.4520  0.1388 -0.2881
 3333TIP3    H231415   1.054   4.267  16.432 -1.5873 -0.5449 -0.2796
 3334TIP3   OH231416   1.329   4.540  11.414  0.9343  0.4240 -0.1553
 3334TIP3    H131417   1.413   4.585  11.421 -0.1902  2.4323  1.7179
 3334TIP3    H231418   1.275   4.596  11.359 -0.5767  1.7537  2.4432
 3335TIP3   OH231419   0.085   1.042  13.261 -0.1497 -0.6754 -0.5646
 3335TIP3    H131420   0.001   0.997  13.253 -0.2112 -0.6849  0.1029
 3335TIP3    H231421   0.134   0.991  13.325 -0.2157  0.2046  0.2008
 3336TIP3   OH231422   4.179   0.290   2.154  0.2299 -0.3011 -0.2429
 3336TIP3    H131423   4.204   0.252   2.238  2.7273  1.1727 -0.2244
 3336TIP3    H231424   4.088   0.317   2.166 -0.0110 -1.6377  1.3746
 3337TIP3   OH231425   3.723   1.080   1.848  0.0064 -0.3539 -0.0605
 3337TIP3    H131426   3.719   1.129   1.929 -1.1623  1.3718 -1.1004
 3337TIP3    H231427   3.653   1.116   1.794  1.2558 -0.8509 -2.1522
 3338TIP3   OH231428   0.499   3.935   2.870 -0.2743 -0.1981 -0.0156
 3338TIP3    H131429   0.545   3.851   2.865  0.3460  0.1514 -0.3571
 3338TIP3    H231430   0.415   3.919   2.827 -0.5473 -0.8872  0.7481
 3339TIP3   OH231431   4.254   0.296   1.437 -0.2324  0.2451 -0.1259
 3339TIP3    H131432   4.220   0.300   1.526 -0.6673 -0.9693 -0.2236
 3339TIP3    H231433   4.349   0.293   1.447 -0.2807  0.0930  0.2926
 3340TIP3   OH231434   1.520   6.781   3.775  0.2425  1.0858 -0.0166
 3340TIP3    H131435   1.438   6.732   3.782  0.6826  0.4099  0.5398
 3340TIP3    H231436   1.512   6.828   3.692  1.1560 -2.4978 -2.3975
 3341TIP3   OH231437   2.533   4.989  12.452  0.1234 -0.4896  0.1966
 3341TIP3    H131438   2.555   5.015  12.542 -2.2443 -1.7149  1.1969
 3341TIP3    H231439   2.600   5.033  12.398  0.4486  1.9129  2.3479
 3342TIP3   OH231440   5.012   0.276  13.726 -0.3499  0.2211  0.1295
 3342TIP3    H131441   4.974   0.311  13.645  0.1398 -0.3616 -0.3563
 3342TIP3    H231442   5.004   0.349  13.788 -3.0485 -0.1318  0.3356
 3343TIP3   OH231443   2.241   4.241  14.187  0.1917 -0.2057 -0.8863
 3343TIP3    H131444   2.288   4.245  14.270  0.6338  1.2782 -1.1795
 3343TIP3    H231445   2.308   4.217  14.123  0.4002  1.1356 -1.1848
 3344TIP3   OH231446   0.684   0.428  12.377 -0.3467  0.3551  0.0989
 3344TIP3    H131447   0.676   0.443  12.283  0.1247  0.2022  0.0323
 3344TIP3    H231448   0.696   0.515  12.415  0.5742  0.3193 -0.0995
 3345TIP3   OH231449   4.382   1.367   2.481  0.1114  0.4425 -0.1872
 3345TIP3    H131450   4.435   1.421   2.540 -0.7762  1.0160  0.1076
 3345TIP3    H231451   4.435   1.358   2.402  0.4400  1.4270 -0.0916
 3346TIP3   OH231452   3.550   1.465   5.883 -0.6432 -0.5486  0.2479
 3346TIP3    H131453   3.619   1.408   5.849 -1.2355 -0.3561 -1.3409
 3346TIP3    H231454   3.571   1.551   5.848 -2.1822 -0.6678 -1.0554
 3347TIP3   OH231455   1.318   6.776  14.411  0.4155 -0.1145 -0.9377
 3347TIP3    H131456   1.319   6.833  14.334 -0.3536  0.1693 -0.7489
 3347TIP3    H231457   1.364   6.826  14.478  0.2837  0.0275 -0.9514
 3348TIP3   OH231458   6.713   1.506   5.401  0.1577 -0.6083 -0.4236
 3348TIP3    H131459   6.797   1.464   5.418  1.1641  1.8696  1.3131
 3348TIP3    H231460   6.725   1.597   5.428 -2.5638  0.2942 -1.8127
 3349TIP3   OH231461   5.842   3.735  12.764 -0.2950  0.2662  0.0437
 3349TIP3    H131462   5.832   3.813  12.710 -0.7373 -0.1614 -0.5002
 3349TIP3    H231463   5.777   3.674  12.730 -0.8234  0.1111  1.2785
 3350TIP3   OH231464   4.527   2.230  14.165 -0.0201 -0.1906 -0.5981
 3350TIP3    H131465   4.481   2.301  14.120  0.4448  1.1513  0.9416
 3350TIP3    H231466   4.488   2.228  14.252 -0.3663 -2.2174 -0.7343
 3351TIP3   OH231467   2.020   5.324  14.739 -0.4388  0.5851 -0.6306
 3351TIP3    H131468   1.951   5.328  14.672  0.7261  2.0837 -1.8340
 3351TIP3    H231469   2.008   5.405  14.789 -1.8928 -0.9612  1.6941
 3352TIP3   OH231470   4.879   0.544   1.097  0.5395  0.1077  0.0133
 3352TIP3    H131471   4.860   0.507   1.183  1.8600  0.0387  0.2956
 3352TIP3    H231472   4.870   0.639   1.109  2.4490  0.2585  0.7506
 3353TIP3   OH231473   3.038   0.829  14.313 -0.2538 -0.1452  0.3585
 3353TIP3    H131474   3.102   0.825  14.384  0.1225  2.2949  0.2221
 3353TIP3    H231475   2.975   0.759  14.333  1.6584 -1.7031  1.2282
 3354TIP3   OH231476   3.951   2.215  16.490 -0.0107  0.2192 -0.5300
 3354TIP3    H131477   3.962   2.270  16.568 -2.6746  1.3946 -0.9020
 3354TIP3    H231478   3.994   2.263  16.420 -0.4575  0.7754 -0.4247
 3355TIP3   OH231479   0.939   1.901   5.026 -0.0130  0.0707  0.2709
 3355TIP3    H131480   1.019   1.857   5.053  0.2752  0.9578  0.9089
 3355TIP3    H231481   0.907   1.849   4.952  1.6062  0.1969 -0.5693
 3356TIP3   OH231482   6.169   2.408   4.826 -0.2190 -0.1743  0.1028
 3356TIP3    H131483   6.201   2.490   4.787 -1.6418 -0.3216 -1.5012
 3356TIP3    H231484   6.120   2.435   4.903  1.7046  0.2206  1.2586
 3357TIP3   OH231485   6.672   5.125   1.417 -0.3892  0.2388 -0.2712
 3357TIP3    H131486   6.632   5.200   1.461 -1.5659 -0.5917  0.1156
 3357TIP3    H231487   6.628   5.049   1.454  0.4046 -0.6241 -1.0468
 3358TIP3   OH231488   4.480   4.211  14.771  0.8995 -0.5262  0.3870
 3358TIP3    H131489   4.496   4.117  14.782  0.5632 -0.5958  0.2775
 3358TIP3    H231490   4.508   4.229  14.681  2.8677 -0.1188  1.0243
 3359TIP3   OH231491   0.254   0.221   1.105 -0.2012  0.7265  0.1182
 3359TIP3    H131492   0.238   0.230   1.012  0.5578 -0.3111 -0.1307
 3359TIP3    H231493   0.173   0.184   1.140 -0.4236  0.9590 -0.1504
 3360TIP3   OH231494   5.069   5.836  16.846  0.1287  0.1521  0.4241
 3360TIP3    H131495   4.999   5.796  16.897 -0.0945  1.6258  1.3414
 3360TIP3    H231496   5.148   5.792  16.874 -0.0105  0.8413  1.9956
 3361TIP3   OH231497   3.120   4.481   1.459  0.1243 -0.1394  0.3938
 3361TIP3    H131498   3.123   4.472   1.364 -0.6464 -1.4429  0.4625
 3361TIP3    H231499   3.059   4.554   1.474 -0.3395 -0.4124 -0.1057
 3362TIP3   OH231500   0.194   4.876  14.551 -0.0295  0.1829 -0.6159
 3362TIP3    H131501   0.107   4.840  14.538  0.4660 -0.6639 -1.7095
 3362TIP3    H231502   0.186   4.932  14.628 -1.1252 -1.2473  0.3474
 3363TIP3   OH231503   5.524   0.746  15.667  0.0607  0.3329  0.2325
 3363TIP3    H131504   5.598   0.749  15.727 -0.9131  0.0099  1.5098
 3363TIP3    H231505   5.449   0.774  15.720 -1.1780 -1.7507 -0.2634
 3364TIP3   OH231506   6.063   1.031   2.817 -0.0956  0.2290  0.0918
 3364TIP3    H131507   6.093   0.987   2.738 -0.0931  1.2533 -0.4934
 3364TIP3    H231508   5.977   1.066   2.794  0.9141  2.6431 -0.3136
 3365TIP3   OH231509   2.673   3.400   5.645  0.6463  0.2134 -0.6842
 3365TIP3    H131510   2.624   3.322   5.668  0.7256  0.3925  0.1046
 3365TIP3    H231511   2.651   3.416   5.553  0.8010 -0.8514 -0.9119
 3366TIP3   OH231512   4.238   3.068  13.988  0.3562 -0.5552  0.3552
 3366TIP3    H131513   4.271   3.042  13.902  0.6535 -0.2796  0.3841
 3366TIP3    H231514   4.236   3.164  13.985  1.1446 -0.5173  0.9422
 3367TIP3   OH231515   3.151   0.791   3.386  0.1977  0.3879  0.0612
 3367TIP3    H131516   3.176   0.838   3.466  0.0908  1.5027 -0.5353
 3367TIP3    H231517   3.132   0.860   3.323 -0.4856 -0.4703 -0.7001
 3368TIP3   OH231518   2.714   1.498   0.387  0.1276  0.0664 -0.4280
 3368TIP3    H131519   2.747   1.583   0.416 -0.3275  0.2746 -0.5159
 3368TIP3    H231520   2.620   1.510   0.379  0.0002 -0.5860  0.0266
 3369TIP3   OH231521   1.051   5.579   5.203 -0.2182 -0.5838 -0.4294
 3369TIP3    H131522   1.131   5.590   5.152 -1.1958 -0.8529 -2.1242
 3369TIP3    H231523   1.027   5.487   5.191 -0.6087 -0.5929  0.3350
 3370TIP3   OH231524   0.855   3.647   3.137 -0.0325 -0.3137  0.0199
 3370TIP3    H131525   0.784   3.669   3.076  1.7534 -0.3449 -2.2021
 3370TIP3    H231526   0.854   3.718   3.202 -0.3359  1.2435 -1.6073
 3371TIP3   OH231527   4.676   6.277   5.516  0.5033 -0.1499 -0.2719
 3371TIP3    H131528   4.709   6.243   5.433  2.0098  1.6000 -0.4640
 3371TIP3    H231529   4.698   6.210   5.580 -1.2052 -1.8058 -1.2966
 3372TIP3   OH231530   2.416   3.851   2.980  0.4037  0.0621  0.3932
 3372TIP3    H131531   2.334   3.894   3.004  0.8283  0.6958  0.7486
 3372TIP3    H231532   2.481   3.921   2.982  1.1457 -0.6259  1.1474
 3373TIP3   OH231533   4.125   4.267  16.837  0.2477  0.0637 -0.3157
 3373TIP3    H131534   4.177   4.333  16.881  2.4798 -1.2817 -0.7814
 3373TIP3    H231535   4.082   4.314  16.765 -0.5699  1.5339  1.0679
 3374TIP3   OH231536   1.404   1.709  11.646 -0.1336 -0.7131  0.7555
 3374TIP3    H131537   1.342   1.681  11.714 -1.1186 -1.5308 -0.4412
 3374TIP3    H231538   1.349   1.750  11.580  0.7865 -0.1746  0.3207
 3375TIP3   OH231539   5.040   3.373  14.540  0.3197 -0.2314 -0.1748
 3375TIP3    H131540   5.010   3.442  14.481  0.0153 -0.7855 -0.6682
 3375TIP3    H231541   4.977   3.302  14.529  0.3553 -0.4134  0.6836
 3376TIP3   OH231542   2.677   0.050   4.613 -0.5486  0.0877  0.2663
 3376TIP3    H131543   2.638   0.027   4.528 -2.9317  1.5283  0.8730
 3376TIP3    H231544   2.667  -0.029   4.666  0.7289 -0.7389 -0.6678
 3377TIP3   OH231545   0.547   0.704   0.218  0.2501 -0.0765 -0.4233
 3377TIP3    H131546   0.630   0.729   0.179  0.9520 -2.2215 -0.4697
 3377TIP3    H231547   0.490   0.687   0.143 -0.0261  0.7378 -0.4029
 3378TIP3   OH231548   4.296   3.017   3.600  0.2456  0.3139  0.2531
 3378TIP3    H131549   4.354   2.976   3.536 -1.2768 -2.0665  0.2621
 3378TIP3    H231550   4.213   2.969   3.592 -1.4391  2.8789  0.9540
 3379TIP3   OH231551   0.384   3.409   2.527  0.3254 -0.2612  0.0785
 3379TIP3    H131552   0.452   3.451   2.474 -0.4833 -0.9598 -1.6024
 3379TIP3    H231553   0.315   3.475   2.534 -0.8966 -1.1170 -2.4668
 3380TIP3   OH231554   1.821   4.428   2.154 -0.0215  0.3061  0.0575
 3380TIP3    H131555   1.735   4.468   2.163  0.7498  1.6204  2.5159
 3380TIP3    H231556   1.832   4.377   2.235  1.5918  0.3968 -0.0704
 3381TIP3   OH231557   4.567   2.120  16.709  0.7091  0.0219 -0.2731
 3381TIP3    H131558   4.526   2.206  16.707  0.1425 -0.2395 -0.2160
 3381TIP3    H231559   4.511   2.068  16.768  0.3720 -0.7213 -1.2253
 3382TIP3   OH231560   4.846   4.224  14.756  0.0433 -0.0407  0.3274
 3382TIP3    H131561   4.816   4.289  14.693  0.6051 -1.6463 -1.7178
 3382TIP3    H231562   4.799   4.245  14.836 -0.6255  2.1709 -0.5773
 3383TIP3   OH231563   3.577   1.913   2.720  0.3005 -0.1908  0.0541
 3383TIP3    H131564   3.598   1.993   2.672  0.3833 -0.5911 -0.5706
 3383TIP3    H231565   3.514   1.942   2.787  0.6160  0.4636  0.0721
 3384TIP3   OH231566   4.786   5.744  15.060 -0.0301 -0.1422 -0.1257
 3384TIP3    H131567   4.882   5.741  15.066  0.0625  0.1871 -1.2327
 3384TIP3    H231568   4.765   5.688  14.985 -0.7822 -0.9506  0.6695
 3385TIP3   OH231569   5.795   6.560  11.209  0.5347  0.1364  0.3101
 3385TIP3    H131570   5.862   6.509  11.164  0.5749 -1.1332  1.6978
 3385TIP3    H231571   5.806   6.538  11.302  0.5492  2.7292  1.0083
 3386TIP3   OH231572   3.186   3.375   2.015  0.0032  0.3310 -0.2511
 3386TIP3    H131573   3.261   3.414   1.969  0.1707  0.7480  0.3535
 3386TIP3    H231574   3.117   3.370   1.949  0.4236  0.3633 -0.7007
 3387TIP3   OH231575   1.913   4.908  17.120 -0.5876 -0.0739  0.6585
 3387TIP3    H131576   2.004   4.909  17.148 -0.6465  0.3685  0.8465
 3387TIP3    H231577   1.864   4.933  17.198 -0.6173  3.1437 -0.2581
 3388TIP3   OH231578   1.121   0.102  17.112 -0.3154  0.5553 -0.4819
 3388TIP3    H131579   1.033   0.103  17.073 -0.3653 -0.5762 -0.4345
 3388TIP3    H231580   1.159   0.186  17.086 -1.0810  0.6848 -1.2691
 3389TIP3   OH231581   3.095   1.177   3.467 -0.3497  0.3308 -0.2867
 3389TIP3    H131582   3.182   1.146   3.442 -0.6793  0.0730 -1.1760
 3389TIP3    H231583   3.111   1.251   3.525  0.4840 -1.8382  2.4478
 3390TIP3   OH231584   2.180   5.664   4.019 -0.3900  0.0965  0.5507
 3390TIP3    H131585   2.193   5.759   4.024 -1.2280  0.1917  1.4977
 3390TIP3    H231586   2.101   5.654   3.966  0.0431 -0.1085 -0.0566
 3391TIP3   OH231587   4.689   3.452   6.043 -0.0629  0.2473  0.0765
 3391TIP3    H131588   4.649   3.536   6.021  1.5545  1.0152 -0.0414
 3391TIP3    H231589   4.617   3.401   6.080 -1.4120  1.1546 -1.1660
 3392TIP3   OH231590   2.801   0.858  12.596  0.9517 -0.0244 -0.0050
 3392TIP3    H131591   2.874   0.820  12.547  0.9776 -0.5910  0.4588
 3392TIP3    H231592   2.733   0.873  12.530  1.7249  1.1557 -0.5619
 3393TIP3   OH231593   0.316   5.703   1.396 -0.1166 -0.1377  0.3060
 3393TIP3    H131594   0.279   5.694   1.309 -1.1462 -2.1232  0.8819
 3393TIP3    H231595   0.398   5.652   1.393  1.0172  1.6132 -0.0671
 3394TIP3   OH231596   3.982   2.815  14.768  0.2877 -0.4241 -0.8655
 3394TIP3    H131597   3.968   2.720  14.778  1.0572 -0.4915 -0.3015
 3394TIP3    H231598   3.931   2.854  14.840  2.1572 -0.6139  0.6502
 3395TIP3   OH231599   2.567   4.112  13.306  0.0862  0.2682  0.1689
 3395TIP3    H131600   2.643   4.166  13.285  1.2566 -1.6889 -0.9487
 3395TIP3    H231601   2.594   4.023  13.285 -2.0707 -0.6761  1.0459
 3396TIP3   OH231602   1.599   2.903   0.441 -0.8643 -0.0034  0.1521
 3396TIP3    H131603   1.508   2.921   0.466 -0.7338  1.4733 -0.3560
 3396TIP3    H231604   1.648   2.975   0.480 -0.1296  0.1091 -0.9646
 3397TIP3   OH231605   6.077   5.868   1.240  0.8483 -0.7019 -0.7748
 3397TIP3    H131606   6.091   5.962   1.252  0.3592 -0.7356  0.2238
 3397TIP3    H231607   6.015   5.862   1.167 -2.5049  0.0525  1.7258
 3398TIP3   OH231608   3.969   2.782   4.288 -0.5302  0.5012  0.2206
 3398TIP3    H131609   4.008   2.705   4.329 -0.7244  0.4464  0.3027
 3398TIP3    H231610   3.875   2.763   4.285 -0.4528  0.2285 -0.8253
 3399TIP3   OH231611   2.389   3.590   4.207  0.1170 -0.5377 -0.4528
 3399TIP3    H131612   2.403   3.632   4.122 -1.7124 -1.5550 -1.3182
 3399TIP3    H231613   2.319   3.641   4.247  0.7600 -0.2549  0.3444
 3400TIP3   OH231614   2.666   3.168  11.302 -0.0539  0.3892  0.2548
 3400TIP3    H131615   2.758   3.190  11.311  0.6647 -1.8556 -0.7654
 3400TIP3    H231616   2.653   3.097  11.366 -0.0226 -1.8883 -2.0995
 3401TIP3   OH231617   0.743   5.015  15.830  0.0236  0.1670  0.6230
 3401TIP3    H131618   0.720   4.935  15.783 -0.4785  1.6165 -1.7659
 3401TIP3    H231619   0.695   5.010  15.912 -0.5188 -1.6522  0.2368
 3402TIP3   OH231620   4.429   1.890   5.194  0.2213  0.8529  0.0359
 3402TIP3    H131621   4.363   1.869   5.128 -0.0345  0.2811  0.4649
 3402TIP3    H231622   4.493   1.944   5.147  0.4413 -0.1647 -0.8992
 3403TIP3   OH231623   1.693   1.718  12.288 -0.1151 -0.4138  0.0345
 3403TIP3    H131624   1.730   1.639  12.248  0.9912  0.5723 -0.9771
 3403TIP3    H231625   1.617   1.738  12.234 -0.9876 -1.3163  0.8940
 3404TIP3   OH231626   5.915   5.057  12.762 -0.2177  0.1388 -0.2802
 3404TIP3    H131627   6.004   5.035  12.734 -0.1370 -0.2009  0.2262
 3404TIP3    H231628   5.909   5.152  12.754  0.0482  0.1163 -0.7342
 3405TIP3   OH231629   6.564   4.013  15.159  0.6469 -0.3334 -0.4478
 3405TIP3    H131630   6.475   4.000  15.125 -0.2250  1.1373  1.1319
 3405TIP3    H231631   6.553   4.073  15.233  2.9357 -0.3527 -0.0256
 3406TIP3   OH231632   4.461   1.032  16.050 -0.1399  0.0567  0.6279
 3406TIP3    H131633   4.426   1.063  16.133 -1.5164  0.3404 -0.0327
 3406TIP3    H231634   4.409   1.077  15.983  1.6005  0.6067 -0.4185
 3407TIP3   OH231635   0.953   3.328   1.235  0.2295  0.6784 -0.0934
 3407TIP3    H131636   1.041   3.361   1.254  0.6056 -0.2355 -0.1942
 3407TIP3    H231637   0.912   3.318   1.321  0.6440 -0.0047  0.0310
 3408TIP3   OH231638   3.657   3.266   2.220 -0.1926 -0.3076  0.4770
 3408TIP3    H131639   3.753   3.259   2.220 -0.2182 -1.2472  2.0507
 3408TIP3    H231640   3.640   3.348   2.266 -0.1452  0.0928 -0.2121
 3409TIP3   OH231641   2.292   4.655   4.076 -1.0722 -0.1374 -0.0079
 3409TIP3    H131642   2.304   4.561   4.087  0.2720 -0.3956 -2.7610
 3409TIP3    H231643   2.360   4.695   4.131 -0.3507 -0.8756 -0.3452
 3410TIP3   OH231644   1.655   2.025   2.217  0.6417 -0.0928 -0.0464
 3410TIP3    H131645   1.687   2.095   2.274 -0.9179  0.5116  0.1297
 3410TIP3    H231646   1.622   2.071   2.139 -0.5337 -0.6040  0.1336
 3411TIP3   OH231647   5.669   5.330  12.459 -0.7211  0.1642 -0.0640
 3411TIP3    H131648   5.625   5.310  12.542  1.9557  0.4864  1.5595
 3411TIP3    H231649   5.598   5.343  12.396 -2.8382 -1.7379  1.7556
 3412TIP3   OH231650   5.680   5.495   3.618  0.1094 -0.0910  0.1928
 3412TIP3    H131651   5.740   5.432   3.657  3.0648  2.4937  0.1533
 3412TIP3    H231652   5.603   5.492   3.674  1.8098 -0.7864  2.6512
 3413TIP3   OH231653   2.837   2.561  13.178 -0.3102  0.3522  0.1793
 3413TIP3    H131654   2.811   2.475  13.212  0.3722  0.0900  0.0482
 3413TIP3    H231655   2.821   2.554  13.084  0.7223 -0.0056  0.0140
 3414TIP3   OH231656   0.830   5.709  14.267  0.7815 -0.0232  0.0137
 3414TIP3    H131657   0.790   5.772  14.207  1.5560  0.5963  0.1436
 3414TIP3    H231658   0.755   5.664  14.306  0.2076  0.9435  0.0643
 3415TIP3   OH231659   2.840   1.470   4.601 -0.0699  0.2897  0.4361
 3415TIP3    H131660   2.877   1.481   4.688  0.3665 -0.0055  0.2940
 3415TIP3    H231661   2.754   1.511   4.606 -1.1756 -1.9661  1.7710
 3416TIP3   OH231662   3.927   0.770  12.318 -0.0812 -0.6755  0.0111
 3416TIP3    H131663   4.007   0.796  12.271  0.1876 -1.1647  0.1939
 3416TIP3    H231664   3.945   0.682  12.350 -0.6905 -0.7846  0.0741
 3417TIP3   OH231665   4.549   4.143  15.604  0.4117 -0.5541 -0.3579
 3417TIP3    H131666   4.455   4.157  15.598  0.7103  1.2018 -1.7709
 3417TIP3    H231667   4.575   4.111  15.518  1.3513  0.8961 -0.6612
 3418TIP3   OH231668   5.003   3.206   5.784  0.3185 -0.1942 -0.1552
 3418TIP3    H131669   4.930   3.151   5.813  0.4806  0.9031  2.5988
 3418TIP3    H231670   4.969   3.295   5.788  1.2099  0.1915 -0.8824
 3419TIP3   OH231671   2.730   3.206   0.025  0.2957  0.0286 -0.4081
 3419TIP3    H131672   2.640   3.177   0.011  0.2439  0.4536 -1.0046
 3419TIP3    H231673   2.731   3.236   0.116  0.0564 -0.7423 -0.1417
 3420TIP3   OH231674   1.328   5.533  15.936 -0.2616 -0.3168  0.1778
 3420TIP3    H131675   1.420   5.540  15.959  0.3880 -1.2470 -1.9064
 3420TIP3    H231676   1.288   5.487  16.009  1.5761 -2.7589 -0.2276
 3421TIP3   OH231677   5.450   3.871  17.080  0.2841  0.2455  0.0301
 3421TIP3    H131678   5.539   3.840  17.090  0.3954  1.0522  1.9548
 3421TIP3    H231679   5.398   3.792  17.066  1.1714 -0.2995 -0.2589
 3422TIP3   OH231680   4.681   3.687   3.189  0.3972 -0.3493 -0.7326
 3422TIP3    H131681   4.682   3.606   3.239 -1.7234 -0.4781 -0.8119
 3422TIP3    H231682   4.713   3.663   3.102 -0.6273 -1.2181 -0.8825
 3423TIP3   OH231683   1.839   2.933   5.084  0.3004 -0.8147  0.8043
 3423TIP3    H131684   1.746   2.911   5.074  0.4290 -0.9504 -0.1329
 3423TIP3    H231685   1.868   2.956   4.996  1.3538 -1.5600  0.9427
 3424TIP3   OH231686   3.841   5.681  13.030  0.1340  0.2202 -0.1825
 3424TIP3    H131687   3.749   5.664  13.008 -0.0960 -2.4053  2.2378
 3424TIP3    H231688   3.844   5.776  13.045 -1.2599  0.9958 -3.6666
 3425TIP3   OH231689   5.523   0.591   3.502  0.2820  0.1308  0.5111
 3425TIP3    H131690   5.494   0.572   3.591 -1.7602 -0.9271 -0.3049
 3425TIP3    H231691   5.568   0.512   3.474  2.3515  1.0423  1.0855
 3426TIP3   OH231692   5.705   6.435  15.787 -0.6026  0.2659 -0.2987
 3426TIP3    H131693   5.670   6.403  15.870 -1.8102 -0.2393 -0.9725
 3426TIP3    H231694   5.794   6.463  15.807 -1.1740  1.0148  1.3594
 3427TIP3   OH231695   1.135   3.131  12.473 -0.0735 -0.2698  0.0652
 3427TIP3    H131696   1.218   3.147  12.428  0.3192 -0.6711  0.6275
 3427TIP3    H231697   1.096   3.217  12.483 -1.5512 -0.3380 -3.5441
 3428TIP3   OH231698   2.082   5.178  15.477 -0.3767  0.0033  0.3240
 3428TIP3    H131699   2.165   5.152  15.517  0.4359  1.9160 -0.0133
 3428TIP3    H231700   2.069   5.117  15.405  1.2608  0.2667 -0.2332
 3429TIP3   OH231701   1.335   1.104   1.323  0.5328  0.2155  0.5488
 3429TIP3    H131702   1.342   1.191   1.284 -1.8278 -0.2009 -1.0069
 3429TIP3    H231703   1.253   1.069   1.289  1.6519 -2.8511  0.7120
 3430TIP3   OH231704   6.263   1.013  15.780  0.1464  1.0051 -0.8241
 3430TIP3    H131705   6.212   0.969  15.712  0.4537 -0.5471 -0.1037
 3430TIP3    H231706   6.223   0.985  15.862  0.9438  1.3441 -0.3046
 3431TIP3   OH231707   4.152   3.123  15.964  0.5219 -0.8178  0.2895
 3431TIP3    H131708   4.181   3.212  15.982  1.7378 -0.2964 -3.4359
 3431TIP3    H231709   4.225   3.068  15.991  1.4353 -0.2736 -0.9538
 3432TIP3   OH231710   5.713   0.846  13.545  0.0813  0.1637 -0.0823
 3432TIP3    H131711   5.692   0.768  13.596 -0.4845  0.3069 -0.0948
 3432TIP3    H231712   5.780   0.891  13.597 -0.3429  0.2039  0.4369
 3433TIP3   OH231713   1.720   0.964   0.451 -0.5463  0.6208 -0.2782
 3433TIP3    H131714   1.792   1.026   0.463  0.5661 -0.6987  0.2075
 3433TIP3    H231715   1.716   0.951   0.356 -0.4605  1.0544 -0.3463
 3434TIP3   OH231716   3.023   6.545   2.963 -0.3746  0.3407  0.0770
 3434TIP3    H131717   3.051   6.572   2.876 -0.3084  2.0978  0.5937
 3434TIP3    H231718   2.942   6.496   2.949  0.6945 -1.1943 -1.1022
 3435TIP3   OH231719   5.705   2.153  13.731  0.9342 -0.5545  0.4165
 3435TIP3    H131720   5.714   2.173  13.638  0.5482 -0.8963  0.3017
 3435TIP3    H231721   5.615   2.179  13.752  0.9388 -0.7111  0.6340
 3436TIP3   OH231722   1.539   3.409   2.869 -0.5047  0.1883 -0.5379
 3436TIP3    H131723   1.536   3.317   2.844  0.3368 -0.0680  0.2388
 3436TIP3    H231724   1.544   3.456   2.786  1.7479 -0.6028 -0.9360
 3437TIP3   OH231725   2.240   1.301  15.239 -0.7689  0.1930  0.1245
 3437TIP3    H131726   2.255   1.358  15.163 -0.7808 -0.1689 -0.1540
 3437TIP3    H231727   2.220   1.361  15.311 -0.0163  0.5783  0.0220
 3438TIP3   OH231728   2.836   1.246  12.956  0.3079 -0.4055 -0.4141
 3438TIP3    H131729   2.928   1.270  12.944  0.1732  0.4817  0.2684
 3438TIP3    H231730   2.803   1.234  12.867  0.9591 -0.2574 -0.6848
 3439TIP3   OH231731   1.249   6.266  16.726 -1.1733 -0.0601 -0.3895
 3439TIP3    H131732   1.262   6.279  16.632  0.6400  0.1751 -0.1532
 3439TIP3    H231733   1.256   6.354  16.764 -0.8751 -0.2668  0.0511
 3440TIP3   OH231734   0.737   5.020   2.715 -0.0486  0.0442 -0.3003
 3440TIP3    H131735   0.695   4.971   2.644  0.0084 -0.4868  0.0304
 3440TIP3    H231736   0.664   5.059   2.763 -0.1926 -1.0185  0.3773
 3441TIP3   OH231737   5.489   3.411   4.233  0.1275 -0.4650  0.0945
 3441TIP3    H131738   5.541   3.353   4.289  1.1477 -1.7015 -1.9746
 3441TIP3    H231739   5.536   3.411   4.149 -1.8372  0.4695 -1.0817
 3442TIP3   OH231740   5.697   1.352  12.554  0.0445 -0.3102  0.1838
 3442TIP3    H131741   5.606   1.330  12.572  0.4118 -1.0666  1.2377
 3442TIP3    H231742   5.698   1.447  12.546 -1.0301 -0.3869 -1.0675
 3443TIP3   OH231743   1.247   6.607   1.630 -0.2355  0.4166 -0.2894
 3443TIP3    H131744   1.185   6.679   1.639 -0.5250  0.0589  0.6628
 3443TIP3    H231745   1.267   6.604   1.536  0.7034  2.4854 -0.2117
 3444TIP3   OH231746   0.443   4.729   1.596 -0.5399  0.4180 -0.6154
 3444TIP3    H131747   0.524   4.689   1.565 -0.0004 -0.0336  1.2442
 3444TIP3    H231748   0.417   4.788   1.526  2.3076  1.8378 -0.6192
 3445TIP3   OH231749   5.882   4.420  11.553 -0.4282  0.0934  0.3941
 3445TIP3    H131750   5.928   4.342  11.524 -1.6599 -0.2159 -0.8395
 3445TIP3    H231751   5.895   4.422  11.648  0.5182 -0.9946  0.3095
 3446TIP3   OH231752   3.635   6.075   4.349 -0.4090  1.1845  0.3651
 3446TIP3    H131753   3.668   6.053   4.437 -0.5157  0.8970  0.3347
 3446TIP3    H231754   3.674   6.160   4.330 -0.3884  1.2523  0.6944
 3447TIP3   OH231755   3.786   5.481  16.980 -0.2920 -0.2718  0.2335
 3447TIP3    H131756   3.716   5.468  16.916  0.3335  1.5851 -0.8831
 3447TIP3    H231757   3.811   5.572  16.970  2.9317 -1.0672 -0.1010
 3448TIP3   OH231758   3.955   2.541   5.516  0.2768  0.1331  0.4879
 3448TIP3    H131759   3.996   2.530   5.602  1.0294 -0.3857  0.0808
 3448TIP3    H231760   3.966   2.634   5.496 -1.4429  0.6437  1.6836
 3449TIP3   OH231761   1.690   0.174  15.605 -0.0241  0.3327  0.1654
 3449TIP3    H131762   1.763   0.123  15.640 -0.0991  0.6333  0.7754
 3449TIP3    H231763   1.625   0.108  15.581  0.2251  0.0941  0.1382
 3450TIP3   OH231764   3.195   6.447   0.480  0.1372 -0.2328 -0.0195
 3450TIP3    H131765   3.246   6.414   0.406  0.3046  0.6336 -0.3064
 3450TIP3    H231766   3.200   6.377   0.546 -0.2108 -1.1148 -0.9042
 3451TIP3   OH231767   1.981   6.714   2.158 -0.2826 -0.3007  0.4134
 3451TIP3    H131768   2.069   6.676   2.155  0.1445  0.5987  1.2353
 3451TIP3    H231769   1.977   6.770   2.080  0.9779  1.9440  1.8460
 3452TIP3   OH231770   1.994   4.757   1.463 -0.0925 -0.9943 -0.5211
 3452TIP3    H131771   1.970   4.671   1.427  0.4176 -1.4735  0.2589
 3452TIP3    H231772   1.910   4.797   1.486 -0.2936 -1.7019  0.0331
 3453TIP3   OH231773   2.306   1.966  12.036  0.2041  0.1960  0.9601
 3453TIP3    H131774   2.274   1.876  12.045  1.7278 -0.6384 -1.1283
 3453TIP3    H231775   2.254   2.016  12.099  0.0537 -2.2980  2.9978
 3454TIP3   OH231776   2.252   5.704   6.503 -0.1187  0.8660 -0.5324
 3454TIP3    H131777   2.185   5.732   6.441 -0.1438 -0.4404 -1.1289
 3454TIP3    H231778   2.300   5.784   6.524 -0.9895  1.5763 -1.1576
 3455TIP3   OH231779   3.059   1.999  15.784  0.4526 -0.9453  0.1268
 3455TIP3    H131780   2.964   1.993  15.786  0.2942  0.4310 -1.3437
 3455TIP3    H231781   3.081   2.058  15.855  0.0985 -0.3275 -0.2705
 3456TIP3   OH231782   0.512   6.474   5.112  0.0156 -0.0894  0.3568
 3456TIP3    H131783   0.506   6.464   5.207  2.6603  0.0126  0.6027
 3456TIP3    H231784   0.605   6.471   5.093 -0.4646 -0.6565 -2.3344
 3457TIP3   OH231785   3.828   4.537  13.553 -0.2707  0.6515  0.0980
 3457TIP3    H131786   3.775   4.616  13.567  0.1927  1.2655 -1.3877
 3457TIP3    H231787   3.780   4.488  13.486  0.7408  0.9513 -0.8741
 3458TIP3   OH231788   4.843   3.705  13.399  0.0062 -0.1769 -0.0578
 3458TIP3    H131789   4.756   3.732  13.428 -0.7069 -1.7093 -0.6776
 3458TIP3    H231790   4.898   3.712  13.478 -0.8031  0.2298  0.4789
 3459TIP3   OH231791   2.106   1.231   3.425  0.0692  0.3356 -0.2574
 3459TIP3    H131792   2.077   1.141   3.439  0.4175 -0.0383 -1.7650
 3459TIP3    H231793   2.201   1.228   3.437  0.1942  0.2967 -1.1525
 3460TIP3   OH231794   4.274   2.107  16.386  0.5138  0.1715 -0.2749
 3460TIP3    H131795   4.231   2.177  16.335 -0.0421  0.0085 -0.0367
 3460TIP3    H231796   4.315   2.153  16.459 -1.2842  0.1033  0.8436
 3461TIP3   OH231797   6.505   4.247   3.266 -0.5590 -0.1786  0.1286
 3461TIP3    H131798   6.576   4.276   3.324 -0.8010  0.9676 -0.1157
 3461TIP3    H231799   6.425   4.264   3.316 -0.7307  0.0753 -0.2287
 3462TIP3   OH231800   0.620   3.621   2.666  0.1403  0.1393 -0.1315
 3462TIP3    H131801   0.615   3.529   2.639 -2.0145  0.0253  0.4423
 3462TIP3    H231802   0.529   3.650   2.667  0.1141  0.6932  4.8957
 3463TIP3   OH231803   1.579   6.168  12.262 -0.2873 -0.3679 -0.6331
 3463TIP3    H131804   1.587   6.198  12.171 -0.7800 -1.0564 -0.9076
 3463TIP3    H231805   1.497   6.207  12.293  0.7950  1.4493  0.1547
 3464TIP3   OH231806   2.563   1.722  15.418 -0.8459 -0.3789 -0.3580
 3464TIP3    H131807   2.626   1.676  15.474  1.1183  1.7173 -0.6871
 3464TIP3    H231808   2.493   1.659  15.404  0.5422 -2.3897  1.1232
 3465TIP3   OH231809   2.984   5.466  12.912 -0.0887  0.4282  0.0168
 3465TIP3    H131810   2.973   5.528  12.984  0.5351  0.2671  0.2623
 3465TIP3    H231811   3.060   5.499  12.863 -0.6617  0.6763 -0.7194
 3466TIP3   OH231812   6.745   1.323  13.505 -0.1682 -0.1820 -0.1308
 3466TIP3    H131813   6.832   1.317  13.465 -0.5509 -1.2516 -0.8205
 3466TIP3    H231814   6.750   1.268  13.583 -0.4252 -0.7650 -0.5276
 3467TIP3   OH231815   5.951   0.688  16.873 -0.4938 -0.2952  0.1156
 3467TIP3    H131816   5.964   0.595  16.889 -0.9829 -0.7112 -1.6969
 3467TIP3    H231817   5.857   0.698  16.863 -0.2936 -0.0734 -2.0382
 3468TIP3   OH231818   1.911   6.104   2.381 -0.0466 -0.6293  0.3486
 3468TIP3    H131819   1.982   6.050   2.417  0.0134 -0.5393  0.3668
 3468TIP3    H231820   1.920   6.095   2.286  0.9514  0.5920  0.2950
 3469TIP3   OH231821   5.260   1.163   2.510 -0.1808  0.2846 -0.0522
 3469TIP3    H131822   5.191   1.193   2.570  0.6573  1.2492  0.4475
 3469TIP3    H231823   5.317   1.239   2.499  1.2838 -0.7346  0.2026
 3470TIP3   OH231824   5.477   0.384  13.576 -0.2528 -0.3187  0.0574
 3470TIP3    H131825   5.405   0.322  13.588 -0.3053  0.0469  1.9624
 3470TIP3    H231826   5.446   0.443  13.508 -1.5423 -0.5007  0.4502
 3471TIP3   OH231827   6.553   5.866   5.792  0.0523  0.6072 -0.4096
 3471TIP3    H131828   6.633   5.878   5.741 -0.0438 -0.8518 -0.9537
 3471TIP3    H231829   6.561   5.929   5.863  1.2372  1.1522 -0.9860
 3472TIP3   OH231830   2.280   3.711  12.384 -0.7031 -0.2793  0.2784
 3472TIP3    H131831   2.350   3.770  12.412 -2.8687  0.8913  3.9087
 3472TIP3    H231832   2.231   3.760  12.318  0.1165  0.1320 -0.0295
 3473TIP3   OH231833   2.883   5.574   2.206 -0.1754 -0.1842 -0.5337
 3473TIP3    H131834   2.919   5.538   2.125 -0.3029 -2.0302  0.1925
 3473TIP3    H231835   2.893   5.504   2.271 -1.6277  0.6195  0.6329
 3474TIP3   OH231836   0.190   0.358   5.318  0.1765 -0.0661  0.3861
 3474TIP3    H131837   0.153   0.403   5.394  0.7138  0.0953  0.5530
 3474TIP3    H231838   0.154   0.405   5.242 -1.2600 -0.9171  0.4975
 3475TIP3   OH231839   4.821   0.985   4.489  0.0263  0.4338  0.4703
 3475TIP3    H131840   4.892   0.954   4.432  0.4229  1.8035  0.1781
 3475TIP3    H231841   4.864   1.047   4.549 -0.6965  0.3007  1.1372
 3476TIP3   OH231842   3.657   3.726   4.679 -0.1998  0.2632 -0.4446
 3476TIP3    H131843   3.582   3.705   4.624  0.3478 -0.0415 -1.0860
 3476TIP3    H231844   3.621   3.781   4.749 -0.7736  1.3582 -1.5568
 3477TIP3   OH231845   4.041   5.777  15.194  0.0534 -0.2161  0.3208
 3477TIP3    H131846   4.038   5.700  15.250  1.4983  0.2169  1.0318
 3477TIP3    H231847   3.994   5.844  15.243  0.3580 -0.1501  0.5276
 3478TIP3   OH231848   5.052   5.017  11.592  0.3373 -0.3546  0.0882
 3478TIP3    H131849   5.126   5.037  11.534 -0.3692  0.5258 -0.5402
 3478TIP3    H231850   5.086   4.949  11.650  1.6489  0.0309 -0.1703
 3479TIP3   OH231851   2.612   4.526   4.889  0.1210  0.4798 -0.2703
 3479TIP3    H131852   2.651   4.440   4.901 -0.7708 -0.0533 -1.0434
 3479TIP3    H231853   2.518   4.510   4.886  0.0015  1.0701 -3.0677
 3480TIP3   OH231854   0.898   4.767  14.394  0.2047 -0.5580  0.3103
 3480TIP3    H131855   0.848   4.749  14.475  1.2875 -1.0883  0.8816
 3480TIP3    H231856   0.858   4.710  14.329 -1.3987  0.6649  0.1608
 3481TIP3   OH231857   3.839   3.297   0.516  0.4575  0.1923  0.2904
 3481TIP3    H131858   3.758   3.246   0.505 -1.0856  2.3643  0.8686
 3481TIP3    H231859   3.904   3.233   0.545 -0.7195 -1.8400 -1.3216
 3482TIP3   OH231860   0.198   3.523   5.718  0.6376  0.6479 -0.5048
 3482TIP3    H131861   0.251   3.448   5.744 -0.5339 -0.5658 -1.4441
 3482TIP3    H231862   0.123   3.521   5.778 -0.3137 -0.0691 -1.6691
 3483TIP3   OH231863   0.452   0.437   5.176 -0.2365 -0.2021  0.2085
 3483TIP3    H131864   0.490   0.354   5.147 -2.1210 -0.4029 -1.9199
 3483TIP3    H231865   0.380   0.412   5.233  0.3188  0.0736  1.0603
 3484TIP3   OH231866   0.538   4.406  16.206  0.2174 -0.2814  0.1389
 3484TIP3    H131867   0.527   4.322  16.250 -0.0834 -0.9241 -1.1158
 3484TIP3    H231868   0.633   4.417  16.200  0.3102  0.6187  2.3595
 3485TIP3   OH231869   2.931   6.706   2.268 -0.0285  0.2052 -0.1599
 3485TIP3    H131870   2.902   6.699   2.176  0.3528  0.5369 -0.3078
 3485TIP3    H231871   2.956   6.797   2.278 -0.2600  0.2162  0.3388
 3486TIP3   OH231872   6.739   2.694  13.986 -0.0555  0.2365 -0.2514
 3486TIP3    H131873   6.783   2.638  14.051  0.1215 -0.0477 -0.6084
 3486TIP3    H231874   6.753   2.648  13.903  1.6599  1.7124 -0.8387
 3487TIP3   OH231875   3.356   3.469  14.728  0.5356 -0.4232 -0.0172
 3487TIP3    H131876   3.363   3.546  14.784  0.6665  0.2946 -1.0102
 3487TIP3    H231877   3.422   3.409  14.763  1.5919  0.5652 -0.2487
 3488TIP3   OH231878   2.769   6.117   3.106  0.4133 -0.0386  0.1383
 3488TIP3    H131879   2.723   6.202   3.103 -0.9488 -0.7429  0.0818
 3488TIP3    H231880   2.803   6.112   3.195  0.7180  0.6650  0.0721
 3489TIP3   OH231881   0.514   5.379   0.526 -0.0068  0.0549  0.1552
 3489TIP3    H131882   0.440   5.335   0.486  0.7464 -0.0321 -1.1888
 3489TIP3    H231883   0.583   5.376   0.460  0.9673  0.7682  1.0991
 3490TIP3   OH231884   4.180   2.507  14.306  0.1523 -0.0772  0.5466
 3490TIP3    H131885   4.124   2.580  14.332  1.0863  0.8664 -0.0420
 3490TIP3    H231886   4.183   2.512  14.211 -0.4035 -1.3778  0.4333
 3491TIP3   OH231887   4.192   6.489  11.724 -0.0120  0.1765 -0.9988
 3491TIP3    H131888   4.221   6.568  11.678  0.2671  0.6880  0.0214
 3491TIP3    H231889   4.273   6.444  11.749  0.0231  1.6112  1.8668
 3492TIP3   OH231890   5.854   6.533  10.532  0.3136  0.3047 -0.2796
 3492TIP3    H131891   5.801   6.456  10.552  2.2053 -0.7927  0.7874
 3492TIP3    H231892   5.913   6.504  10.462  1.1066  0.7177  0.2007
 3493TIP3   OH231893   1.670   4.402   0.119 -0.2186 -0.1451 -0.0857
 3493TIP3    H131894   1.679   4.352   0.038 -0.0852 -0.5359  0.1680
 3493TIP3    H231895   1.759   4.404   0.156  0.1329  1.6559 -0.8863
 3494TIP3   OH231896   3.178   6.021   6.053 -0.3086 -0.5973  0.8630
 3494TIP3    H131897   3.208   6.068   6.131  0.8953  0.9721 -0.5039
 3494TIP3    H231898   3.256   6.011   5.999 -1.2017 -1.3005 -0.3419
 3495TIP3   OH231899   4.367   1.071   1.017 -0.7888 -0.3513 -0.1348
 3495TIP3    H131900   4.333   0.987   0.989 -0.5270  0.5080 -3.5050
 3495TIP3    H231901   4.417   1.103   0.941  1.3521  1.6763  1.9470
 3496TIP3   OH231902   1.505   6.741   1.828 -0.3317  0.0495 -0.3936
 3496TIP3    H131903   1.504   6.656   1.784  1.3774 -1.0042  1.4082
 3496TIP3    H231904   1.473   6.723   1.916 -2.0130  1.7471 -0.5854
 3497TIP3   OH231905   3.062   1.706   3.054 -0.0915 -0.2202  0.4933
 3497TIP3    H131906   3.142   1.727   3.008  1.0206  0.0621  2.4330
 3497TIP3    H231907   3.015   1.645   2.996  1.6952 -0.6909 -0.5107
 3498TIP3   OH231908   6.046   1.793  12.177  0.4757 -0.0411  0.2179
 3498TIP3    H131909   6.029   1.710  12.223  1.9365  0.3249  1.5277
 3498TIP3    H231910   6.085   1.849  12.244 -0.3643  1.6832 -0.6783
 3499TIP3   OH231911   0.887   6.044   0.812  0.2733 -0.2038 -0.3093
 3499TIP3    H131912   0.849   6.132   0.814  0.4153 -0.1459 -0.0656
 3499TIP3    H231913   0.818   5.988   0.777 -0.8865 -0.5178  2.2713
 3500TIP3   OH231914   6.401   1.038   5.651 -0.0706  0.0708  0.1849
 3500TIP3    H131915   6.329   0.978   5.637 -1.2236  0.9867  1.7882
 3500TIP3    H231916   6.374   1.119   5.608  1.1535 -0.2857 -1.3516
 3501TIP3   OH231917   1.578   3.752   1.414  0.1513  0.1558  0.1413
 3501TIP3    H131918   1.642   3.787   1.475  0.8997  0.3684 -0.7304
 3501TIP3    H231919   1.630   3.729   1.336 -0.7217 -0.3771 -0.3000
 3502TIP3   OH231920   1.245   2.102   3.852  0.9980  0.0030  0.1925
 3502TIP3    H131921   1.295   2.037   3.802 -1.3844 -0.0274 -2.4108
 3502TIP3    H231922   1.171   2.053   3.886  0.4631  0.8681  0.2951
 3503TIP3   OH231923   0.930   3.355  11.401 -0.0961 -0.1883  0.1380
 3503TIP3    H131924   0.990   3.281  11.388 -0.7132 -0.8786  1.0830
 3503TIP3    H231925   0.898   3.376  11.313  2.2274  0.8286 -0.5419
 3504TIP3   OH231926   0.264   5.190   2.436  0.3545  0.0315  0.2657
 3504TIP3    H131927   0.294   5.163   2.523  0.6207 -1.4840 -0.2679
 3504TIP3    H231928   0.190   5.249   2.454 -1.0582 -1.9825  1.5262
 3505TIP3   OH231929   3.201   0.629   5.196 -0.4420  0.8159  0.6745
 3505TIP3    H131930   3.273   0.692   5.188  2.2719 -2.2342 -1.1703
 3505TIP3    H231931   3.214   0.589   5.282  0.1210  0.2353  0.3241
 3506TIP3   OH231932   1.322   1.343   5.686 -0.8307 -0.3017 -0.0066
 3506TIP3    H131933   1.417   1.331   5.688 -0.8694 -0.9067 -0.9710
 3506TIP3    H231934   1.310   1.437   5.680 -0.2886 -0.2160  0.2000
 3507TIP3   OH231935   0.848   5.716  12.005  0.0634  0.6757  0.2368
 3507TIP3    H131936   0.875   5.808  12.013  1.0680  0.6697 -2.2352
 3507TIP3    H231937   0.916   5.676  11.951 -1.2935 -1.1101 -0.2142
 3508TIP3   OH231938   1.332   1.148  10.269  0.2291 -0.2801 -0.6466
 3508TIP3    H131939   1.242   1.152  10.235  0.5387  0.2410 -1.4395
 3508TIP3    H231940   1.347   1.235  10.306 -0.4684 -1.1599  1.8492
 3509TIP3   OH231941   6.140   2.854  16.597 -0.0475  0.1925  0.1373
 3509TIP3    H131942   6.088   2.774  16.603 -0.3299  0.4601  1.4031
 3509TIP3    H231943   6.134   2.894  16.683 -0.6678  2.0617 -0.7184
 3510TIP3   OH231944   0.911   2.912  15.728 -0.4273 -0.1649 -0.0746
 3510TIP3    H131945   0.909   2.916  15.823 -1.0459 -1.3036 -0.0263
 3510TIP3    H231946   1.004   2.907  15.706 -0.3183 -1.0640  0.5382
 3511TIP3   OH231947   0.306   2.435  11.492  0.1855 -0.4434  0.3214
 3511TIP3    H131948   0.358   2.440  11.572  0.4243  1.2720  0.0821
 3511TIP3    H231949   0.222   2.475  11.515 -0.7032 -2.2295  0.3968
 3512TIP3   OH231950   3.426   6.626  15.214  0.6341  0.6104 -0.0636
 3512TIP3    H131951   3.337   6.622  15.250  1.1820  0.3968  1.3280
 3512TIP3    H231952   3.458   6.536  15.222  0.3443  0.2373 -2.3325
 3513TIP3   OH231953   5.869   2.426  16.468 -0.0355  0.6088  0.7969
 3513TIP3    H131954   5.932   2.370  16.513 -1.3893 -2.0279 -0.3208
 3513TIP3    H231955   5.908   2.513  16.469  2.0764 -0.2619  2.9378
 3514TIP3   OH231956   6.169   0.453   2.867  0.8512 -0.2244  0.0610
 3514TIP3    H131957   6.192   0.403   2.945 -1.0909  0.1189  0.9001
 3514TIP3    H231958   6.086   0.417   2.837  0.2821  1.3060 -0.3419
 3515TIP3   OH231959   2.285   0.688   0.707  0.0103  0.1576 -0.0571
 3515TIP3    H131960   2.323   0.738   0.634 -0.0942 -0.1202 -0.3009
 3515TIP3    H231961   2.347   0.701   0.779  0.4265 -0.0592 -0.3719
 3516TIP3   OH231962   1.716   6.568  11.590  0.4679 -0.5582 -0.8203
 3516TIP3    H131963   1.645   6.622  11.556 -0.2839 -0.7290  0.4226
 3516TIP3    H231964   1.789   6.583  11.530  0.3262  1.8963 -0.4652
 3517TIP3   OH231965   2.716   4.295   2.890 -0.5048  0.0480 -0.0848
 3517TIP3    H131966   2.743   4.371   2.838 -0.2221 -0.4195 -0.6211
 3517TIP3    H231967   2.620   4.293   2.882 -0.4086 -0.4606 -1.2064
 3518TIP3   OH231968   3.250   5.632   1.735  0.4088 -0.2231 -0.2725
 3518TIP3    H131969   3.256   5.641   1.640  0.4619 -1.3542 -0.3891
 3518TIP3    H231970   3.307   5.558   1.756  0.4266  0.0367  0.6438
 3519TIP3   OH231971   4.598   1.011   2.987  0.2391 -0.5855  0.8351
 3519TIP3    H131972   4.516   1.059   2.985  0.1234 -0.7828  0.8317
 3519TIP3    H231973   4.614   0.995   3.080  0.9427  0.5922  0.9377
 3520TIP3   OH231974   2.694   0.450   6.449 -0.0145 -0.2825  0.0043
 3520TIP3    H131975   2.635   0.501   6.504 -1.4608 -1.3681 -0.4731
 3520TIP3    H231976   2.652   0.364   6.442  1.9112 -1.2981  0.0972
 3521TIP3   OH231977   4.765   4.142   1.034 -0.4175  0.4432 -0.0892
 3521TIP3    H131978   4.738   4.190   0.956  1.3294  0.4902 -0.7047
 3521TIP3    H231979   4.821   4.203   1.082 -0.7571  0.1024  0.7639
 3522TIP3   OH231980   3.718   1.169   0.148 -0.6267 -0.3850  0.2424
 3522TIP3    H131981   3.759   1.211   0.072  0.4410  0.7425  1.3861
 3522TIP3    H231982   3.785   1.173   0.216 -2.0222 -0.0997  1.6548
 3523TIP3   OH231983   1.545   0.557  12.166  0.5717 -0.6326  0.3032
 3523TIP3    H131984   1.469   0.587  12.216 -0.1850 -0.4796 -0.9092
 3523TIP3    H231985   1.509   0.524  12.084  1.8746  0.3701 -0.7279
 3524TIP3   OH231986   1.314   1.593  12.130 -0.4112  0.0328 -0.6196
 3524TIP3    H131987   1.353   1.512  12.162  0.6969  0.7465 -0.0920
 3524TIP3    H231988   1.229   1.598  12.173  0.7739  0.6552  1.8703
 3525TIP3   OH231989   1.913   5.118  14.938  0.3370 -0.1702  0.1333
 3525TIP3    H131990   1.941   5.054  14.872  1.9800 -1.1981  1.7335
 3525TIP3    H231991   1.994   5.160  14.966 -0.0570 -0.9189  2.6338
 3526TIP3   OH231992   5.684   4.391  15.280  0.0344 -0.4697  0.2992
 3526TIP3    H131993   5.629   4.421  15.352  0.9912 -0.8374  1.1910
 3526TIP3    H231994   5.670   4.296  15.277  2.2006 -0.8964  1.9209
 3527TIP3   OH231995   6.238   2.666  11.640  0.1719  0.4072  0.2859
 3527TIP3    H131996   6.237   2.577  11.606 -0.9999 -0.2100  1.8301
 3527TIP3    H231997   6.224   2.721  11.563  2.8476 -0.5587 -1.0211
 3528TIP3   OH231998   1.382   3.113  13.023  0.4869  0.2514  0.0572
 3528TIP3    H131999   1.397   3.044  13.088 -1.3734 -0.4897 -0.2300
 3528TIP3    H232000   1.287   3.119  13.017  0.6225  1.4569 -1.4135
 3529TIP3   OH232001   5.336   3.574   3.640  0.0925 -0.0050 -0.3054
 3529TIP3    H132002   5.259   3.521   3.623  0.8196 -0.4398 -2.5220
 3529TIP3    H232003   5.343   3.631   3.563  1.1270  1.0976  0.5683
 3530TIP3   OH232004   4.793   4.682  13.879 -0.4672 -0.2306  0.2722
 3530TIP3    H132005   4.723   4.677  13.944 -1.9571 -1.7217 -1.3291
 3530TIP3    H232006   4.791   4.773  13.849  1.0833  0.8372  3.0736
 3531TIP3   OH232007   6.271   5.336  13.537 -0.2573  0.1646  0.0589
 3531TIP3    H132008   6.314   5.252  13.552  0.4512  0.6159  0.6317
 3531TIP3    H232009   6.343   5.400  13.533 -0.7793  0.7382 -0.4305
 3532TIP3   OH232010   5.433   4.705   2.498 -0.2553  0.0297 -0.2096
 3532TIP3    H132011   5.386   4.748   2.568 -2.2654 -1.5915 -0.4767
 3532TIP3    H232012   5.524   4.700   2.529  0.1175  4.1640 -0.1309
 3533TIP3   OH232013   4.728   1.563   3.023  0.2528  0.0966 -0.0955
 3533TIP3    H132014   4.780   1.629   3.069 -0.0260 -0.5965  1.2525
 3533TIP3    H232015   4.784   1.485   3.021 -0.6901 -0.6741  1.4123
 3534TIP3   OH232016   3.566   0.989  12.862  0.0227  0.5243 -0.5726
 3534TIP3    H132017   3.477   0.990  12.828 -0.1820  1.6122 -0.0547
 3534TIP3    H232018   3.619   1.026  12.792  0.1270 -0.4123 -1.0017
 3535TIP3   OH232019   4.504   5.795   4.746 -0.1850 -0.1487  0.3254
 3535TIP3    H132020   4.458   5.711   4.746 -0.2813 -0.1202  2.0707
 3535TIP3    H232021   4.500   5.824   4.654 -0.2602 -1.9602 -0.2825
 3536TIP3   OH232022   0.623   6.464   1.988 -0.1236 -0.2914 -0.9684
 3536TIP3    H132023   0.672   6.474   2.069 -0.0782  0.2409 -1.0591
 3536TIP3    H232024   0.676   6.405   1.935  1.9553  2.4572 -2.2306
 3537TIP3   OH232025   3.044   5.295  12.084 -0.1289 -0.4107 -0.1990
 3537TIP3    H132026   3.103   5.223  12.107 -1.3902 -1.6056 -0.5528
 3537TIP3    H232027   3.101   5.363  12.049  1.0588 -1.4253 -0.3075
 3538TIP3   OH232028   0.319   6.439  14.015  0.1203  0.3138 -0.0368
 3538TIP3    H132029   0.396   6.459  13.961 -1.0200 -0.2382 -1.9545
 3538TIP3    H232030   0.284   6.524  14.040  0.3104  0.6090 -0.7359
 3539TIP3   OH232031   2.836   6.572   4.524  0.0289 -0.5610 -0.2824
 3539TIP3    H132032   2.779   6.618   4.462  0.5984  0.4822 -0.0718
 3539TIP3    H232033   2.777   6.524   4.581 -0.5018 -1.6473 -1.7062
 3540TIP3   OH232034   6.482   6.040  14.818  0.1139 -0.0928  0.0672
 3540TIP3    H132035   6.469   5.945  14.810 -0.5505  0.1111 -1.6932
 3540TIP3    H232036   6.419   6.078  14.757  1.2668  1.4517 -0.2078
 3541TIP3   OH232037   4.149   6.446   4.065  0.0065  0.2141  0.2212
 3541TIP3    H132038   4.101   6.401   3.995 -0.1679 -0.8374  0.9892
 3541TIP3    H232039   4.102   6.529   4.077 -0.1154  0.2877 -0.7242
 3542TIP3   OH232040   5.220   0.303  14.656 -0.2807 -0.1887 -0.4643
 3542TIP3    H132041   5.203   0.330  14.747 -0.2711  0.5971 -0.6937
 3542TIP3    H232042   5.137   0.266  14.626 -1.4958  2.9019 -1.3182
 3543TIP3   OH232043   2.070   6.017   2.584 -0.1723 -0.6525 -0.1646
 3543TIP3    H132044   2.036   5.953   2.646  3.1973 -1.5718  0.9578
 3543TIP3    H232045   2.085   6.096   2.636 -0.5417 -0.2789 -0.6188
 3544TIP3   OH232046   5.569   1.030   2.386 -0.7196 -0.0197 -0.3348
 3544TIP3    H132047   5.605   1.057   2.470 -1.4717 -0.6333  0.2057
 3544TIP3    H232048   5.535   1.110   2.346 -1.5483  0.0881  0.5518
 3545TIP3   OH232049   4.370   6.197  13.489 -0.1199 -0.5219  0.3115
 3545TIP3    H132050   4.339   6.228  13.403  0.9242 -1.8661 -0.5979
 3545TIP3    H232051   4.394   6.105  13.474  0.9519 -0.5265  1.8243
 3546TIP3   OH232052   5.367   2.666  15.128  0.3513  0.8793 -0.1519
 3546TIP3    H132053   5.447   2.692  15.082  0.4336 -1.3861 -1.4631
 3546TIP3    H232054   5.309   2.742  15.121  1.7710  1.9536 -0.6625
 3547TIP3   OH232055   5.611   5.748   4.171 -0.3564 -0.2010 -0.0778
 3547TIP3    H132056   5.642   5.736   4.081 -2.2745 -0.0736 -0.8175
 3547TIP3    H232057   5.516   5.738   4.164 -0.5681  0.1165  1.9032
 3548TIP3   OH232058   0.752   5.017   5.184  0.0275  0.1278  0.1765
 3548TIP3    H132059   0.728   5.068   5.261  0.5908  2.1903 -0.9571
 3548TIP3    H232060   0.724   4.927   5.205 -0.8438  0.8388  2.2921
 3549TIP3   OH232061   4.233   2.610  13.545  0.2239 -0.7924  0.3401
 3549TIP3    H132062   4.245   2.700  13.515 -1.9057 -0.4229  0.4567
 3549TIP3    H232063   4.285   2.557  13.485  2.0430  0.5444  0.6763
 3550TIP3   OH232064   1.155   6.662  13.313 -0.1738  0.3147 -0.2036
 3550TIP3    H132065   1.131   6.573  13.340 -0.7512  0.1366 -1.2463
 3550TIP3    H232066   1.237   6.652  13.265 -0.0568  0.3915 -0.0197
 3551TIP3   OH232067   1.883   1.875  13.408 -0.1271  0.1874  0.1706
 3551TIP3    H132068   1.977   1.881  13.390 -0.2257  0.4060 -0.2797
 3551TIP3    H232069   1.856   1.964  13.427 -0.2166  0.1037  0.4319
 3552TIP3   OH232070   4.969   3.631  16.057  0.3613  0.2692  0.6530
 3552TIP3    H132071   4.906   3.690  16.099  0.0280 -0.5083  1.2716
 3552TIP3    H232072   4.930   3.544  16.065  0.3804  0.0658 -1.1247
 3553TIP3   OH232073   2.352   0.911   2.302  0.1155 -0.2826  0.3382
 3553TIP3    H132074   2.317   1.000   2.290 -0.1848 -0.3727  0.5412
 3553TIP3    H232075   2.375   0.883   2.213  3.7701  1.4138  0.5710
 3554TIP3   OH232076   2.720   3.041  13.890 -0.2418 -0.4078  0.3807
 3554TIP3    H132077   2.711   3.081  13.804  1.1610  0.5259  0.6365
 3554TIP3    H232078   2.636   2.998  13.905 -0.9326  0.4087 -0.9381
 3555TIP3   OH232079   2.783   2.710  15.525 -0.8421 -0.5524 -0.3149
 3555TIP3    H132080   2.740   2.773  15.583 -2.2522 -1.0096 -0.8240
 3555TIP3    H232081   2.852   2.671  15.579 -2.1411 -0.9925  1.0929
 3556TIP3   OH232082   0.017   6.767  12.091  0.7016 -0.4871 -0.3551
 3556TIP3    H132083   0.006   6.819  12.012  0.3537  0.1156  0.0741
 3556TIP3    H232084  -0.044   6.695  12.082  0.9763 -0.6589 -0.8291
 3557TIP3   OH232085   6.537   1.872   6.363  0.6273 -0.6442 -0.5272
 3557TIP3    H132086   6.522   1.904   6.274 -1.5658  0.3129  0.0976
 3557TIP3    H232087   6.560   1.951   6.413 -1.8103 -0.4191  0.4159
 3558TIP3   OH232088   0.853   5.543  10.790 -0.3947 -0.0926  0.1103
 3558TIP3    H132089   0.847   5.452  10.763  0.6951  0.0635 -0.7501
 3558TIP3    H232090   0.884   5.589  10.712  0.2310  0.8149  0.8715
 3559TIP3   OH232091   5.955   2.295   2.281  0.5555 -0.3392  0.0663
 3559TIP3    H132092   5.989   2.286   2.370  1.0640 -1.0573 -0.1963
 3559TIP3    H232093   5.928   2.387   2.275 -0.2944 -0.4846  1.2468
 3560TIP3   OH232094   2.359   2.030   3.642 -0.1337 -0.4243  0.0170
 3560TIP3    H132095   2.357   2.098   3.574 -0.5224 -0.5862 -0.1401
 3560TIP3    H232096   2.451   2.004   3.648  0.5145  1.9788  1.9774
 3561TIP3   OH232097   0.221   1.555  15.113 -0.0737 -0.4845  0.0579
 3561TIP3    H132098   0.300   1.588  15.155 -0.3155  0.8319 -0.4772
 3561TIP3    H232099   0.152   1.567  15.178 -0.2718  0.6542 -0.3508
 3562TIP3   OH232100   5.962   6.624  16.754  0.1440  0.4896  0.0425
 3562TIP3    H132101   6.035   6.659  16.703 -0.9093  1.7726 -0.6290
 3562TIP3    H232102   5.995   6.624  16.844  1.8646 -1.3827 -0.5108
 3563TIP3   OH232103   2.338   6.545   2.357  0.1862 -0.1532 -0.0161
 3563TIP3    H132104   2.372   6.622   2.404 -1.0101 -0.1324  0.8692
 3563TIP3    H232105   2.266   6.579   2.305  1.2998 -0.2431 -1.6676
 3564TIP3   OH232106   6.654   1.866  15.478 -0.5388 -0.1633  0.0875
 3564TIP3    H132107   6.667   1.938  15.417 -1.0118 -0.4913 -0.4002
 3564TIP3    H232108   6.653   1.787  15.423  0.2115 -0.5744  0.6351
 3565TIP3   OH232109   5.247   1.359  14.753 -0.0270  0.0501 -0.6480
 3565TIP3    H132110   5.301   1.435  14.777  0.5043 -0.6185  0.3379
 3565TIP3    H232111   5.210   1.382  14.668  0.9767  0.9731 -0.8567
 3566TIP3   OH232112   1.032   0.475  15.972  0.2441  0.1835 -0.1839
 3566TIP3    H132113   1.066   0.434  15.893 -0.2603  2.4975 -1.7156
 3566TIP3    H232114   1.082   0.435  16.044  2.4597 -0.2659 -1.8772
 3567TIP3   OH232115   1.518   6.793  14.992 -0.4335 -0.7932  0.4284
 3567TIP3    H132116   1.445   6.853  15.006 -0.3955 -1.1558  2.5752
 3567TIP3    H232117   1.476   6.707  14.981 -0.3862 -0.8152  0.4175
 3568TIP3   OH232118   2.122   0.170   0.891 -0.1814  0.1345  0.3640
 3568TIP3    H132119   2.145   0.261   0.873 -0.7614  0.3142  0.5239
 3568TIP3    H232120   2.044   0.154   0.838 -1.2438  0.3257  1.8141
 3569TIP3   OH232121   1.965   2.763  10.559  0.7382 -0.1187 -0.2629
 3569TIP3    H132122   1.967   2.704  10.634  1.2654 -0.8852 -0.8650
 3569TIP3    H232123   1.993   2.847  10.595 -0.9112  0.0253  0.7887
 3570TIP3   OH232124   6.118   1.016  15.365  0.2312 -0.0516 -0.4041
 3570TIP3    H132125   6.131   1.102  15.403 -1.3191  0.2499 -0.4721
 3570TIP3    H232126   6.142   1.027  15.273  0.6624  0.1395 -0.2693
 3571TIP3   OH232127   0.015   5.068  17.109 -0.7306 -0.4816  0.0862
 3571TIP3    H132128   0.035   5.098  17.197 -1.0648 -1.9652  0.7069
 3571TIP3    H232129  -0.049   4.998  17.122 -0.2591 -1.1984 -1.2711
 3572TIP3   OH232130   5.717   1.615  12.527  0.7393 -0.5864  0.2903
 3572TIP3    H132131   5.663   1.680  12.571 -1.0299 -0.0926 -2.3211
 3572TIP3    H232132   5.793   1.604  12.583 -0.3690  1.4261  2.3559
 3573TIP3   OH232133   3.774   0.117  14.988  0.4239  1.0637  0.0801
 3573TIP3    H132134   3.820   0.113  15.072 -1.4679  2.3223  1.2479
 3573TIP3    H232135   3.812   0.192  14.944  0.9098  0.8499  0.1272
 3574TIP3   OH232136   1.910   5.967   5.003 -0.3224 -0.0625 -0.2932
 3574TIP3    H132137   1.938   5.908   5.073  1.7763 -0.9532 -1.7663
 3574TIP3    H232138   1.815   5.968   5.008 -0.2715 -0.9815  1.8184
 3575TIP3   OH232139   6.024   1.504  14.345 -0.5179 -0.1008  0.4781
 3575TIP3    H132140   5.965   1.487  14.419 -0.6940  2.7374  1.1127
 3575TIP3    H232141   6.038   1.418  14.305 -1.9947 -1.4372  2.6156
 3576TIP3   OH232142   2.831   1.210   2.534 -0.0847 -0.2725 -0.1833
 3576TIP3    H132143   2.825   1.232   2.441  0.2664  0.6903  0.0048
 3576TIP3    H232144   2.744   1.230   2.569 -0.5329 -1.6075 -0.4841
 3577TIP3   OH232145   3.907   5.801   3.614 -0.1948 -0.1307  0.2693
 3577TIP3    H132146   3.825   5.846   3.594 -0.3671 -0.3680  0.4225
 3577TIP3    H232147   3.954   5.799   3.531 -1.3819 -2.0911 -0.4404
 3578TIP3   OH232148   4.723   2.684   4.564 -0.3718  0.8813 -0.9520
 3578TIP3    H132149   4.814   2.689   4.538 -0.7726  2.1006 -2.2416
 3578TIP3    H232150   4.716   2.602   4.613  1.0237 -0.1430 -2.3760
 3579TIP3   OH232151   4.888   6.700  14.410  0.5354  0.2387  0.1529
 3579TIP3    H132152   4.899   6.706  14.315 -0.2415  2.8737  0.1349
 3579TIP3    H232153   4.977   6.691  14.444  0.7441 -1.7683 -0.8252
 3580TIP3   OH232154   3.281   4.910   1.999 -0.4468  0.6686 -0.0146
 3580TIP3    H132155   3.195   4.882   1.968 -0.2397 -1.9597  1.4544
 3580TIP3    H232156   3.343   4.855   1.950  0.0884 -0.5966  1.9556
 3581TIP3   OH232157   1.606   1.539  11.568  0.6478  0.4214 -0.7865
 3581TIP3    H132158   1.543   1.609  11.585  0.0981 -0.1957 -0.2391
 3581TIP3    H232159   1.648   1.565  11.486 -1.9034 -0.2236 -2.4230
 3582TIP3   OH232160   1.346   1.332   1.734 -0.2618 -0.1335  0.1082
 3582TIP3    H132161   1.433   1.346   1.771 -0.7420  0.1502  1.1542
 3582TIP3    H232162   1.304   1.418   1.737 -1.3260 -0.6589  1.6266
 3583TIP3   OH232163   3.825   0.226   1.967 -0.1154  0.0164 -0.3451
 3583TIP3    H132164   3.889   0.159   1.991  0.8472  0.0641 -2.6229
 3583TIP3    H232165   3.877   0.298   1.930 -1.3856  0.6164 -1.0301
 3584TIP3   OH232166   0.349   5.141   5.121 -0.5110 -0.5727 -0.0602
 3584TIP3    H132167   0.300   5.062   5.099 -0.7543  0.1387 -2.3253
 3584TIP3    H232168   0.328   5.203   5.051 -0.4893  1.5935  1.7382
 3585TIP3   OH232169   4.523   4.759  14.072 -0.3847  0.0607 -0.2654
 3585TIP3    H132170   4.552   4.831  14.017 -2.2018  0.1888 -1.1398
 3585TIP3    H232171   4.488   4.801  14.151  0.3017 -0.0047  0.0856
 3586TIP3   OH232172   6.647   6.447   2.685  0.5068  0.0910 -0.2652
 3586TIP3    H132173   6.713   6.515   2.682  1.7996 -0.6931  3.6193
 3586TIP3    H232174   6.696   6.365   2.677 -0.2881 -0.4607  0.3244
 3587TIP3   OH232175   3.226   5.655  13.029 -0.3583  0.0546 -0.3996
 3587TIP3    H132176   3.284   5.732  13.025 -0.2603 -0.0557 -2.1918
 3587TIP3    H232177   3.222   5.624  12.938 -0.3684 -2.0969  0.2851
 3588TIP3   OH232178   4.859   2.934  12.308 -0.0487 -0.3697  0.0969
 3588TIP3    H132179   4.950   2.908  12.322  0.7746  1.7462 -0.9076
 3588TIP3    H232180   4.817   2.855  12.273  0.9783 -1.8306  1.9446
 3589TIP3   OH232181   4.616   1.741  16.212 -0.3474 -0.3711 -0.1140
 3589TIP3    H132182   4.608   1.680  16.285  1.5397  0.1351  0.5509
 3589TIP3    H232183   4.635   1.686  16.136 -0.9511 -0.7835  0.0282
 3590TIP3   OH232184   4.922   3.610   6.053  0.3455  0.2490 -0.1075
 3590TIP3    H132185   4.945   3.638   6.141  0.9442 -0.6910  0.0472
 3590TIP3    H232186   4.832   3.579   6.061  0.6656 -0.5837  0.3612
 3591TIP3   OH232187   6.192   4.487  14.333  0.5720  0.5675  0.0377
 3591TIP3    H132188   6.236   4.498  14.417 -0.6104  1.0778  0.6190
 3591TIP3    H232189   6.131   4.561  14.328  0.3713  0.3378 -1.0994
 3592TIP3   OH232190   1.610   4.603   2.256  0.2337 -0.6075 -0.1969
 3592TIP3    H132191   1.526   4.561   2.274 -0.1485  0.2754  0.1614
 3592TIP3    H232192   1.600   4.692   2.292  1.4138 -0.5770  0.0972
 3593TIP3   OH232193   6.098   3.452  14.526 -0.0402 -0.0498  0.3845
 3593TIP3    H132194   6.142   3.395  14.462  0.3431 -0.1038  0.6948
 3593TIP3    H232195   6.013   3.411  14.539 -1.7807  2.0369 -3.0307
 3594TIP3   OH232196   6.056   2.972  14.780  0.0933  0.2626  0.3077
 3594TIP3    H132197   6.075   2.893  14.730  0.0450  0.3508  0.1494
 3594TIP3    H232198   6.005   2.942  14.855 -0.3191  0.2047  0.0078
 3595TIP3   OH232199   2.844   2.008   0.620 -0.5802  0.1008  0.3418
 3595TIP3    H132200   2.841   1.969   0.533  1.8475  0.2660  0.1032
 3595TIP3    H232201   2.934   1.991   0.650 -1.1011  0.8087  2.4546
 3596TIP3   OH232202   5.082   0.541  11.785 -0.1844  0.0444  0.0465
 3596TIP3    H132203   5.090   0.614  11.846  0.9205 -0.5443  0.6378
 3596TIP3    H232204   5.147   0.558  11.717  0.0470 -0.3602  0.1607
 3597TIP3   OH232205   3.049   1.112   6.410 -0.6441  0.2649  0.2851
 3597TIP3    H132206   3.063   1.207   6.410  0.6297  0.1057 -0.1513
 3597TIP3    H232207   3.137   1.075   6.404 -1.2032 -0.9197 -1.5277
 3598TIP3   OH232208   4.380   6.399   0.881 -0.3801  0.2644 -0.0829
 3598TIP3    H132209   4.433   6.337   0.930  0.1533  0.7230 -0.0616
 3598TIP3    H232210   4.332   6.345   0.818 -0.2417 -0.2083  0.2115
 3599TIP3   OH232211   5.566   5.171   6.044  0.0489  0.2606  0.2411
 3599TIP3    H132212   5.605   5.169   6.131 -1.7680  3.2441  1.2800
 3599TIP3    H232213   5.619   5.234   5.995  0.2912 -0.4569 -0.4557
 3600TIP3   OH232214   2.154   1.262  11.731  0.2016  0.0500 -0.1431
 3600TIP3    H132215   2.175   1.257  11.637 -2.1672  0.3834 -0.7512
 3600TIP3    H232216   2.162   1.171  11.762 -0.4791 -0.3302 -1.0370
 3601TIP3   OH232217   5.796   6.550  12.332  0.1491 -0.3264  0.2873
 3601TIP3    H132218   5.795   6.455  12.326 -0.0554 -0.3925  1.1122
 3601TIP3    H232219   5.884   6.576  12.306 -0.2567 -0.5987 -1.4941
 3602TIP3   OH232220   5.002   4.066   4.199 -0.2202 -0.0874 -0.2855
 3602TIP3    H132221   4.932   4.123   4.230  0.3573  0.2468  0.4377
 3602TIP3    H232222   5.039   4.028   4.279  2.5867  2.2835 -0.2912
 3603TIP3   OH232223   3.350   6.302  16.859  0.1499  0.6004 -0.1835
 3603TIP3    H132224   3.381   6.347  16.937 -0.0830  1.0525 -0.3463
 3603TIP3    H232225   3.254   6.304  16.866  0.1102 -2.0879  1.0605
 3604TIP3   OH232226   1.511   2.756   1.924 -0.1890  1.3229 -0.3567
 3604TIP3    H132227   1.558   2.749   2.007 -1.2303  0.2071  0.1638
 3604TIP3    H232228   1.541   2.840   1.887 -0.0877  2.0894  1.3713
 3605TIP3   OH232229   3.078   6.612  11.213 -0.3727 -0.2964  0.5819
 3605TIP3    H132230   3.073   6.651  11.126 -2.4394  1.5345  1.4105
 3605TIP3    H232231   3.041   6.525  11.203 -0.3143 -0.2098 -0.4328
 3606TIP3   OH232232   1.358   0.441  14.857  0.2069  0.1749  0.1687
 3606TIP3    H132233   1.279   0.458  14.907  1.1485 -0.0132  1.8062
 3606TIP3    H232234   1.367   0.517  14.799 -0.1203  1.1609  1.3740
 3607TIP3   OH232235   0.698   0.646  15.967  0.1636  0.5510  0.5502
 3607TIP3    H132236   0.731   0.680  15.884  0.2385  1.7884  1.0628
 3607TIP3    H232237   0.616   0.602  15.944  0.1202  0.9890 -0.1651
 3608TIP3   OH232238   0.435   6.123  11.344  0.0236  0.2223  0.0311
 3608TIP3    H132239   0.508   6.155  11.396  0.4736 -0.2691 -0.2869
 3608TIP3    H232240   0.404   6.046  11.392  0.1360  0.0440 -0.1851
 3609TIP3   OH232241   3.415   5.114  16.395 -0.3407 -0.1422  0.0723
 3609TIP3    H132242   3.392   5.070  16.476  2.1872 -1.8346 -0.0145
 3609TIP3    H232243   3.332   5.147  16.361 -1.9696 -2.3640  1.5954
 3610TIP3   OH232244   4.215   2.920  15.755 -0.0113 -0.3471  0.0075
 3610TIP3    H132245   4.167   2.980  15.812  1.2640  0.6432  0.0701
 3610TIP3    H232246   4.257   2.858  15.815 -0.2213 -0.4873  0.0148
 3611TIP3   OH232247   3.355   4.960   2.825  0.3007 -0.0564  0.1776
 3611TIP3    H132248   3.321   5.049   2.818 -1.2049 -0.4690  1.6150
 3611TIP3    H232249   3.419   4.953   2.755 -0.7810  1.6096 -1.0437
 3612TIP3   OH232250   0.295   6.005   2.018 -0.0635  0.3828  0.4033
 3612TIP3    H132251   0.358   5.951   1.971 -1.7241 -0.5618 -0.8637
 3612TIP3    H232252   0.340   6.089   2.032  1.6231 -0.4220  0.0240
 3613TIP3   OH232253   4.110   3.637   3.499  0.0460 -0.2056  0.2634
 3613TIP3    H132254   4.105   3.646   3.403  0.7040  1.0354  0.3275
 3613TIP3    H232255   4.110   3.543   3.514  1.7631 -0.4668 -1.0708
 3614TIP3   OH232256   6.177   2.613  14.292 -0.1707  0.5505 -0.6121
 3614TIP3    H132257   6.132   2.581  14.215 -1.4376 -2.2311  1.1128
 3614TIP3    H232258   6.128   2.576  14.366  2.1052  1.4287  1.4965
 3615TIP3   OH232259   3.435   0.176   6.439 -0.2960 -0.4270 -0.4182
 3615TIP3    H132260   3.509   0.232   6.462 -0.8264 -0.2117  0.8176
 3615TIP3    H232261   3.468   0.121   6.367 -0.4072  2.9829 -3.3683
 3616TIP3   OH232262   1.771   2.609   4.200  0.5122 -0.2617  0.0818
 3616TIP3    H132263   1.764   2.539   4.135  1.5653  0.0773 -0.4221
 3616TIP3    H232264   1.865   2.630   4.203  0.3639  0.3357  1.0709
 3617TIP3   OH232265   1.365   6.040  12.480  0.3950 -0.3482  0.1284
 3617TIP3    H132266   1.354   6.036  12.385 -0.7643 -2.1505  0.2948
 3617TIP3    H232267   1.410   5.959  12.503  2.6677  1.0522  0.9431
 3618TIP3   OH232268   0.765   4.981  14.082  0.0796 -0.2194 -0.4363
 3618TIP3    H132269   0.734   5.030  14.006  0.4019 -0.9632 -1.0555
 3618TIP3    H232270   0.724   4.895  14.075 -1.0298  0.1445  1.0189
 3619TIP3   OH232271   3.050   1.239  11.259 -0.1326  0.6899  0.0842
 3619TIP3    H132272   3.118   1.174  11.276 -0.0156  0.6280 -0.5679
 3619TIP3    H232273   3.020   1.268  11.345  1.1318  1.1460  0.3853
 3620TIP3   OH232274   6.073   0.008   0.004 -0.6423 -0.7706  0.1796
 3620TIP3    H132275   6.104  -0.045   0.078  1.6100  1.2473  0.8212
 3620TIP3    H232276   6.122  -0.025  -0.071  0.9026  0.3885  0.6137
 3621TIP3   OH232277   2.285   0.575  10.772 -0.4383 -0.5000  0.0301
 3621TIP3    H132278   2.208   0.576  10.828  1.0893 -2.0449  2.3550
 3621TIP3    H232279   2.316   0.666  10.772 -0.2358 -0.5299  2.1417
 3622TIP3   OH232280   5.677   3.805   3.887 -0.0292  0.1381 -0.0827
 3622TIP3    H132281   5.588   3.778   3.907 -0.0331 -0.3011 -0.6660
 3622TIP3    H232282   5.671   3.845   3.800  0.7106 -1.9964 -1.1812
 3623TIP3   OH232283   0.132   6.609  14.338  0.2307  0.2993 -0.4779
 3623TIP3    H132284   0.084   6.583  14.417  0.4414  0.2612 -0.3610
 3623TIP3    H232285   0.186   6.533  14.318 -0.0160  0.2100 -0.8102
 3624TIP3   OH232286   5.698   4.197  14.041  0.3622 -0.3248 -0.2186
 3624TIP3    H132287   5.710   4.200  14.136  1.1177 -3.3073 -0.1320
 3624TIP3    H232288   5.694   4.289  14.015  0.8594  0.5980  2.5942
 3625TIP3   OH232289   2.937   3.346   0.419  0.6567  0.5477 -0.6516
 3625TIP3    H132290   3.029   3.332   0.443 -0.1589  0.2578  2.7275
 3625TIP3    H232291   2.917   3.434   0.450 -0.2259  0.6267 -1.3863
 3626TIP3   OH232292   2.968   2.985  11.498  0.1808  0.6836 -0.0702
 3626TIP3    H132293   2.972   3.034  11.416  0.4693  0.7568 -0.0114
 3626TIP3    H232294   2.938   3.050  11.563  1.7196  1.1011  0.2532
 3627TIP3   OH232295   0.253   4.516  14.984  0.3410  0.1390  0.4591
 3627TIP3    H132296   0.347   4.502  14.972  0.5465  2.6800 -1.9029
 3627TIP3    H232297   0.215   4.498  14.899 -1.1959  0.0305  1.1444
 3628TIP3   OH232298   6.128   5.311   2.002 -0.0329  0.5989 -0.4054
 3628TIP3    H132299   6.113   5.273   2.088 -0.1820 -1.7632 -1.4066
 3628TIP3    H232300   6.086   5.397   2.006  1.2795  1.2215  2.3172
 3629TIP3   OH232301   5.930   3.110  16.711  0.0865 -0.0073  0.3915
 3629TIP3    H132302   5.893   3.099  16.623  0.5932  2.6902 -0.2695
 3629TIP3    H232303   5.894   3.038  16.762 -1.1477 -0.9887 -1.7391
 3630TIP3   OH232304   0.958   3.814   1.137  0.2364 -0.1912  0.5587
 3630TIP3    H132305   0.958   3.909   1.122  1.2371 -0.1322  0.8715
 3630TIP3    H232306   0.908   3.802   1.217 -0.6396 -0.0180  0.0519
 3631TIP3   OH232307   3.852   3.076  12.971 -0.1047 -0.1927 -0.2046
 3631TIP3    H132308   3.895   3.059  13.054 -1.9871  1.3958  1.1722
 3631TIP3    H232309   3.843   3.171  12.967 -2.7649 -0.3910 -0.7586
 3632TIP3   OH232310   1.783   1.902   2.785 -0.8504 -0.5108  0.2075
 3632TIP3    H132311   1.769   1.811   2.811  0.8284 -1.4168 -1.7700
 3632TIP3    H232312   1.846   1.897   2.712 -1.5236  2.1552 -0.6733
 3633TIP3   OH232313   5.809   3.248  11.345 -0.0349  0.0085 -0.2755
 3633TIP3    H132314   5.834   3.338  11.325 -1.7269  0.3560 -0.9668
 3633TIP3    H232315   5.779   3.212  11.261  0.3939 -1.1400  0.0405
 3634TIP3   OH232316   1.548   6.206   5.777  0.2861 -0.4307  0.4655
 3634TIP3    H132317   1.527   6.184   5.686 -0.3601 -0.5420  0.6383
 3634TIP3    H232318   1.596   6.129   5.810  1.6041  0.1050 -0.1322
 3635TIP3   OH232319   0.756   4.967   1.925  0.2652 -0.4368  0.1216
 3635TIP3    H132320   0.780   4.876   1.907 -0.8147 -0.7784  0.3352
 3635TIP3    H232321   0.722   4.999   1.841 -0.2830 -0.5395  0.3043
 3636TIP3   OH232322   4.780   3.033  11.328  0.4689  0.1076 -0.8024
 3636TIP3    H132323   4.753   2.971  11.260 -1.5814  0.1558 -0.1055
 3636TIP3    H232324   4.703   3.088  11.342  1.1413  0.6823  0.8992
 3637TIP3   OH232325   6.369   6.405  14.212 -0.1547 -0.0705  0.5502
 3637TIP3    H132326   6.447   6.355  14.186  0.3140  1.2790 -0.8086
 3637TIP3    H232327   6.325   6.425  14.130 -2.3523 -1.3441  1.3352
 3638TIP3   OH232328   2.448   4.987   5.601  0.3380  0.2993 -0.0387
 3638TIP3    H132329   2.407   5.001   5.686  1.2696 -3.0450  1.1381
 3638TIP3    H232330   2.500   5.066   5.586  0.3122  0.9248  2.6222
 3639TIP3   OH232331   5.139   2.509  14.067  0.7456 -0.0281  0.0808
 3639TIP3    H132332   5.173   2.564  14.138 -1.1873  0.8320  0.4147
 3639TIP3    H232333   5.118   2.571  13.997 -0.2988 -0.4775 -0.0210
 3640TIP3   OH232334   5.304   1.256  16.378  0.8484  0.2032 -0.6716
 3640TIP3    H132335   5.361   1.279  16.451 -0.2328 -2.2246  1.0936
 3640TIP3    H232336   5.254   1.181  16.410 -1.6193  0.7085 -2.9762
 3641TIP3   OH232337   0.181   6.332  15.479 -0.2120 -0.4126  0.4374
 3641TIP3    H132338   0.165   6.324  15.573 -0.5469 -1.2736  0.3181
 3641TIP3    H232339   0.096   6.317  15.439 -0.2950  1.0157  0.0199
 3642TIP3   OH232340   5.796   6.010   3.655 -0.3361  0.0455  0.1800
 3642TIP3    H132341   5.715   6.042   3.615  0.5082  0.2957 -1.4136
 3642TIP3    H232342   5.807   5.921   3.620  2.3350  1.5207 -3.4214
 3643TIP3   OH232343   6.484   1.204  13.823 -0.2451  0.4073 -0.4925
 3643TIP3    H132344   6.447   1.138  13.764  0.0387  1.3625 -1.8072
 3643TIP3    H232345   6.445   1.287  13.793 -1.0927  0.8094  1.5189
 3644TIP3   OH232346   3.487   1.056   6.592 -0.3259 -0.0909  0.1196
 3644TIP3    H132347   3.494   1.151   6.594  0.6704 -0.1373 -0.8969
 3644TIP3    H232348   3.512   1.029   6.681 -0.0199  0.5485  0.2339
 3645TIP3   OH232349   6.259   2.859  16.144 -0.1691  0.3792  0.4210
 3645TIP3    H132350   6.236   2.772  16.176  0.9662 -0.9972 -2.2172
 3645TIP3    H232351   6.233   2.918  16.215 -0.2090 -2.1468  2.6659
 3646TIP3   OH232352   4.642   6.547   1.313  0.2371 -0.2318  0.3075
 3646TIP3    H132353   4.644   6.557   1.217 -1.3255 -0.1003  0.2610
 3646TIP3    H232354   4.687   6.464   1.329  1.5411  0.2966 -0.4246
 3647TIP3   OH232355   0.189   0.243   3.623 -0.0591 -0.5848 -0.1387
 3647TIP3    H132356   0.149   0.295   3.554  1.2583  2.3192  1.1525
 3647TIP3    H232357   0.263   0.199   3.580 -0.9004 -1.0787 -1.1345
 3648TIP3   OH232358   0.609   4.945   1.045 -0.0736  0.3628  0.0760
 3648TIP3    H132359   0.669   5.013   1.074  0.3281  0.4403 -0.9066
 3648TIP3    H232360   0.576   4.906   1.126  1.0429  0.5389  0.6351
 3649TIP3   OH232361   1.247   6.787   5.047  0.3128  0.0831 -0.1291
 3649TIP3    H132362   1.208   6.848   5.109 -0.3366  0.7779 -1.2098
 3649TIP3    H232363   1.301   6.842   4.990  2.9513 -0.8237  1.2941
 3650TIP3   OH232364   4.235   1.659   2.442 -0.4795  0.3365  0.2492
 3650TIP3    H132365   4.216   1.716   2.517 -0.5737 -0.1665  0.6162
 3650TIP3    H232366   4.327   1.674   2.423 -0.8499  1.7244 -0.6213
 3651TIP3   OH232367   5.245   1.068  12.245  0.2123  0.4816  0.3603
 3651TIP3    H132368   5.207   0.984  12.273 -0.8827  2.0121  4.2266
 3651TIP3    H232369   5.182   1.104  12.183  1.1868 -1.8252 -2.1777
 3652TIP3   OH232370   6.585   6.371   1.495  0.1252 -0.1149  0.4316
 3652TIP3    H132371   6.647   6.414   1.436  0.6837  0.7531  1.6135
 3652TIP3    H232372   6.507   6.426   1.493  0.3765  0.2652  0.9781
 3653TIP3   OH232373   2.356   6.086  16.988 -0.3167  0.1117 -0.1403
 3653TIP3    H132374   2.446   6.115  16.974 -0.5786  0.3973 -1.3113
 3653TIP3    H232375   2.341   6.020  16.921  0.0585 -2.4052  2.0800
 3654TIP3   OH232376   5.453   0.848  11.644  0.7221  0.6017  0.5649
 3654TIP3    H132377   5.456   0.784  11.716  0.8449  0.5482  0.5142
 3654TIP3    H232378   5.371   0.894  11.656  0.8868  0.8075  0.9284
 3655TIP3   OH232379   1.667   6.410   2.981 -0.0511  0.5673  0.1832
 3655TIP3    H132380   1.580   6.425   2.945  0.2471  3.0276  0.3689
 3655TIP3    H232381   1.727   6.449   2.918  0.7998  0.5407  0.9456
 3656TIP3   OH232382   3.281   0.636  12.069 -0.3229 -0.0489  0.1194
 3656TIP3    H132383   3.323   0.721  12.085 -1.2427  0.3409  0.5333
 3656TIP3    H232384   3.217   0.654  12.000 -0.8025 -0.3144  0.4933
 3657TIP3   OH232385   0.703   1.881  12.621  0.2823  0.4354  0.0514
 3657TIP3    H132386   0.737   1.798  12.586 -1.3414  0.2979 -1.2718
 3657TIP3    H232387   0.771   1.910  12.682  2.2172 -0.4106 -1.5968
 3658TIP3   OH232388   3.253   1.506   4.293 -0.2709  0.0535 -0.3015
 3658TIP3    H132389   3.282   1.416   4.283 -0.4182  0.0128 -0.3708
 3658TIP3    H232390   3.160   1.499   4.317 -0.4282  0.1957 -0.8456
 3659TIP3   OH232391   4.830   2.894   6.490 -0.2310 -0.3370  0.7012
 3659TIP3    H132392   4.775   2.817   6.501  0.6226 -0.8344  1.6904
 3659TIP3    H232393   4.843   2.926   6.580 -0.2057  0.6943  0.3409
 3660TIP3   OH232394   0.434   6.442  15.776  0.4038  0.4149 -0.2181
 3660TIP3    H132395   0.467   6.442  15.866 -0.3649 -0.4852  0.0858
 3660TIP3    H232396   0.501   6.396  15.726 -0.1849 -1.1484  0.3423
 3661TIP3   OH232397   0.656   0.113   2.728 -0.5760 -0.1647 -0.3467
 3661TIP3    H132398   0.589   0.065   2.680 -0.2961 -1.8503  0.8746
 3661TIP3    H232399   0.730   0.053   2.733  0.1268  0.7310  0.4597
 3662TIP3   OH232400   3.233   1.769   3.287 -0.0268  0.7246  0.1057
 3662TIP3    H132401   3.195   1.721   3.214 -0.5563  1.8993 -0.4160
 3662TIP3    H232402   3.160   1.782   3.349  0.5506 -0.7965  1.1700
 3663TIP3   OH232403   5.917   0.493  13.654 -0.6273 -0.0874  0.0048
 3663TIP3    H132404   6.006   0.472  13.683 -0.6352  1.5155  1.3716
 3663TIP3    H232405   5.926   0.520  13.563  0.3178  0.2346  0.1913
 3664TIP3   OH232406   5.777   6.587  14.678  0.5824 -0.0632  0.0544
 3664TIP3    H132407   5.744   6.537  14.604 -2.0055  0.0474  1.0379
 3664TIP3    H232408   5.811   6.668  14.638 -2.1339  0.6785 -0.9827
 3665TIP3   OH232409   6.582   0.461  14.715 -0.4898 -0.2559 -0.4986
 3665TIP3    H132410   6.531   0.439  14.793  2.7340  0.7315  2.1271
 3665TIP3    H232411   6.653   0.397  14.715  0.7760  1.0877 -1.3286
 3666TIP3   OH232412   5.802   0.250   4.575 -0.2861  0.4445 -0.7541
 3666TIP3    H132413   5.743   0.219   4.643 -0.1784  0.6934 -0.5499
 3666TIP3    H232414   5.888   0.251   4.616 -0.1207  0.0073 -1.0726
 3667TIP3   OH232415   2.681   4.517   2.332  0.3754 -0.2699  0.3479
 3667TIP3    H132416   2.744   4.555   2.271  0.2069  0.8124  0.8149
 3667TIP3    H232417   2.595   4.543   2.298  0.2228 -0.8167  0.3077
 3668TIP3   OH232418   1.116   2.246   5.241  0.0956 -0.3620 -0.0780
 3668TIP3    H132419   1.209   2.246   5.266  0.6167 -1.4064 -1.8272
 3668TIP3    H232420   1.094   2.338   5.229  0.1245  0.1219  2.8486
 3669TIP3   OH232421   0.408   0.390  16.466 -0.1735  0.7149  0.0051
 3669TIP3    H132422   0.392   0.328  16.395 -1.2106 -0.0610  0.8963
 3669TIP3    H232423   0.499   0.416  16.454  0.5603 -1.5940  0.0870
 3670TIP3   OH232424   1.981   0.581   0.054 -0.7448 -0.2873  0.7683
 3670TIP3    H132425   1.970   0.539   0.139  0.5850  0.1005  1.1397
 3670TIP3    H232426   2.063   0.546   0.019 -0.7070  0.3886  0.1336
 3671TIP3   OH232427   0.153   1.208  15.848  0.2047  0.0431 -0.3553
 3671TIP3    H132428   0.224   1.225  15.910  0.1822  2.7029 -0.9592
 3671TIP3    H232429   0.073   1.221  15.898  0.1862  2.2502 -0.8695
 3672TIP3   OH232430   4.271   1.602  11.495 -0.2392 -0.3941 -0.1525
 3672TIP3    H132431   4.199   1.652  11.534 -0.9382 -2.3833  1.2675
 3672TIP3    H232432   4.233   1.565  11.415 -0.3773 -0.3402 -0.1134
 3673TIP3   OH232433   5.439   5.891   5.645  0.7963  0.2684 -0.0595
 3673TIP3    H132434   5.348   5.885   5.616  0.4079  0.5343  1.0646
 3673TIP3    H232435   5.451   5.816   5.704  0.8230  1.1107  1.0339
 3674TIP3   OH232436   1.675   2.309   0.960  0.3383 -0.0297  0.0393
 3674TIP3    H132437   1.652   2.394   0.922  1.8329  0.8878  1.0716
 3674TIP3    H232438   1.704   2.330   1.049 -0.1351 -1.7418  0.6312
 3675TIP3   OH232439   6.391   0.692  12.776  0.0406 -0.5963  0.6795
 3675TIP3    H132440   6.312   0.645  12.803  0.3202 -0.0179  2.6297
 3675TIP3    H232441   6.360   0.778  12.750 -0.1481 -0.9258 -0.2225
 3676TIP3   OH232442   2.616   5.306   3.570  0.3607  0.0624  0.6286
 3676TIP3    H132443   2.604   5.253   3.649 -0.7293  1.3473  1.3671
 3676TIP3    H232444   2.574   5.255   3.501  1.6589 -1.2571  0.7658
 3677TIP3   OH232445   2.683   0.911  13.315 -0.6136  1.0976 -0.5046
 3677TIP3    H132446   2.731   0.968  13.254 -0.8709  2.0166  0.1380
 3677TIP3    H232447   2.734   0.915  13.396 -1.1976  1.2553 -0.1369
 3678TIP3   OH232448   0.176   5.696   5.390  0.0403 -0.5543  0.0882
 3678TIP3    H132449   0.248   5.750   5.358 -0.0693  0.6008  1.6696
 3678TIP3    H232450   0.129   5.752   5.452 -1.3111 -1.7980  0.2505
 3679TIP3   OH232451   1.826   5.794  12.959 -0.4005  0.4270 -0.1807
 3679TIP3    H132452   1.892   5.789  12.889 -0.4016  0.8226 -0.2096
 3679TIP3    H232453   1.744   5.772  12.916 -0.5503  1.5819 -0.5133
 3680TIP3   OH232454   4.385   4.329  14.212 -0.0029 -0.1295  0.1940
 3680TIP3    H132455   4.420   4.299  14.128 -2.6478 -0.8088 -0.7528
 3680TIP3    H232456   4.346   4.414  14.192  0.8747  0.5203  1.1688
 3681TIP3   OH232457   5.624   0.941  13.312 -0.0442 -0.2665  0.2618
 3681TIP3    H132458   5.653   1.031  13.294 -1.0353 -0.2076 -1.3196
 3681TIP3    H232459   5.664   0.919  13.396  0.1931  1.6654  0.7131
 3682TIP3   OH232460   6.343   1.956   5.794  0.3478 -0.4501 -0.3764
 3682TIP3    H132461   6.392   1.878   5.818 -1.2310 -1.5759 -0.6853
 3682TIP3    H232462   6.401   2.003   5.734  1.1087 -1.6637 -0.6295
 3683TIP3   OH232463   5.471   3.997   1.626  0.2556  0.3060 -0.3222
 3683TIP3    H132464   5.380   4.014   1.602 -0.7432 -2.3646  1.1000
 3683TIP3    H232465   5.485   4.050   1.705 -1.1002 -1.4053  1.1439
 3684TIP3   OH232466   0.510   3.131   5.145  0.1630  0.4680  0.1607
 3684TIP3    H132467   0.429   3.136   5.195  0.4956  0.4411  0.7097
 3684TIP3    H232468   0.482   3.124   5.053 -0.4454  1.5745  0.2464
 3685TIP3   OH232469   4.040   1.244   3.505 -0.1487  0.2689 -0.2796
 3685TIP3    H132470   4.035   1.308   3.434  0.6732 -0.6203 -1.1723
 3685TIP3    H232471   3.949   1.227   3.529 -0.3656  2.1713  0.3630
 3686TIP3   OH232472   3.088   5.019  14.694 -0.2182  0.1040 -0.7522
 3686TIP3    H132473   3.003   5.008  14.651 -0.9324 -0.2829  0.6925
 3686TIP3    H232474   3.067   5.052  14.781  1.1446  0.3387 -0.4867
 3687TIP3   OH232475   2.745   0.853   6.277 -0.4533 -0.0265  0.2778
 3687TIP3    H132476   2.703   0.770   6.253 -0.3720  0.0615 -0.1675
 3687TIP3    H232477   2.801   0.830   6.351  0.2937 -0.5610 -0.4386
 3688TIP3   OH232478   5.170   1.398  16.753 -0.0380 -0.2798 -0.6188
 3688TIP3    H132479   5.097   1.336  16.749 -0.1251 -0.1519 -1.1402
 3688TIP3    H232480   5.189   1.408  16.846 -0.4834 -0.5543 -0.4990
 3689TIP3   OH232481   0.374   6.386   5.383  0.1539  0.0027  0.2688
 3689TIP3    H132482   0.364   6.428   5.469  0.4874 -0.4405  0.5323
 3689TIP3    H232483   0.435   6.314   5.399 -0.8991 -0.9974 -0.0188
 3690TIP3   OH232484   4.502   5.979   4.033 -0.1341 -0.9145  0.6269
 3690TIP3    H132485   4.482   5.938   4.117 -0.8282  0.3899  1.1324
 3690TIP3    H232486   4.436   6.048   4.024  2.1387  1.4811  0.8250
 3691TIP3   OH232487   0.439   4.248  15.622 -0.1212 -0.6444 -0.1834
 3691TIP3    H132488   0.497   4.200  15.682  0.6685  2.3157  1.6419
 3691TIP3    H232489   0.362   4.268  15.675 -0.3841  0.1671 -0.8641
 3692TIP3   OH232490   5.057   3.959   2.745  0.2099  0.4883  0.1684
 3692TIP3    H132491   5.135   3.961   2.689  0.4381  0.2829  0.4758
 3692TIP3    H232492   5.075   3.890   2.809 -0.5117 -0.0301 -0.1720
 3693TIP3   OH232493   6.186   5.610  15.900  0.6812 -0.5864 -0.0269
 3693TIP3    H132494   6.248   5.641  15.833  1.0486  1.1762  1.0778
 3693TIP3    H232495   6.227   5.531  15.936  1.8624  0.0514  0.0665
 3694TIP3   OH232496   5.033   1.468   6.161 -0.1530  0.0371  0.4705
 3694TIP3    H132497   5.020   1.373   6.159  0.6471 -0.1086  1.6524
 3694TIP3    H232498   5.104   1.484   6.099  0.4124 -0.2587  1.0396
 3695TIP3   OH232499   6.025   3.874  14.964 -0.3839 -0.3054 -1.0503
 3695TIP3    H132500   5.936   3.843  14.980 -1.0115  1.8749  0.1207
 3695TIP3    H232501   6.014   3.967  14.942  1.6180  0.1772 -0.2514
 3696TIP3   OH232502   3.022   1.839  11.825  0.2422 -0.7485 -0.1951
 3696TIP3    H132503   3.017   1.791  11.907 -0.7504  1.1357  0.9121
 3696TIP3    H232504   3.114   1.831  11.798  0.5961 -1.3420  1.1206
 3697TIP3   OH232505   1.207   5.818  15.907 -0.1386  0.0438 -0.3189
 3697TIP3    H132506   1.233   5.737  15.863  0.3013 -0.9070  1.5666
 3697TIP3    H232507   1.185   5.878  15.836 -0.6611 -1.7756 -1.7769
 3698TIP3   OH232508   5.855   5.889  11.198  0.2273  0.5048  0.1155
 3698TIP3    H132509   5.798   5.966  11.189  0.1763  0.4317 -0.1974
 3698TIP3    H232510   5.860   5.853  11.109  2.1975  1.5299 -0.2316
 3699TIP3   OH232511   3.320   2.810   0.842 -0.0983  0.3022  0.1918
 3699TIP3    H132512   3.270   2.733   0.816  1.5960 -0.6227 -0.5120
 3699TIP3    H232513   3.257   2.882   0.840 -1.7669 -1.0760  1.0618
 3700TIP3   OH232514   0.524   2.236   3.833  0.1847 -0.2647  1.0922
 3700TIP3    H132515   0.522   2.289   3.753  0.4228 -2.2000 -0.2696
 3700TIP3    H232516   0.512   2.146   3.802  3.2562 -1.4304  2.8785
 3701TIP3   OH232517   3.282   0.724   6.424 -0.1171  0.0578  0.4476
 3701TIP3    H132518   3.255   0.667   6.495  0.6673  0.9401  1.4899
 3701TIP3    H232519   3.377   0.712   6.418 -0.1413  0.1542 -0.3154
 3702TIP3   OH232520   1.253   1.539   3.262  0.1557  0.2892 -0.8559
 3702TIP3    H132521   1.262   1.634   3.258  2.2191  0.1110 -1.3589
 3702TIP3    H232522   1.229   1.512   3.174 -1.1930  0.3750 -0.5391
 3703TIP3   OH232523   0.540   3.012   2.723 -0.0485 -0.3549  0.4330
 3703TIP3    H132524   0.567   2.955   2.794 -0.0184 -1.2005 -0.2362
 3703TIP3    H232525   0.467   3.062   2.758  0.2343 -0.4655  1.1859
 3704TIP3   OH232526   5.701   0.243   5.439 -0.4780  0.1324 -0.5171
 3704TIP3    H132527   5.727   0.302   5.510  1.7205  2.0831 -2.7726
 3704TIP3    H232528   5.727   0.156   5.471  0.0801  0.8778  1.2237
 3705TIP3   OH232529   4.288   1.410   1.301 -0.2285 -0.0477  0.5009
 3705TIP3    H132530   4.269   1.504   1.301 -1.8090 -0.3329 -0.2164
 3705TIP3    H232531   4.264   1.382   1.212  1.7675 -0.8495  0.1784
 3706TIP3   OH232532   4.099   5.766  12.854  0.2310 -0.2544  0.4016
 3706TIP3    H132533   4.044   5.690  12.873 -1.7173  1.3272  1.5344
 3706TIP3    H232534   4.163   5.734  12.790 -1.5269 -2.4187 -0.4277
 3707TIP3   OH232535   0.987   4.965   0.525  0.0608  0.2992 -0.4102
 3707TIP3    H132536   1.029   4.981   0.609 -2.2911  1.1124  0.6927
 3707TIP3    H232537   0.967   4.871   0.526  0.0687  0.2997 -0.0774
 3708TIP3   OH232538   0.187   4.314   6.032 -0.4135  0.1039 -0.1211
 3708TIP3    H132539   0.157   4.403   6.053 -1.0059 -0.0505 -0.3066
 3708TIP3    H232540   0.281   4.324   6.019 -0.5407  0.7851 -0.5670
 3709TIP3   OH232541   4.665   5.549   5.197  0.1075 -0.2090  0.0658
 3709TIP3    H132542   4.635   5.635   5.168  0.9910 -0.2606 -1.0939
 3709TIP3    H232543   4.596   5.516   5.255 -0.4377  1.0842  0.1646
 3710TIP3   OH232544   0.476   3.227   1.300  0.6244  0.4075  0.5447
 3710TIP3    H132545   0.433   3.142   1.303  0.6741  0.4217  1.8292
 3710TIP3    H232546   0.406   3.291   1.315  0.7241  0.5624  0.3695
 3711TIP3   OH232547   5.979   2.851   1.950  0.3019 -0.2618 -0.0082
 3711TIP3    H132548   5.898   2.902   1.951  1.1538  1.1425  0.1172
 3711TIP3    H232549   6.048   2.915   1.967  1.4623 -1.3956 -0.2702
 3712TIP3   OH232550   5.894   1.055  11.994  0.2520  0.0870  0.1103
 3712TIP3    H132551   5.897   1.013  11.908 -0.3191  0.4171 -0.0793
 3712TIP3    H232552   5.981   1.041  12.031 -0.2762 -2.4262  0.6218
 3713TIP3   OH232553   1.184   2.836  15.702  0.0851  0.3760  0.5555
 3713TIP3    H132554   1.183   2.855  15.796  0.1705  0.7198  0.4858
 3713TIP3    H232555   1.275   2.844  15.676  0.0218  0.5567  0.3850
 3714TIP3   OH232556   1.735   3.609   4.905 -0.1478  0.0000  0.6298
 3714TIP3    H132557   1.672   3.607   4.832  0.6897  0.8181 -0.1331
 3714TIP3    H232558   1.699   3.675   4.965 -1.2367 -1.2072  1.3559
 3715TIP3   OH232559   5.759   5.143  13.798 -0.5441 -0.2392 -0.0432
 3715TIP3    H132560   5.679   5.193  13.812 -1.2215 -1.0714 -0.8206
 3715TIP3    H232561   5.758   5.121  13.705  0.2809 -0.7815  0.0643
 3716TIP3   OH232562   2.037   3.107  15.514  0.0129 -0.2513  0.2780
 3716TIP3    H132563   2.105   3.057  15.469  0.5935  0.4903  0.3153
 3716TIP3    H232564   1.958   3.090  15.464  0.3040 -0.7951 -0.0092
 3717TIP3   OH232565   3.116   4.203  15.817  0.1331  0.0736 -0.2804
 3717TIP3    H132566   3.164   4.120  15.821  0.8027  0.5096  1.4204
 3717TIP3    H232567   3.025   4.177  15.808  0.4583 -0.8089 -1.2831
 3718TIP3   OH232568   3.810   3.889  15.503  0.0012 -0.6420  0.1137
 3718TIP3    H132569   3.796   3.882  15.597 -0.9880  1.8125  0.2234
 3718TIP3    H232570   3.725   3.916  15.468  0.5543 -0.7485 -1.3710
 3719TIP3   OH232571   5.736   2.372  11.285  0.2068  0.0367 -0.0096
 3719TIP3    H132572   5.661   2.418  11.247  0.3684 -1.2558 -2.0714
 3719TIP3    H232573   5.772   2.433  11.349  0.1643  2.6484 -2.2861
 3720TIP3   OH232574   4.951   3.927  15.907  0.1759  0.3432 -0.2324
 3720TIP3    H132575   4.874   3.879  15.878  0.6613  0.6898 -2.2731
 3720TIP3    H232576   4.947   3.924  16.003 -2.6731  0.9044 -0.2549
 3721TIP3   OH232577   6.524   5.377  16.554 -0.0522 -0.0088  0.3439
 3721TIP3    H132578   6.604   5.429  16.542 -0.0218 -0.0427  0.3926
 3721TIP3    H232579   6.478   5.420  16.626 -0.3329  0.3125 -0.0258
 3722TIP3   OH232580   2.672   3.424   1.212  0.3977  0.1303 -0.1185
 3722TIP3    H132581   2.607   3.426   1.142 -0.7924  0.4490  0.9435
 3722TIP3    H232582   2.723   3.504   1.199  1.7055 -0.9344 -1.9374
 3723TIP3   OH232583   4.792   3.579   5.018 -0.4440  0.0661 -0.1117
 3723TIP3    H132584   4.712   3.622   5.047 -0.1515  0.7122 -0.2619
 3723TIP3    H232585   4.793   3.496   5.066  0.1520  1.2097  1.9624
 3724TIP3   OH232586   5.748   0.064   1.754 -0.0966 -0.2178  0.1412
 3724TIP3    H132587   5.692   0.141   1.746 -0.0584 -0.3655 -2.4288
 3724TIP3    H232588   5.816   0.078   1.688  0.4207 -2.0389  0.2483
 3725TIP3   OH232589   4.609   2.607   0.209  0.0355  0.0674  0.2154
 3725TIP3    H132590   4.666   2.608   0.133 -1.3935 -1.0949 -0.9208
 3725TIP3    H232591   4.638   2.532   0.260  0.6687  0.5515  0.5856
 3726TIP3   OH232592   0.573   1.918   3.822  0.0737 -0.3120 -0.3284
 3726TIP3    H132593   0.494   1.869   3.798 -0.5027  0.7002 -0.5696
 3726TIP3    H232594   0.639   1.851   3.838 -1.2513 -1.3027  1.4772
 3727TIP3   OH232595   1.669   1.687   0.171  0.3255 -0.2819 -0.3088
 3727TIP3    H132596   1.657   1.724   0.258  0.5470 -0.6762 -0.1074
 3727TIP3    H232597   1.755   1.720   0.143 -0.1845  0.6790 -0.8084
 3728TIP3   OH232598   5.618   1.492   5.947  0.4434 -0.1607  0.2309
 3728TIP3    H132599   5.530   1.467   5.976  0.2671  1.4539  1.2280
 3728TIP3    H232600   5.635   1.435   5.872 -2.0985  0.5319 -0.9975
 3729TIP3   OH232601   3.203   5.471   2.474 -0.2136 -0.2239  0.5367
 3729TIP3    H132602   3.207   5.477   2.379  0.2026 -0.5312  0.5330
 3729TIP3    H232603   3.282   5.424   2.499  0.0655  0.5193  1.1024
 3730TIP3   OH232604   6.365   1.408   0.639 -0.2911 -0.2074  0.1646
 3730TIP3    H132605   6.394   1.318   0.653 -0.0184  0.2063  2.7240
 3730TIP3    H232606   6.338   1.410   0.547 -0.5031 -2.9326  0.0823
 3731TIP3   OH232607   2.342   5.951  13.811  0.1716  0.1581 -0.1771
 3731TIP3    H132608   2.389   5.953  13.894  0.9837  1.6945 -0.6559
 3731TIP3    H232609   2.365   5.866  13.773  1.1670  0.1625  0.3860
 3732TIP3   OH232610   6.360   3.858  11.687  0.1448  0.3378 -0.1849
 3732TIP3    H132611   6.422   3.912  11.736  0.4332 -1.6846  1.8548
 3732TIP3    H232612   6.278   3.865  11.737  0.0744 -0.7243 -0.1369
 3733TIP3   OH232613   4.820   0.340   5.014  0.1492 -0.1790  0.4902
 3733TIP3    H132614   4.860   0.383   4.938 -0.5425  0.7358  0.6244
 3733TIP3    H232615   4.871   0.259   5.026 -0.3919 -0.8727 -1.5734
 3734TIP3   OH232616   2.760   1.441   1.719 -0.2988 -0.0271  0.1023
 3734TIP3    H132617   2.766   1.535   1.734 -0.2470 -0.1614  1.0205
 3734TIP3    H232618   2.765   1.431   1.624  2.5424  0.7194  0.0680
 3735TIP3   OH232619   3.811   1.112  14.188 -0.0219 -0.1211  0.6040
 3735TIP3    H132620   3.775   1.137  14.273 -0.1931  0.6631  0.3076
 3735TIP3    H232621   3.877   1.179  14.169 -0.4599  0.1028 -0.1805
 3736TIP3   OH232622   2.943   4.006  12.032  0.2586  0.3710 -0.3307
 3736TIP3    H132623   3.009   4.043  11.973  0.2849  0.3828 -0.2938
 3736TIP3    H232624   2.934   4.070  12.102  0.3305  0.2934 -0.2491
 3737TIP3   OH232625   6.067   6.286  16.191 -0.6768 -0.2481 -0.0282
 3737TIP3    H132626   6.038   6.217  16.132 -1.0135 -1.1915  1.1876
 3737TIP3    H232627   6.063   6.246  16.278 -0.9500  1.3247  0.7230
 3738TIP3   OH232628   0.567   0.391  15.942 -0.1649 -0.0929  0.3659
 3738TIP3    H132629   0.604   0.368  15.857 -0.5328  0.6887 -0.0079
 3738TIP3    H232630   0.638   0.375  16.004 -0.3352 -2.0713  0.1261
 3739TIP3   OH232631   4.025   5.052   3.178 -0.2937 -0.3092 -0.0746
 3739TIP3    H132632   4.004   5.009   3.262  0.3104  2.2217  1.4763
 3739TIP3    H232633   4.121   5.058   3.178 -0.3750  2.0754  0.4251
 3740TIP3   OH232634   6.446   2.982   3.552  0.2077  0.0878  0.0886
 3740TIP3    H132635   6.468   3.070   3.521  1.6850  0.2958  1.5639
 3740TIP3    H232636   6.530   2.946   3.583 -0.7582 -0.9290  1.6666
 3741TIP3   OH232637   2.852   6.133  11.981  0.2436  0.4410 -0.4629
 3741TIP3    H132638   2.818   6.222  11.983 -0.8494  0.0554 -0.7911
 3741TIP3    H232639   2.845   6.103  12.072 -0.7211  0.2364 -0.5856
 3742TIP3   OH232640   2.866   1.882   0.861 -0.1375  0.1910  0.0041
 3742TIP3    H132641   2.847   1.945   0.791 -0.6396 -0.2067 -0.2244
 3742TIP3    H232642   2.888   1.801   0.815  0.4878  0.1851  0.2977
 3743TIP3   OH232643   4.004   5.121  11.340  0.2681 -0.1015 -0.7480
 3743TIP3    H132644   4.095   5.148  11.335  0.4706 -0.5623  0.2114
 3743TIP3    H232645   3.986   5.082  11.255  0.5731  1.1452 -1.4035
 3744TIP3   OH232646   5.424   0.331   0.940 -0.0074  0.0146 -0.8496
 3744TIP3    H132647   5.400   0.415   0.980 -1.8925 -0.3918 -1.0317
 3744TIP3    H232648   5.390   0.336   0.851  1.1642 -0.3982 -1.3302
 3745TIP3   OH232649   2.440   3.717  14.328  0.0728 -0.6821  0.2863
 3745TIP3    H132650   2.493   3.780  14.279 -0.7722  0.0973  0.3348
 3745TIP3    H232651   2.378   3.683  14.264 -0.5968 -0.1613  0.6408
 3746TIP3   OH232652   3.911   2.887  12.774  0.0439  0.3915 -0.6446
 3746TIP3    H132653   3.898   2.952  12.844 -0.7243 -0.5287  0.0987
 3746TIP3    H232654   4.003   2.861  12.784  0.4486  1.5425 -1.1362
 3747TIP3   OH232655   0.036   5.369   1.579 -0.3571 -0.4753 -0.3728
 3747TIP3    H132656   0.069   5.346   1.666 -0.0784 -0.4220 -0.4657
 3747TIP3    H232657  -0.054   5.336   1.579 -0.2065 -0.8972 -0.2300
 3748TIP3   OH232658   1.218   5.807  15.520  0.2659  0.2123 -0.3511
 3748TIP3    H132659   1.188   5.875  15.580  0.3583  1.5199 -1.7203
 3748TIP3    H232660   1.185   5.725  15.558 -0.7614  1.1069  0.7819
 3749TIP3   OH232661   2.004   0.544   1.860 -0.0274  0.4377  0.1899
 3749TIP3    H132662   1.971   0.463   1.823  1.0581  0.6763 -1.3917
 3749TIP3    H232663   1.940   0.569   1.926 -1.1720 -0.8791 -0.3972
 3750TIP3   OH232664   0.912   2.805   6.264  0.2413 -0.2277 -0.4361
 3750TIP3    H132665   0.885   2.730   6.317 -0.8000  0.6084  0.2621
 3750TIP3    H232666   0.893   2.881   6.319  0.2577  0.6060 -1.5490
 3751TIP3   OH232667   4.568   5.539  14.146 -0.2911  0.0839  0.2821
 3751TIP3    H132668   4.625   5.465  14.124  0.8894  0.7418  1.0240
 3751TIP3    H232669   4.581   5.602  14.075  1.1043  0.8763  1.2081
 3752TIP3   OH232670   0.400   5.446  15.932 -0.8630  0.5037 -0.1315
 3752TIP3    H132671   0.373   5.512  15.867 -0.8297  1.6110  0.9571
 3752TIP3    H232672   0.495   5.446  15.927 -0.8848 -0.1338 -0.7631
 3753TIP3   OH232673   1.748   5.941   4.405  0.1898  0.6460 -0.1378
 3753TIP3    H132674   1.822   6.000   4.387  1.2143 -0.1680  1.2345
 3753TIP3    H232675   1.737   5.891   4.325  2.3629 -0.4859  0.1806
 3754TIP3   OH232676   2.857   5.271   1.701 -1.2783 -0.7442  0.1728
 3754TIP3    H132677   2.942   5.233   1.723 -0.6355  0.3275 -0.3747
 3754TIP3    H232678   2.877   5.360   1.672 -2.2129 -1.4638 -3.0848
 3755TIP3   OH232679   0.244   0.648   5.593 -0.0712 -0.4208 -0.0184
 3755TIP3    H132680   0.177   0.709   5.624 -0.5435 -1.4281  1.0442
 3755TIP3    H232681   0.205   0.561   5.605  1.2180 -1.0072  0.1339
 3756TIP3   OH232682   6.473   2.837   5.024 -0.2307 -0.2465 -0.0411
 3756TIP3    H132683   6.405   2.902   5.005  1.0901  0.8828 -1.1331
 3756TIP3    H232684   6.535   2.845   4.951  0.0769 -2.6440 -0.1280
 3757TIP3   OH232685   3.593   2.248  12.521  0.3676 -0.1030  0.4111
 3757TIP3    H132686   3.536   2.172  12.510 -1.3762  1.3588 -1.1366
 3757TIP3    H232687   3.534   2.323  12.521  2.0695  1.3101  1.6249
 3758TIP3   OH232688   1.246   3.276   3.568 -0.5423 -0.1889  0.2471
 3758TIP3    H132689   1.200   3.306   3.646  0.8109 -1.1446  1.4664
 3758TIP3    H232690   1.185   3.216   3.526 -1.5099  0.7700  0.2305
 3759TIP3   OH232691   1.086   4.515  15.470 -0.0528  0.0579  0.3143
 3759TIP3    H132692   1.181   4.512  15.468 -0.0390  0.4926 -0.0154
 3759TIP3    H232693   1.059   4.461  15.396 -0.0636 -0.1256  0.4524
 3760TIP3   OH232694   2.497   2.578   5.074  0.3216  0.3758 -0.2006
 3760TIP3    H132695   2.479   2.662   5.031  1.6638 -1.1554 -4.1717
 3760TIP3    H232696   2.415   2.529   5.066  0.6302  0.0206 -1.2603
 3761TIP3   OH232697   0.491   0.987  10.977  0.1571 -0.3071 -0.2154
 3761TIP3    H132698   0.580   0.999  10.946  0.0928  0.2355 -0.2056
 3761TIP3    H232699   0.498   0.924  11.049  0.8326  1.2525  1.1558
 3762TIP3   OH232700   4.362   4.319  10.557 -0.5496  0.1585  0.0455
 3762TIP3    H132701   4.309   4.288  10.630 -1.4669  1.7051  0.0772
 3762TIP3    H232702   4.341   4.259  10.485 -1.2769 -0.0890  0.4506
 3763TIP3   OH232703   3.338   0.904   0.429  0.6353  0.4509 -0.1954
 3763TIP3    H132704   3.257   0.853   0.430 -1.7007  3.7491 -2.6723
 3763TIP3    H232705   3.406   0.839   0.413 -1.3600 -2.5010  2.0951
 3764TIP3   OH232706   2.830   5.077   5.675 -0.0610  0.3362  0.8600
 3764TIP3    H132707   2.773   5.116   5.609  1.3554  0.3901 -0.3797
 3764TIP3    H232708   2.890   5.021   5.626  2.5406  2.1219  1.7632
 3765TIP3   OH232709   1.754   1.279  16.236  0.0676  0.1431 -0.3346
 3765TIP3    H132710   1.707   1.256  16.316  0.6202 -0.4144 -0.1617
 3765TIP3    H232711   1.825   1.215  16.231  0.4393  0.5937 -0.9123
 3766TIP3   OH232712   0.337   0.746  14.039 -0.2397  0.4611 -0.6714
 3766TIP3    H132713   0.347   0.654  14.065 -0.4987  0.1334 -1.6624
 3766TIP3    H232714   0.393   0.755  13.962  1.0241  1.5738  0.3264
 3767TIP3   OH232715   1.238   3.099  11.547 -0.8919 -0.1251  0.1064
 3767TIP3    H132716   1.167   3.038  11.568 -1.7854  0.9320  0.2561
 3767TIP3    H232717   1.221   3.176  11.601 -1.2482  1.2683 -1.8776
 3768TIP3   OH232718   5.511   2.084  11.898 -0.1866  0.3255 -0.6051
 3768TIP3    H132719   5.502   2.172  11.936 -5.0540 -0.3306  0.3535
 3768TIP3    H232720   5.534   2.028  11.972 -0.6149  0.3253 -0.4690
 3769TIP3   OH232721   6.653   1.629   6.400 -0.0877 -0.0699  0.2013
 3769TIP3    H132722   6.627   1.721   6.397 -2.0221 -0.5926 -0.3087
 3769TIP3    H232723   6.578   1.585   6.439  0.5822 -1.5268 -0.1145
 3770TIP3   OH232724   1.936   3.025   4.735 -0.6497 -0.5064 -0.2213
 3770TIP3    H132725   1.999   3.062   4.798 -0.8874 -0.5736  0.0565
 3770TIP3    H232726   1.946   3.080   4.657 -0.6161 -0.1881  0.0030
 3771TIP3   OH232727   3.108   1.649   6.498  0.3446  0.1272  0.1633
 3771TIP3    H132728   3.063   1.733   6.506 -0.5068 -0.3926  1.0144
 3771TIP3    H232729   3.099   1.609   6.585  0.9037 -0.7667 -0.1775
 3772TIP3   OH232730   2.754   3.784  14.770  0.5460  0.4421 -0.0857
 3772TIP3    H132731   2.739   3.709  14.712 -0.5122  0.9595 -0.5086
 3772TIP3    H232732   2.823   3.754  14.830  0.2294 -0.8328 -0.3114
 3773TIP3   OH232733   5.119   4.409   2.557 -0.7889 -0.3986 -0.0471
 3773TIP3    H132734   5.200   4.360   2.541 -0.7278 -0.4034  0.2767
 3773TIP3    H232735   5.131   4.491   2.508  0.2177  0.4206  1.4906
 3774TIP3   OH232736   3.888   5.027   5.624  0.1691  0.2783  0.2616
 3774TIP3    H132737   3.925   5.112   5.600  1.3912 -1.1698 -3.7269
 3774TIP3    H232738   3.964   4.971   5.638 -0.4552 -1.2644 -2.0023
 3775TIP3   OH232739   0.880   1.895   4.379 -0.1790 -0.3338  0.1403
 3775TIP3    H132740   0.798   1.868   4.339  0.8046 -3.1995 -0.1790
 3775TIP3    H232741   0.862   1.982   4.416 -2.7285 -0.0233 -1.6044
 3776TIP3   OH232742   4.367   2.414  11.950 -0.1739  0.2220 -0.0085
 3776TIP3    H132743   4.403   2.338  11.995  0.2185  0.2857 -0.2085
 3776TIP3    H232744   4.274   2.415  11.974 -0.6868 -1.5568 -1.7004
 3777TIP3   OH232745   5.586   5.293   3.289 -0.8334 -0.3779  0.5425
 3777TIP3    H132746   5.495   5.306   3.316 -1.0335 -1.0756  0.2267
 3777TIP3    H232747   5.636   5.293   3.371 -1.0959  0.1135  0.7085
 3778TIP3   OH232748   3.498   1.050   4.711  0.1929 -0.5849  0.2394
 3778TIP3    H132749   3.478   1.083   4.799  0.2280  0.1906 -0.0338
 3778TIP3    H232750   3.441   1.101   4.653  2.3510  1.1569 -0.4858
 3779TIP3   OH232751   0.264   2.741  15.577  0.3559  0.0649  0.0498
 3779TIP3    H132752   0.343   2.712  15.624  0.0081  1.8970  1.9230
 3779TIP3    H232753   0.193   2.689  15.615  0.4861 -0.9039 -0.9655
 3780TIP3   OH232754   4.049   1.151  13.743  0.2126  0.0951  0.0327
 3780TIP3    H132755   4.042   1.231  13.690  0.2271  0.8551  1.1370
 3780TIP3    H232756   3.958   1.123  13.756  0.2621 -0.7078 -1.2797
 3781TIP3   OH232757   3.149   1.199   2.910 -0.3012  0.2627 -0.4403
 3781TIP3    H132758   3.101   1.257   2.851 -1.4425 -0.3850 -0.2018
 3781TIP3    H232759   3.084   1.132   2.934  1.0153 -1.2128 -0.8678
 3782TIP3   OH232760   3.071   4.676  11.677 -1.1800  0.1578  0.5998
 3782TIP3    H132761   3.077   4.669  11.581  0.1425  1.4965  0.5407
 3782TIP3    H232762   3.142   4.736  11.701 -0.9303 -0.8267  2.5305
 3783TIP3   OH232763   0.453   2.504   0.377 -0.0942  0.2074  0.5646
 3783TIP3    H132764   0.542   2.498   0.343  0.1140 -0.1920  1.1514
 3783TIP3    H232765   0.430   2.414   0.400 -1.2037  0.0962 -0.9179
 3784TIP3   OH232766   1.752   3.471  12.758 -0.3954  0.2672 -0.5360
 3784TIP3    H132767   1.698   3.541  12.796 -1.5673  0.7562 -2.9337
 3784TIP3    H232768   1.832   3.515  12.730 -0.8250  0.5178 -1.3849
 3785TIP3   OH232769   0.528   2.827   5.100  0.1150  0.0743 -0.4766
 3785TIP3    H132770   0.531   2.733   5.086  1.2593  0.0772 -0.3177
 3785TIP3    H232771   0.551   2.838   5.193 -1.7347  0.4133 -0.0110
 3786TIP3   OH232772   3.528   2.145  13.506 -0.1296  0.3625  0.0171
 3786TIP3    H132773   3.520   2.177  13.416 -1.9565  0.2692  0.1077
 3786TIP3    H232774   3.509   2.051  13.499 -0.1919  0.3413  0.4756
 3787TIP3   OH232775   0.090   3.893   0.982  0.6332 -0.1260 -0.4167
 3787TIP3    H132776   0.116   3.982   0.957 -0.1143  0.0800 -0.4886
 3787TIP3    H232777   0.167   3.857   1.026  0.9488  0.5531 -0.3965
 3788TIP3   OH232778   4.097   2.656  15.657  0.5561 -0.2929  0.2058
 3788TIP3    H132779   4.161   2.641  15.726  2.0136 -1.2741 -1.2748
 3788TIP3    H232780   4.087   2.570  15.615  0.0498  0.3650 -1.0597
 3789TIP3   OH232781   5.925   0.892  16.408 -0.2352 -0.1011  0.2615
 3789TIP3    H132782   6.000   0.841  16.380  0.3678  0.5129  0.7327
 3789TIP3    H232783   5.922   0.966  16.346 -0.6317 -0.2742  0.0660
 3790TIP3   OH232784   2.361   5.179  12.985  0.0577  1.3690 -0.0516
 3790TIP3    H132785   2.287   5.127  13.016  1.5869 -0.1980  1.1599
 3790TIP3    H232786   2.353   5.177  12.890 -0.6489 -0.0575  0.0098
 3791TIP3   OH232787   3.395   2.077   3.344  0.0831 -0.8939 -0.0491
 3791TIP3    H132788   3.389   2.158   3.294 -2.2367 -1.1123 -0.2407
 3791TIP3    H232789   3.329   2.086   3.413  0.4115 -2.2446  0.4775
 3792TIP3   OH232790   3.143   3.358   1.512 -0.3270 -0.3470 -0.5650
 3792TIP3    H132791   3.071   3.396   1.463 -2.5221 -0.2859  2.4413
 3792TIP3    H232792   3.132   3.263   1.501 -3.1735 -0.5687  2.5126
 3793TIP3   OH232793   0.088   1.867  17.082 -0.3171 -0.4497 -0.0097
 3793TIP3    H132794   0.121   1.803  17.145  1.1680  1.3433  1.1457
 3793TIP3    H232795   0.163   1.922  17.062 -1.1725  0.0566 -2.1281
 3794TIP3   OH232796   0.661   1.868  15.188  0.1953  0.3750 -0.0051
 3794TIP3    H132797   0.650   1.929  15.261  1.3361 -0.1270  0.6169
 3794TIP3    H232798   0.588   1.887  15.129 -1.2986  0.1646  1.6960
 3795TIP3   OH232799   3.421   6.198   2.504 -0.0112  0.2161  0.0700
 3795TIP3    H132800   3.516   6.203   2.496 -0.0356 -1.2290 -1.4482
 3795TIP3    H232801   3.388   6.225   2.418 -0.9388 -0.3329  0.2435
 3796TIP3   OH232802   0.969   3.446   2.601 -0.5246 -0.2637  0.2734
 3796TIP3    H132803   0.910   3.492   2.661 -1.6305 -1.2868  0.0033
 3796TIP3    H232804   1.030   3.400   2.658 -0.3075  0.3762  0.5665
 3797TIP3   OH232805   2.144   2.209  15.297 -0.2757  0.5029 -0.3476
 3797TIP3    H132806   2.189   2.222  15.213 -1.3887  0.1835 -1.0258
 3797TIP3    H232807   2.078   2.278  15.299 -0.6482  0.1407 -0.0205
 3798TIP3   OH232808   1.068   4.692   2.012 -0.8111  0.0345 -0.1324
 3798TIP3    H132809   1.079   4.636   2.089 -0.8344 -0.6608 -0.6248
 3798TIP3    H232810   0.985   4.665   1.973 -1.1939  0.9361  0.0410
 3799TIP3   OH232811   0.012   0.484  15.961  0.0183  0.2556  0.0934
 3799TIP3    H132812   0.073   0.426  15.916  1.5204  0.8850  1.2355
 3799TIP3    H232813  -0.003   0.442  16.046 -0.5383  0.5080  0.1247
 3800TIP3   OH232814   2.810   5.536  10.968 -0.0948  0.0254 -0.5946
 3800TIP3    H132815   2.805   5.619  10.921  1.4391  1.4514  1.6150
 3800TIP3    H232816   2.775   5.472  10.906 -3.2077  2.5197 -1.6879
 3801TIP3   OH232817   2.494   3.046  16.073 -0.2585  0.0934  0.2712
 3801TIP3    H132818   2.543   2.981  16.023 -0.8311 -1.1984  1.3220
 3801TIP3    H232819   2.411   3.056  16.026  0.1614  0.7240 -0.3582
 3802TIP3   OH232820   2.705   3.199  12.664 -0.5650 -0.0963 -0.0385
 3802TIP3    H132821   2.799   3.207  12.643 -1.2471  2.9827 -2.7807
 3802TIP3    H232822   2.695   3.246  12.746  0.0220  1.9334 -1.0605
 3803TIP3   OH232823   5.213   4.671   4.827 -0.6312  0.5189  0.0239
 3803TIP3    H132824   5.295   4.713   4.802 -1.1354  0.2981 -2.1835
 3803TIP3    H232825   5.170   4.735   4.883  0.5905  1.0552  0.3853
 3804TIP3   OH232826   6.445   5.404  15.509 -0.1693 -0.5338 -0.2800
 3804TIP3    H132827   6.424   5.470  15.444  1.2084 -1.0505 -1.3238
 3804TIP3    H232828   6.496   5.450  15.575  0.1330 -0.3828 -0.6129
 3805TIP3   OH232829   4.548   6.748   4.482 -0.3105  0.2244 -0.0874
 3805TIP3    H132830   4.558   6.656   4.461 -3.2547 -0.9220  2.5367
 3805TIP3    H232831   4.605   6.762   4.558  2.9420  1.7309 -2.5676
 3806TIP3   OH232832   2.828   0.398  17.142 -0.0954  0.4451 -0.0882
 3806TIP3    H132833   2.802   0.333  17.077  1.5490  0.9604 -1.3216
 3806TIP3    H232834   2.918   0.377  17.165  0.4151  2.1296 -0.3682
 3807TIP3   OH232835   5.698   2.817   5.531  0.5360 -0.3611 -0.6650
 3807TIP3    H132836   5.734   2.895   5.572  0.5524  0.2921 -1.8600
 3807TIP3    H232837   5.607   2.813   5.561  0.8293 -0.4863  0.2253
 3808TIP3   OH232838   0.762   1.499   3.323 -0.4024 -0.0517 -0.5267
 3808TIP3    H132839   0.802   1.475   3.239  0.6281  0.5554 -0.2304
 3808TIP3    H232840   0.836   1.511   3.382 -1.1049 -0.1993  0.4040
 3809TIP3   OH232841   0.072   2.567  15.682  0.0793 -0.0457  0.0036
 3809TIP3    H132842   0.074   2.562  15.778  0.7923 -0.9330 -0.0412
 3809TIP3    H232843   0.063   2.476  15.654  2.2863 -0.0797 -0.7945
 3810TIP3   OH232844   5.290   1.658  14.294  0.6246  0.2208 -0.3384
 3810TIP3    H132845   5.243   1.715  14.356  2.6338  1.1157  0.4724
 3810TIP3    H232846   5.370   1.707  14.273  2.3898 -2.1849  0.2671
 3811TIP3   OH232847   5.353   1.940  16.183 -0.1083 -0.0654  0.2824
 3811TIP3    H132848   5.382   1.854  16.153 -0.9353 -0.3507  0.2888
 3811TIP3    H232849   5.406   2.002  16.132  2.1272 -0.5524  1.8752
 3812TIP3   OH232850   2.263   2.818  15.826  0.3602 -0.2442 -0.5702
 3812TIP3    H132851   2.296   2.748  15.768  0.3892 -0.5615 -0.1751
 3812TIP3    H232852   2.183   2.782  15.863  1.7201 -1.1733  1.6870
 3813TIP3   OH232853   2.393   4.935  15.815 -0.4206 -0.2126 -0.1660
 3813TIP3    H132854   2.333   4.900  15.881 -1.8330 -1.0991 -1.8724
 3813TIP3    H232855   2.473   4.883  15.825  0.6802  1.7407  2.9228
 3814TIP3   OH232856   0.588   0.031  13.410 -0.8527 -0.4826 -0.1307
 3814TIP3    H132857   0.662   0.086  13.385  0.0667 -1.8297 -0.4974
 3814TIP3    H232858   0.529   0.033  13.335  0.1771 -1.6335 -1.0042
 3815TIP3   OH232859   1.804   1.564  10.844  0.8068  0.5196  0.4508
 3815TIP3    H132860   1.884   1.553  10.897  0.1528 -3.3554  0.9503
 3815TIP3    H232861   1.829   1.533  10.757 -0.0303 -0.3602  0.5139
 3816TIP3   OH232862   1.870   1.992  14.753 -0.4379  0.3170 -0.2135
 3816TIP3    H132863   1.798   2.019  14.811 -0.6706  0.4939 -0.5749
 3816TIP3    H232864   1.915   1.922  14.800 -0.6298  0.4515  0.1740
 3817TIP3   OH232865   0.592   5.954  11.801  0.1345  0.2691 -0.6892
 3817TIP3    H132866   0.636   5.871  11.785  0.9822  0.8631 -1.5252
 3817TIP3    H232867   0.628   6.014  11.736 -0.4779  1.2957 -0.1175
 3818TIP3   OH232868   3.489   4.338   2.660 -0.5720  0.9328 -0.0167
 3818TIP3    H132869   3.457   4.318   2.573 -0.5941  0.4305  0.1063
 3818TIP3    H232870   3.479   4.257   2.710 -1.6769  1.5430  0.7961
 3819TIP3   OH232871   3.331   1.308   5.595  0.3589  0.2226  0.8118
 3819TIP3    H132872   3.289   1.248   5.656 -0.5320  0.3374  0.3276
 3819TIP3    H232873   3.268   1.379   5.583 -0.5058 -0.8629 -1.9195
 3820TIP3   OH232874   5.941   6.457   2.375  0.4737  0.0364 -0.7923
 3820TIP3    H132875   5.868   6.472   2.436 -1.1294  0.5507 -2.7199
 3820TIP3    H232876   6.018   6.448   2.431 -0.9546  0.1472  1.3071
 3821TIP3   OH232877   6.166   1.722  13.664 -0.0335  0.2386  0.1275
 3821TIP3    H132878   6.133   1.652  13.609 -0.4627  1.2200 -0.9099
 3821TIP3    H232879   6.131   1.802  13.625  0.3711  1.0353  1.3162
 3822TIP3   OH232880   5.461   5.137  16.842  0.2149 -0.2096  0.1585
 3822TIP3    H132881   5.478   5.055  16.795 -1.1368  0.4213 -1.5400
 3822TIP3    H232882   5.543   5.186  16.834  0.9953 -1.3149  1.0971
 3823TIP3   OH232883   2.637   1.817  13.799 -0.4406 -0.0755  0.0904
 3823TIP3    H132884   2.566   1.806  13.862 -1.8561  0.4218 -1.3623
 3823TIP3    H232885   2.683   1.733  13.800 -0.3649 -0.0467  1.8228
 3824TIP3   OH232886   4.271   6.070   5.409 -0.3125 -0.0387  0.3213
 3824TIP3    H132887   4.196   6.111   5.367  0.3361 -2.0841 -3.2463
 3824TIP3    H232888   4.346   6.093   5.354  1.3537  0.0826  2.4852
 3825TIP3   OH232889   6.200   5.570   3.209  0.3529 -0.0164  0.2417
 3825TIP3    H132890   6.243   5.591   3.126  1.3277 -1.3428  0.3578
 3825TIP3    H232891   6.108   5.594   3.196  0.1146 -1.7418 -1.8618
 3826TIP3   OH232892   3.687   0.793   5.710 -0.0781  0.3527  0.2212
 3826TIP3    H132893   3.753   0.861   5.697 -1.1225  1.0768 -1.8901
 3826TIP3    H232894   3.675   0.788   5.804  1.4423  1.7123  0.5269
 3827TIP3   OH232895   6.227   3.987  13.951 -0.7335 -0.0952  0.3233
 3827TIP3    H132896   6.286   4.059  13.929 -0.0854 -0.9440 -0.8460
 3827TIP3    H232897   6.279   3.929  14.007 -1.1187  0.1248  0.9212
 3828TIP3   OH232898   0.819   1.471  16.411  0.1468  0.0388  0.4282
 3828TIP3    H132899   0.847   1.382  16.388  2.0696  0.8432 -0.6378
 3828TIP3    H232900   0.740   1.486  16.359 -1.5798 -1.8039  2.3733
 3829TIP3   OH232901   2.859   6.243   3.350 -0.2404  0.6279  0.1028
 3829TIP3    H132902   2.822   6.165   3.392  0.6275 -0.0378 -0.3356
 3829TIP3    H232903   2.871   6.305   3.421  2.0617 -0.7950  1.0643
 3830TIP3   OH232904   4.689   2.945   0.730  0.1396 -0.5498  0.1048
 3830TIP3    H132905   4.746   2.987   0.795  0.1688 -0.8903  0.2993
 3830TIP3    H232906   4.670   3.015   0.667 -1.0904  0.2039  1.2557
 3831TIP3   OH232907   0.484   5.040   0.064 -0.0212  0.0916  0.3070
 3831TIP3    H132908   0.546   4.973   0.034  0.5316  1.5030 -1.8827
 3831TIP3    H232909   0.404   5.022   0.015 -0.0718  0.6585  0.1799
 3832TIP3   OH232910   2.891   0.984   4.690 -0.3454 -0.0141 -0.2939
 3832TIP3    H132911   2.948   1.045   4.642 -1.4167  1.5577  0.3319
 3832TIP3    H232912   2.804   1.000   4.653 -0.7470 -0.7609  0.3049
 3833TIP3   OH232913   1.687   5.573   3.141  0.3943  0.8543  0.0373
 3833TIP3    H132914   1.725   5.539   3.060  1.0017  1.1846  0.1793
 3833TIP3    H232915   1.754   5.557   3.207 -0.8740 -1.2928  0.9253
 3834TIP3   OH232916   4.867   2.137  11.546 -0.3340  0.2596 -0.0038
 3834TIP3    H132917   4.948   2.172  11.583  0.9299 -1.5882 -0.8451
 3834TIP3    H232918   4.816   2.109  11.623  0.6487 -0.2341  0.4825
 3835TIP3   OH232919   5.007   2.231   1.855 -0.0343  0.0409  0.1775
 3835TIP3    H132920   4.957   2.246   1.775 -3.1963  0.7712  2.1276
 3835TIP3    H232921   5.041   2.317   1.880  0.9227 -0.1803 -0.3191
 3836TIP3   OH232922   1.677   4.358  16.473  0.3531 -0.6264 -0.4151
 3836TIP3    H132923   1.740   4.428  16.486  1.1356 -0.9882 -2.0019
 3836TIP3    H232924   1.684   4.304  16.551  1.3438 -0.1581 -0.1717
 3837TIP3   OH232925   2.163   4.476   5.639 -0.2494  0.2425 -0.4538
 3837TIP3    H132926   2.195   4.565   5.625 -0.0995  0.1469 -0.7247
 3837TIP3    H232927   2.167   4.465   5.734 -0.5460  0.6256 -0.3917
 3838TIP3   OH232928   6.490   1.411  15.610  0.1620 -0.1801  0.2469
 3838TIP3    H132929   6.414   1.446  15.565  0.2800 -1.4030 -0.9834
 3838TIP3    H232930   6.454   1.350  15.674  0.0818 -0.7249 -0.3054
 3839TIP3   OH232931   2.553   5.615   1.575 -0.3670 -0.6674 -0.3657
 3839TIP3    H132932   2.622   5.681   1.575 -0.2875 -0.6987  1.4278
 3839TIP3    H232933   2.557   5.575   1.488  0.9352  0.2810 -0.7683
 3840TIP3   OH232934   3.893   2.936   1.829 -0.2925 -0.6064  0.2732
 3840TIP3    H132935   3.877   3.010   1.770 -0.5377 -1.3036 -0.5673
 3840TIP3    H232936   3.816   2.932   1.885 -0.0802  0.0361  0.6229
 3841TIP3   OH232937   2.000   3.382   3.667  0.0097 -0.3203  0.0134
 3841TIP3    H132938   1.936   3.416   3.604 -0.3413  0.9648  1.0393
 3841TIP3    H232939   1.953   3.379   3.750  1.2118  0.4640  0.7420
 3842TIP3   OH232940   2.467   1.309  15.664 -0.1879 -0.0326 -1.0166
 3842TIP3    H132941   2.397   1.349  15.715  0.3593 -1.2907  0.8573
 3842TIP3    H232942   2.431   1.224  15.639  0.5547 -0.6143 -0.1880
 3843TIP3   OH232943   3.952   5.735   5.673  0.2941  0.8369  0.1831
 3843TIP3    H132944   3.971   5.652   5.630 -1.9848  0.7307 -0.7865
 3843TIP3    H232945   4.009   5.737   5.749  2.7175 -0.1161 -1.4911
 3844TIP3   OH232946   3.543   2.133   3.712 -0.1769  0.9363  0.4462
 3844TIP3    H132947   3.465   2.152   3.660  0.0755  0.2161 -0.2079
 3844TIP3    H232948   3.515   2.064   3.773 -0.2419  1.1785  0.6909
 3845TIP3   OH232949   6.344   6.500   5.221 -0.4785  0.2786 -0.1308
 3845TIP3    H132950   6.372   6.425   5.273 -0.6733  0.4829  0.2744
 3845TIP3    H232951   6.258   6.522   5.256  0.4143  1.9480  1.1568
 3846TIP3   OH232952   1.582   0.339   1.385 -0.3950  0.2247 -0.0016
 3846TIP3    H132953   1.555   0.309   1.299 -0.6648  0.8367 -0.1276
 3846TIP3    H232954   1.534   0.282   1.446  0.8801 -1.1791 -0.2434
 3847TIP3   OH232955   2.660   6.435  13.017  0.6510  0.0659  0.2625
 3847TIP3    H132956   2.730   6.490  12.983  2.0083 -1.1490  0.9871
 3847TIP3    H232957   2.693   6.345  13.009 -0.5934 -0.5059  1.1183
 3848TIP3   OH232958   1.372   0.188  11.248 -0.2974 -0.5932 -0.6551
 3848TIP3    H132959   1.361   0.169  11.155 -0.5361  1.9724 -1.2417
 3848TIP3    H232960   1.297   0.146  11.290 -0.2029 -1.7640 -1.5953
 3849TIP3   OH232961   4.008   3.654  16.477 -0.4125 -0.6551 -0.4540
 3849TIP3    H132962   3.955   3.679  16.401 -0.1369 -0.2009 -0.4949
 3849TIP3    H232963   3.974   3.567  16.501 -1.0432 -0.4557 -0.5962
 3850TIP3   OH232964   5.442   0.424  15.999 -0.3565  0.5139  0.0756
 3850TIP3    H132965   5.375   0.356  15.996 -1.4460  1.4315  1.8114
 3850TIP3    H232966   5.465   0.430  16.092  1.4514  0.9099 -0.3525
 3851TIP3   OH232967   4.818   6.571  15.246 -0.6562  0.1178 -0.1741
 3851TIP3    H132968   4.899   6.621  15.253  0.8063 -1.8710 -1.7922
 3851TIP3    H232969   4.769   6.593  15.326  1.4307  1.4015  0.8357
 3852TIP3   OH232970   2.889   4.242   2.589  0.3009  0.1558  0.0897
 3852TIP3    H132971   2.957   4.218   2.526 -1.0541  0.2172 -1.4631
 3852TIP3    H232972   2.898   4.178   2.660  1.0741 -0.7108 -0.7608
 3853TIP3   OH232973   0.903   1.322   2.389  0.3565 -0.5870  0.2630
 3853TIP3    H132974   0.894   1.417   2.393  0.4358 -0.6253  2.6753
 3853TIP3    H232975   0.851   1.289   2.463  3.0842 -2.1563  1.6499
 3854TIP3   OH232976   2.699   1.078   1.390 -0.1310  0.1772 -0.0189
 3854TIP3    H132977   2.731   1.168   1.397 -0.3967  0.2080  0.9119
 3854TIP3    H232978   2.740   1.032   1.463 -1.5257  0.0221  0.7027
 3855TIP3   OH232979   0.653   2.140   4.464  1.1511 -0.0691 -0.2745
 3855TIP3    H132980   0.646   2.174   4.375  2.4072  0.7368 -0.0899
 3855TIP3    H232981   0.714   2.200   4.508 -0.5576  0.4221  1.5574
 3856TIP3   OH232982   1.397   6.366   2.969 -0.6599  0.2846 -0.0897
 3856TIP3    H132983   1.317   6.345   2.920 -0.2143 -0.1227 -0.6570
 3856TIP3    H232984   1.366   6.389   3.056 -1.3059 -1.3258  0.1352
 3857TIP3   OH232985   6.326   0.260   4.036 -0.1306  0.1208  0.0364
 3857TIP3    H132986   6.405   0.221   3.998 -1.2696 -1.8967 -0.4243
 3857TIP3    H232987   6.359   0.319   4.104  1.7727 -0.7049 -0.0969
 3858TIP3   OH232988   1.318   6.190  11.520  0.1159 -0.3319 -0.2648
 3858TIP3    H132989   1.305   6.193  11.426 -0.1154 -0.9699 -0.2587
 3858TIP3    H232990   1.413   6.185  11.531  0.0796 -2.1322 -0.5384
 3859TIP3   OH232991   0.647   1.731  12.373 -0.4564 -0.0448  0.0260
 3859TIP3    H132992   0.614   1.657  12.322  0.6503  0.3594 -1.3692
 3859TIP3    H232993   0.734   1.703  12.402 -0.1065  0.6238 -0.3511
 3860TIP3   OH232994   1.132   3.390  12.176  0.0239  0.1039 -0.2603
 3860TIP3    H132995   1.202   3.341  12.134  0.2287 -0.7307  1.0046
 3860TIP3    H232996   1.069   3.407  12.106  0.8766 -0.2593 -1.1281
 3861TIP3   OH232997   2.926   3.897   0.753 -0.1326  0.4382  0.0976
 3861TIP3    H132998   2.986   3.959   0.794  0.7754  1.1924 -2.1857
 3861TIP3    H232999   2.965   3.879   0.668 -2.1894 -0.5503 -0.7036
 3862TIP3   OH233000   6.355   5.212   4.257  0.2036 -0.3013  0.4027
 3862TIP3    H133001   6.395   5.133   4.221 -1.3398 -0.6113 -0.7358
 3862TIP3    H233002   6.347   5.271   4.183  1.1102  0.8557  1.1970
 3863TIP3   OH233003   5.844   5.032   5.943 -0.8535 -0.3959 -0.7397
 3863TIP3    H133004   5.757   5.045   5.981 -0.5483  2.5375 -0.8685
 3863TIP3    H233005   5.828   5.020   5.850 -1.1663 -1.2258 -0.5944
 3864TIP3   OH233006   3.576   5.274  12.309 -0.0313 -0.0508 -0.0075
 3864TIP3    H133007   3.658   5.263  12.357  0.1767 -2.8949 -0.8178
 3864TIP3    H233008   3.599   5.256  12.218 -1.6727 -2.0188 -0.1138
 3865TIP3   OH233009   6.292   5.773   4.061  0.3390 -0.5952 -0.4900
 3865TIP3    H133010   6.197   5.784   4.056  0.3326 -1.1215 -1.9188
 3865TIP3    H233011   6.324   5.802   3.976  1.4966 -0.2164  0.0582
 3866TIP3   OH233012   6.333   0.885   1.614 -0.0439  0.6689 -0.0745
 3866TIP3    H133013   6.300   0.795   1.603  0.1494  0.5187  0.5432
 3866TIP3    H233014   6.428   0.876   1.611 -0.0034  0.7274  0.9063
 3867TIP3   OH233015   0.930   0.694  15.811  0.5807  0.1629  0.1475
 3867TIP3    H133016   1.010   0.735  15.777  0.4701 -1.1822 -1.9370
 3867TIP3    H233017   0.958   0.606  15.836 -0.2571 -0.4258 -0.8900
 3868TIP3   OH233018   4.136   2.137   4.953 -0.5544 -0.1471  0.1320
 3868TIP3    H133019   4.180   2.202   4.898  0.2795 -1.0246 -0.2517
 3868TIP3    H233020   4.179   2.144   5.038 -0.2385 -0.4284 -0.0044
 3869TIP3   OH233021   0.516   2.043   1.092  0.4212 -0.0261 -0.8134
 3869TIP3    H133022   0.532   2.114   1.030  1.4623 -0.0737 -0.6250
 3869TIP3    H233023   0.601   2.000   1.101  0.1169 -0.4606  0.0979
 3870TIP3   OH233024   1.679   1.633   4.562  0.1469  0.1068 -0.0952
 3870TIP3    H133025   1.631   1.572   4.506  0.0189 -0.7468  0.9342
 3870TIP3    H233026   1.628   1.714   4.557  1.3895  0.8293 -3.0601
 3871TIP3   OH233027   1.279   0.293   5.775 -0.4732  0.0998  0.2603
 3871TIP3    H133028   1.319   0.331   5.853 -1.7293 -0.1234  1.0409
 3871TIP3    H233029   1.288   0.361   5.708  0.1920  0.4829  0.7303
 3872TIP3   OH233030   6.056   1.965  13.572 -0.3197 -0.4342  0.2780
 3872TIP3    H133031   6.112   2.016  13.630 -0.8231 -0.4185  0.7547
 3872TIP3    H233032   5.986   1.932  13.628  0.1020 -1.8272  0.0314
 3873TIP3   OH233033   0.037   1.236   6.267  0.0219  0.2254  0.0562
 3873TIP3    H133034   0.028   1.312   6.324 -0.9021  0.8486 -0.8640
 3873TIP3    H233035   0.024   1.161   6.325  2.0946  0.6711  1.2008
 3874TIP3   OH233036   4.996   4.773  14.681  0.0261  0.0575  0.4457
 3874TIP3    H133037   5.049   4.698  14.654  0.9909  0.6592  0.6314
 3874TIP3    H233038   4.918   4.734  14.722 -0.3753 -0.8383 -1.1176
 3875TIP3   OH233039   0.532   0.268   2.107  0.1792  0.3653 -0.0121
 3875TIP3    H133040   0.586   0.190   2.123  0.0131  0.3500  0.4971
 3875TIP3    H233041   0.538   0.318   2.188 -2.1818 -0.6102  0.8535
 3876TIP3   OH233042   0.870   4.584   3.614 -0.1691 -0.3436  0.2621
 3876TIP3    H133043   0.948   4.543   3.651  0.2270 -0.0933 -0.2818
 3876TIP3    H233044   0.888   4.591   3.520  0.2825  2.1082  0.4493
 3877TIP3   OH233045   6.105   5.058  16.146  0.0387 -0.5698  0.1195
 3877TIP3    H133046   6.129   5.134  16.199 -0.9129 -0.1260 -0.0511
 3877TIP3    H233047   6.093   4.987  16.209  0.6661 -0.5096  0.3089
 3878TIP3   OH233048   0.124   4.999   3.453  0.3077 -0.0130 -0.2314
 3878TIP3    H133049   0.108   5.057   3.379  1.1349 -0.7883 -1.0395
 3878TIP3    H233050   0.056   5.021   3.516 -0.7934  0.2266 -1.4777
 3879TIP3   OH233051   3.690   0.318  11.882  0.1089  0.2246  0.1982
 3879TIP3    H133052   3.717   0.385  11.819 -0.5174  1.3350  1.0667
 3879TIP3    H233053   3.628   0.363  11.939  0.4796 -0.8157  1.4617
 3880TIP3   OH233054   1.907   5.405   0.706 -0.3112  0.0539  0.1196
 3880TIP3    H133055   1.862   5.483   0.739 -2.6454 -1.4819  0.8509
 3880TIP3    H233056   1.983   5.438   0.658 -0.8053  2.7045  1.0554
 3881TIP3   OH233057   1.271   5.664   5.794 -0.6222  0.8874 -0.1131
 3881TIP3    H133058   1.206   5.722   5.753  0.0433 -0.5000 -3.5241
 3881TIP3    H233059   1.353   5.715   5.792 -0.7897  1.1925  0.5048
 3882TIP3   OH233060   6.224   0.215   5.089  0.1608 -0.1398 -0.2959
 3882TIP3    H133061   6.178   0.131   5.092  0.0884 -0.1948 -2.1362
 3882TIP3    H233062   6.266   0.222   5.175 -1.7326 -0.9484  0.7660
 3883TIP3   OH233063   4.933   2.408  16.122  0.2035 -0.3815 -0.0739
 3883TIP3    H133064   4.937   2.312  16.117 -1.2997 -0.4539 -0.2657
 3883TIP3    H233065   5.024   2.435  16.120  0.7127 -1.8520  0.8443
 3884TIP3   OH233066   3.669   2.414  16.081  0.2600 -0.1258 -0.1589
 3884TIP3    H133067   3.753   2.437  16.041 -0.4952  0.4835 -1.4678
 3884TIP3    H233068   3.604   2.430  16.012 -0.8748 -1.1911  0.6087
 3885TIP3   OH233069   3.950   2.797   5.114  0.2652  0.3454 -0.2186
 3885TIP3    H133070   3.958   2.702   5.125 -0.0745  0.1726 -1.4085
 3885TIP3    H233071   4.011   2.833   5.179  0.7952 -0.6865 -0.1163
 3886TIP3   OH233072   4.606   4.086   5.749  0.1465  0.6035 -0.0987
 3886TIP3    H133073   4.635   4.006   5.706 -0.2281  0.9949 -1.1125
 3886TIP3    H233074   4.651   4.156   5.701 -0.4695  1.0640 -0.0116
 3887TIP3   OH233075   4.292   0.664  13.008 -0.1048 -0.4475 -1.0938
 3887TIP3    H133076   4.212   0.612  13.019  0.6283 -1.8588 -2.0876
 3887TIP3    H233077   4.267   0.737  12.952 -1.2508  0.5741  0.6547
 3888TIP3   OH233078   6.340   5.940  16.179  0.2141  0.1255 -0.1947
 3888TIP3    H133079   6.424   5.902  16.154 -0.0599 -1.0182  0.5381
 3888TIP3    H233080   6.340   6.027  16.139  1.0226 -0.4955 -1.6048
 3889TIP3   OH233081   4.145   3.609  14.768 -0.3207  0.0935 -0.5631
 3889TIP3    H133082   4.100   3.610  14.684 -0.3523  1.6464 -0.5486
 3889TIP3    H233083   4.077   3.584  14.831 -0.8297  1.0069 -0.7334
 3890TIP3   OH233084   4.746   2.487   2.607 -0.0565  0.2636  0.5042
 3890TIP3    H133085   4.684   2.446   2.547  0.2015 -0.3851  0.6752
 3890TIP3    H233086   4.791   2.414   2.649  1.7434  0.6928 -0.5583
 3891TIP3   OH233087   5.201   3.821  13.589  0.3095 -0.2755 -0.2637
 3891TIP3    H133088   5.164   3.733  13.603  2.4765 -1.0740  0.8346
 3891TIP3    H233089   5.125   3.875  13.568 -1.2038 -2.2376 -0.2004
 3892TIP3   OH233090   6.681   2.834   3.556 -0.5662 -0.4806 -0.1721
 3892TIP3    H133091   6.665   2.778   3.480  1.0464 -2.3738  0.8086
 3892TIP3    H233092   6.761   2.882   3.534 -1.3313  0.6555 -0.5507
 3893TIP3   OH233093   6.784   6.479   1.818  0.1856 -0.1365 -0.7298
 3893TIP3    H133094   6.715   6.413   1.810  1.1801 -1.2120 -0.7615
 3893TIP3    H233095   6.769   6.539   1.745 -1.2096  0.1426 -0.2307
 3894TIP3   OH233096   0.992   2.283   2.910  0.1230  0.1831  0.4254
 3894TIP3    H133097   0.917   2.342   2.914  0.9033  1.3096 -0.5413
 3894TIP3    H233098   1.046   2.318   2.838  1.1655 -1.0678  0.5544
 3895TIP3   OH233099   5.751   3.491   3.101  0.1460  0.0259 -0.4611
 3895TIP3    H133100   5.790   3.422   3.155 -1.0119 -1.0915 -1.0000
 3895TIP3    H233101   5.662   3.461   3.085 -0.2063  1.3889 -1.1967
 3896TIP3   OH233102   0.406   3.876   1.801  0.0890  0.1118  0.0637
 3896TIP3    H133103   0.337   3.854   1.864  0.3012 -0.0865  0.2284
 3896TIP3    H233104   0.487   3.873   1.852  0.1007  1.5564  0.1696
 3897TIP3   OH233105   5.214   0.929   3.886 -0.3963 -0.8511 -0.1991
 3897TIP3    H133106   5.198   0.924   3.981  0.9949 -1.1385  0.0504
 3897TIP3    H233107   5.308   0.947   3.879 -0.5929 -0.2401 -1.5294
 3898TIP3   OH233108   3.473   2.856  14.844  0.0332  0.3770  0.0201
 3898TIP3    H133109   3.387   2.897  14.834  0.3592  0.6583 -1.9830
 3898TIP3    H233110   3.454   2.763  14.857 -0.6035  0.7061  1.7999
 3899TIP3   OH233111   1.258   6.137  10.427 -0.0795 -0.4301  0.1924
 3899TIP3    H133112   1.263   6.104  10.517 -0.9370 -2.0379 -0.3091
 3899TIP3    H233113   1.174   6.182  10.422  0.6288  0.9785  0.5847
 3900TIP3   OH233114   4.246   4.218  11.583  0.1092  0.2667  0.3269
 3900TIP3    H133115   4.323   4.257  11.542 -1.2059  0.4974 -2.1119
 3900TIP3    H233116   4.248   4.251  11.673  1.4345  2.3815 -0.3910
 3901TIP3   OH233117   1.960   0.874  11.983 -0.3101 -0.6320  0.0352
 3901TIP3    H133118   1.897   0.805  11.964  0.5115 -1.1336 -1.0549
 3901TIP3    H233119   1.914   0.935  12.039 -1.0946 -2.0284  0.9740
 3902TIP3   OH233120   1.504   4.363   3.097  0.0276  0.0232  0.0049
 3902TIP3    H133121   1.471   4.378   3.186 -0.2322  2.7803 -0.4650
 3902TIP3    H233122   1.426   4.362   3.042  0.2055 -1.4740 -0.2562
 3903TIP3   OH233123   5.950   2.622   1.799 -0.0263  0.9959 -0.1591
 3903TIP3    H133124   6.008   2.653   1.729  1.2000 -0.4568  0.1656
 3903TIP3    H233125   5.964   2.684   1.870 -0.4459  1.8403 -0.7856
 3904TIP3   OH233126   2.342   3.004   3.072 -0.1623  0.0533  0.8089
 3904TIP3    H133127   2.269   2.942   3.073 -0.7485  0.7285  1.2268
 3904TIP3    H233128   2.314   3.073   3.132  0.0429  1.1984 -0.3780
 3905TIP3   OH233129   1.885   3.281   4.056  0.9169 -0.3471  0.5014
 3905TIP3    H133130   1.919   3.209   4.003 -0.7531 -1.2059  0.5337
 3905TIP3    H233131   1.914   3.360   4.012 -0.3336 -1.0289 -1.6837
 3906TIP3   OH233132   4.023   4.913  12.990 -0.7447  0.2175 -0.3373
 3906TIP3    H133133   3.987   5.001  12.998 -0.9775 -0.0429  3.0567
 3906TIP3    H233134   3.947   4.856  12.980 -0.5813  0.3341 -2.7910
 3907TIP3   OH233135   0.304   0.171  14.646  0.2376 -0.3503 -0.3753
 3907TIP3    H133136   0.303   0.152  14.553  2.0020 -1.7779 -0.1544
 3907TIP3    H233137   0.380   0.124  14.680  1.0675  2.0594  1.3954
 3908TIP3   OH233138   0.398   5.674  13.632  0.5180 -0.2195  0.0275
 3908TIP3    H133139   0.477   5.630  13.663  0.3740 -0.6341 -0.1878
 3908TIP3    H233140   0.327   5.612  13.649  0.0649  0.6185  1.3098
 3909TIP3   OH233141   6.399   2.788  13.281 -0.2097 -0.0371 -0.2597
 3909TIP3    H133142   6.359   2.730  13.346 -0.8817  1.2518  0.5073
 3909TIP3    H233143   6.335   2.859  13.269  1.5191  1.7398  0.5097
 3910TIP3   OH233144   3.324   6.700   5.209 -0.6121 -0.2150 -0.4184
 3910TIP3    H133145   3.400   6.671   5.159  0.9371  1.5377  0.7736
 3910TIP3    H233146   3.324   6.645   5.287 -1.1997 -0.9007 -0.8936
 3911TIP3   OH233147   6.544   3.987   4.589  0.3097  0.3699 -0.2309
 3911TIP3    H133148   6.465   4.037   4.611  0.2073 -0.8723  2.7215
 3911TIP3    H233149   6.586   3.971   4.674  2.6321 -0.8361 -1.5104
 3912TIP3   OH233150   5.392   0.040   0.947  0.2788  0.1463  0.0343
 3912TIP3    H133151   5.416   0.133   0.950 -0.4266  0.3356  0.0728
 3912TIP3    H233152   5.359   0.021   1.035 -0.5668  0.1429 -0.2737
 3913TIP3   OH233153   1.749   4.594   5.601 -0.2905 -0.1362  0.0027
 3913TIP3    H133154   1.806   4.562   5.670  0.6481  0.9637 -0.2387
 3913TIP3    H233155   1.697   4.662   5.642  0.3003  0.5521 -0.3617
 3914TIP3   OH233156   3.778   1.327   5.837  0.4205  0.9607 -0.2672
 3914TIP3    H133157   3.777   1.260   5.906  2.3132  2.2823  1.1856
 3914TIP3    H233158   3.829   1.288   5.766  0.1949  0.3136 -0.0782
 3915TIP3   OH233159   2.914   0.576   4.177 -0.3800 -0.7262  0.3323
 3915TIP3    H133160   2.969   0.501   4.199  1.1009 -0.2284 -1.4365
 3915TIP3    H233161   2.929   0.591   4.084 -3.4721 -0.4721 -0.2496
 3916TIP3   OH233162   1.568   1.554   2.170 -0.0308 -0.2838  0.2634
 3916TIP3    H133163   1.553   1.648   2.176 -0.1529 -0.2062 -1.0069
 3916TIP3    H233164   1.658   1.546   2.141 -0.3620 -0.5225 -0.7241
 3917TIP3   OH233165   4.237   5.148  13.401  0.4412  0.4295 -0.2649
 3917TIP3    H133166   4.261   5.057  13.380 -3.0420 -1.8457  3.8366
 3917TIP3    H233167   4.314   5.184  13.445  1.6426 -0.7435 -1.3123
 3918TIP3   OH233168   5.656   1.903   0.082  0.7928 -0.2455  0.1476
 3918TIP3    H133169   5.731   1.924   0.026  1.3219 -0.5056  0.7438
 3918TIP3    H233170   5.695   1.881   0.167 -0.0882  1.7565  1.1274
 3919TIP3   OH233171   3.481   0.509  14.150 -0.2246 -0.1265 -0.1072
 3919TIP3    H133172   3.520   0.586  14.108 -0.4946  0.2156  0.2563
 3919TIP3    H233173   3.395   0.539  14.178 -0.8747 -0.9521 -1.1495
 3920TIP3   OH233174   1.174   1.003   2.104  0.2144 -0.2329 -0.2041
 3920TIP3    H133175   1.154   0.920   2.148  2.1051  0.4610  2.1514
 3920TIP3    H233176   1.238   0.980   2.037  0.5119 -0.7261  0.2414
 3921TIP3   OH233177   1.481   6.684  14.693 -0.4524  0.0095  0.4558
 3921TIP3    H133178   1.529   6.758  14.731 -1.7325  1.2501 -0.2136
 3921TIP3    H233179   1.394   6.689  14.732 -0.3183 -1.6993  1.0409
 3922TIP3   OH233180   1.671   6.586  13.069  0.4056  0.1862  0.2703
 3922TIP3    H133181   1.623   6.639  13.133  1.6442 -0.1084  1.4984
 3922TIP3    H233182   1.758   6.626  13.065  1.0646 -1.1548  0.5111
 3923TIP3   OH233183   4.009   0.309   0.257 -0.2418 -0.0079 -0.2871
 3923TIP3    H133184   4.065   0.318   0.179  0.6910  0.1276  0.3797
 3923TIP3    H233185   4.020   0.218   0.284  0.4356  0.2693  0.4054
 3924TIP3   OH233186   5.318   3.596   4.359 -0.0616 -0.2078 -0.2868
 3924TIP3    H133187   5.366   3.528   4.312  0.1930 -1.5509  1.7629
 3924TIP3    H233188   5.382   3.667   4.370  0.1680 -0.2806 -1.0989
 3925TIP3   OH233189   1.289   0.487  15.255 -0.3646 -0.0351  0.2612
 3925TIP3    H133190   1.267   0.565  15.305 -3.3975  0.6030 -1.7886
 3925TIP3    H233191   1.208   0.462  15.212  2.0170 -0.0119 -4.9900
 3926TIP3   OH233192   4.601   4.808   4.974 -0.9084  0.3186 -0.4861
 3926TIP3    H133193   4.606   4.890   4.926 -0.7010  1.3185  1.1868
 3926TIP3    H233194   4.666   4.817   5.044 -1.2957 -1.0387  0.0818
 3927TIP3   OH233195   5.172   4.204  14.447 -0.0333  0.2968  0.6632
 3927TIP3    H133196   5.095   4.162  14.487  0.6068 -3.7648 -1.8655
 3927TIP3    H233197   5.232   4.219  14.520 -2.8513  3.3013  2.6691
 3928TIP3   OH233198   4.302   0.334  11.390  0.1158 -0.4305 -0.1527
 3928TIP3    H133199   4.295   0.278  11.467 -3.2610 -0.8501 -0.6039
 3928TIP3    H233200   4.299   0.273  11.316  0.5296  0.1273 -0.6344
 3929TIP3   OH233201   6.051   3.674  11.155  0.0372 -0.0207 -0.0068
 3929TIP3    H133202   6.135   3.632  11.171 -0.7310 -1.5546  0.0977
 3929TIP3    H233203   6.058   3.707  11.065  1.7184  2.3237  0.8698
 3930TIP3   OH233204   5.249   1.055   0.404  0.3461  0.3818 -0.2236
 3930TIP3    H133205   5.217   1.105   0.479 -0.3602  0.7807 -0.7809
 3930TIP3    H233206   5.239   0.964   0.430 -1.7169  0.4669 -0.5373
 3931TIP3   OH233207   3.791   5.721  16.158  0.6538  0.1307 -0.0253
 3931TIP3    H133208   3.713   5.670  16.138 -0.0131  0.5285  1.4512
 3931TIP3    H233209   3.786   5.797  16.101 -1.3255  1.3651  1.6693
 3932TIP3   OH233210   5.345   4.615  17.076 -0.2170  0.0415  0.0502
 3932TIP3    H133211   5.310   4.704  17.066  0.4896  0.2268 -1.0192
 3932TIP3    H233212   5.415   4.610  17.011  0.5199 -0.9249  0.8888
 3933TIP3   OH233213   2.047   3.696  15.296  0.3414  0.8721 -0.3141
 3933TIP3    H133214   2.052   3.680  15.390  1.6802 -1.1753 -0.6828
 3933TIP3    H233215   2.124   3.652  15.260 -1.7430 -1.1145 -2.7144
 3934TIP3   OH233216   5.039   2.971  14.625 -0.3141  0.1435 -0.2376
 3934TIP3    H133217   4.964   2.947  14.679  0.1081 -0.0748  0.2616
 3934TIP3    H233218   5.080   3.044  14.672  0.7582 -0.8374  0.3949
 3935TIP3   OH233219   5.990   4.997   3.751  0.2542 -0.8857  0.8765
 3935TIP3    H133220   5.988   4.969   3.659  1.8746  0.6369  0.3242
 3935TIP3    H233221   6.061   4.946   3.789 -0.9346 -2.1082  1.5407
 3936TIP3   OH233222   6.254   1.694   5.561  0.2267  0.1357 -0.6807
 3936TIP3    H133223   6.330   1.746   5.535  1.6385  0.4751  3.3850
 3936TIP3    H233224   6.288   1.605   5.573  0.3031  0.4154  1.7889
 3937TIP3   OH233225   1.599   2.245   5.091 -0.0112  0.2092 -0.4192
 3937TIP3    H133226   1.649   2.167   5.065 -0.2657  0.1259 -0.6670
 3937TIP3    H233227   1.578   2.288   5.008 -0.6586  0.0500 -0.3392
 3938TIP3   OH233228   0.203   3.050  10.815  0.0751  0.0730 -0.3610
 3938TIP3    H133229   0.122   3.080  10.774  0.9436  0.8641 -1.5837
 3938TIP3    H233230   0.175   2.994  10.888 -1.5452  0.0337 -0.9862
 3939TIP3   OH233231   3.002   0.362  13.895 -0.1294  0.0391 -0.6043
 3939TIP3    H133232   3.095   0.361  13.915 -0.0335  1.7559 -0.7534
 3939TIP3    H233233   2.962   0.302  13.958  0.9935 -0.2019 -0.1069
 3940TIP3   OH233234   3.419   2.300  15.646 -0.4344  0.0074 -0.0719
 3940TIP3    H133235   3.347   2.277  15.705  0.1155 -3.5806 -0.5372
 3940TIP3    H233236   3.390   2.268  15.560  2.0982 -2.9018 -0.0168
 3941TIP3   OH233237   1.516   5.310  17.030 -0.1302  0.4455 -0.6681
 3941TIP3    H133238   1.504   5.217  17.007 -3.4838 -0.0304  2.1285
 3941TIP3    H233239   1.432   5.350  17.008  0.7388  2.5167 -0.3883
 3942TIP3   OH233240   6.567   5.825   4.313 -0.2171 -0.0490  0.3404
 3942TIP3    H133241   6.516   5.744   4.309 -2.0453  1.0995 -1.0255
 3942TIP3    H233242   6.575   5.843   4.407  1.6331 -2.5759  0.7715
 3943TIP3   OH233243   2.028   1.049   1.442 -0.2592  0.3290  0.1264
 3943TIP3    H133244   2.040   1.094   1.358 -1.7459  1.5736  0.5373
 3943TIP3    H233245   2.095   1.086   1.499 -0.6971  1.1387  0.1184
 3944TIP3   OH233246   5.528   2.863  13.386 -0.1056  0.1017 -0.1401
 3944TIP3    H133247   5.612   2.856  13.340  1.0593  0.3628  1.8304
 3944TIP3    H233248   5.514   2.775  13.423  0.1929  0.5133  0.9804
 3945TIP3   OH233249   0.042   0.808   5.693 -0.1390 -0.7413 -0.2267
 3945TIP3    H133250   0.035   0.898   5.724 -1.2638 -0.2367 -1.8029
 3945TIP3    H233251   0.011   0.754   5.767  1.6117  0.0225  1.1447
 3946TIP3   OH233252   6.140   1.531  13.396  0.5301  0.2771 -0.3306
 3946TIP3    H133253   6.199   1.469  13.353  1.4312  1.5106 -0.9309
 3946TIP3    H233254   6.180   1.617  13.380 -0.4700  0.9840  0.8200
 3947TIP3   OH233255   3.718   1.238   0.674  0.6821 -0.7824 -0.2488
 3947TIP3    H133256   3.679   1.194   0.599  0.2810 -1.7809  0.5248
 3947TIP3    H233257   3.803   1.268   0.643  0.9287 -2.0231 -0.8360
 3948TIP3   OH233258   4.595   1.408   3.657 -0.2369  0.4730  0.2826
 3948TIP3    H133259   4.526   1.347   3.682 -1.4603  1.9435  0.6508
 3948TIP3    H233260   4.631   1.438   3.740  0.1736  0.4650  0.1108
 3949TIP3   OH233261   4.450   4.338   4.084 -0.2581 -0.2719  0.5210
 3949TIP3    H133262   4.400   4.419   4.078  0.6674  0.2954  0.4279
 3949TIP3    H233263   4.541   4.364   4.072 -0.1158 -1.6285 -1.8987
 3950TIP3   OH233264   0.144   6.514  12.409  0.1748  0.6174 -0.3788
 3950TIP3    H133265   0.189   6.542  12.330 -0.2665  0.4377 -0.7005
 3950TIP3    H233266   0.077   6.453  12.378  0.2530  0.2408  0.1733
 3951TIP3   OH233267   1.652   2.627   4.557 -0.3833 -0.8888  0.0944
 3951TIP3    H133268   1.652   2.592   4.468  0.9709  1.5971 -0.9985
 3951TIP3    H233269   1.565   2.664   4.569 -0.3934 -0.7448 -0.4237
 3952TIP3   OH233270   3.982   4.780   3.902 -0.0307 -0.5444  0.1670
 3952TIP3    H133271   3.889   4.800   3.907  0.4624  2.0515  0.3588
 3952TIP3    H233272   4.006   4.752   3.991 -0.6119 -1.3508  0.0815
 3953TIP3   OH233273   6.247   1.042   5.333 -0.3670  0.4526 -0.4100
 3953TIP3    H133274   6.191   1.042   5.255 -1.6148 -0.6323  0.4482
 3953TIP3    H233275   6.279   1.132   5.339  2.1954  0.0134 -3.8095
 3954TIP3   OH233276   6.728   4.550  12.611 -0.6346 -0.7855 -0.3024
 3954TIP3    H133277   6.729   4.635  12.654  1.4976 -0.5170 -0.7946
 3954TIP3    H233278   6.636   4.523  12.614 -1.4755  1.7850 -0.6668
 3955TIP3   OH233279   5.251   4.698  15.322  0.6749 -0.0517 -0.0324
 3955TIP3    H133280   5.237   4.793  15.326  1.6363  0.0796  0.6823
 3955TIP3    H233281   5.218   4.672  15.236  0.8512  1.0101 -0.4323
 3956TIP3   OH233282   3.376   0.074   2.694 -0.0912 -0.6068  0.8014
 3956TIP3    H133283   3.391  -0.002   2.751  0.0718 -1.2103 -0.0313
 3956TIP3    H233284   3.359   0.146   2.755  1.5710 -0.9015  1.6694
 3957TIP3   OH233285   4.022   1.050   5.368  0.2592 -0.5767  0.5921
 3957TIP3    H133286   4.042   1.060   5.275  1.9692 -1.1427  0.8647
 3957TIP3    H233287   3.930   1.074   5.375  0.9377  2.9694 -0.6713
 3958TIP3   OH233288   5.831   6.387  12.594  0.0658 -0.4057  0.2291
 3958TIP3    H133289   5.823   6.351  12.506  0.2824  0.4964 -0.1715
 3958TIP3    H233290   5.764   6.342  12.645 -0.5970 -0.3747 -0.5919
 3959TIP3   OH233291   3.604   6.357  12.630 -0.2220  0.0982  0.3557
 3959TIP3    H133292   3.645   6.442  12.649 -0.8011  0.3230  0.6306
 3959TIP3    H233293   3.673   6.293  12.645  0.2459  0.5225  0.0805
 3960TIP3   OH233294   1.788   3.507  11.635  0.4218  0.2087 -0.4398
 3960TIP3    H133295   1.820   3.458  11.711 -0.3008  0.0469 -0.2308
 3960TIP3    H233296   1.699   3.473  11.620 -0.2121  1.6450 -0.1135
 3961TIP3   OH233297   0.626   5.636  13.301  0.5155 -0.3928 -0.0754
 3961TIP3    H133298   0.591   5.633  13.212  0.9559 -0.3287 -0.2499
 3961TIP3    H233299   0.715   5.603  13.293  0.5032 -0.5441  0.3701
 3962TIP3   OH233300   2.147   5.075  13.129 -0.1700 -0.1718 -0.4771
 3962TIP3    H133301   2.081   5.015  13.095  0.6085 -1.3124 -0.0665
 3962TIP3    H233302   2.100   5.128  13.194 -0.6742 -1.0474 -0.0988
 3963TIP3   OH233303   3.816   3.789   1.743 -0.5413  0.8690  0.0186
 3963TIP3    H133304   3.774   3.705   1.723  1.2377 -0.5507  1.8685
 3963TIP3    H233305   3.743   3.848   1.762 -1.8143 -1.0351  1.4615
 3964TIP3   OH233306   4.565   0.683   3.200 -0.1947  0.1717 -0.2290
 3964TIP3    H133307   4.553   0.681   3.295 -2.2312 -1.5464 -0.4591
 3964TIP3    H233308   4.494   0.737   3.167  0.9875  1.4627 -0.7766
 3965TIP3   OH233309   3.858   4.520   5.481  0.3947  0.0386 -0.3910
 3965TIP3    H133310   3.836   4.430   5.506 -0.4465  0.5513  0.7701
 3965TIP3    H233311   3.918   4.549   5.549 -0.1957  0.7101 -0.1448
 3966TIP3   OH233312   3.744   6.287  14.140  0.1222  0.2587 -0.0169
 3966TIP3    H133313   3.755   6.202  14.184  0.7017 -0.5679 -1.6868
 3966TIP3    H233314   3.752   6.351  14.210 -0.7581 -1.0697  1.3683
 3967TIP3   OH233315   6.419   4.569  13.667  0.0043  0.2259 -0.2760
 3967TIP3    H133316   6.377   4.635  13.612 -0.1087 -0.4726 -1.0422
 3967TIP3    H233317   6.378   4.486  13.641  1.6737 -0.4427 -0.8796
 3968TIP3   OH233318   5.094   5.655   2.246  0.3661 -0.3664 -0.4189
 3968TIP3    H133319   5.124   5.732   2.293 -1.2190  0.0487 -0.0179
 3968TIP3    H233320   5.173   5.603   2.231  1.4605  1.2850 -0.6470
 3969TIP3   OH233321   5.741   2.066   5.295  0.0936 -0.5099 -0.2365
 3969TIP3    H133322   5.736   2.082   5.201 -1.0897 -0.9843 -0.2696
 3969TIP3    H233323   5.653   2.037   5.319 -0.2235  1.5749  1.3763
 3970TIP3   OH233324   5.072   3.521   5.200 -0.0176 -0.4408  0.2678
 3970TIP3    H133325   5.043   3.598   5.152 -0.3552 -1.8190 -1.8898
 3970TIP3    H233326   5.003   3.505   5.264 -0.9043 -0.0028 -0.5436
 3971TIP3   OH233327   2.773   6.201   5.530 -0.5192 -0.7074 -0.4074
 3971TIP3    H133328   2.825   6.269   5.486 -0.7201 -0.0731  0.3185
 3971TIP3    H233329   2.743   6.243   5.611 -2.2558 -1.0140 -0.8620
 3972TIP3   OH233330   4.627   6.202   1.519  0.0830  0.4891 -0.3878
 3972TIP3    H133331   4.627   6.216   1.613 -2.3164  1.7234 -0.4970
 3972TIP3    H233332   4.696   6.259   1.486  0.4072  0.6525  0.5596
 3973TIP3   OH233333   4.775   3.321  16.349 -0.4155 -0.1249  0.4479
 3973TIP3    H133334   4.752   3.228  16.356 -1.9793  0.2902  1.1396
 3973TIP3    H233335   4.775   3.352  16.440 -0.4275  0.6776  0.1811
 3974TIP3   OH233336   4.424   3.632  15.015  0.2126 -0.2551 -0.2054
 3974TIP3    H133337   4.339   3.670  15.039  1.0530  2.8793 -1.6938
 3974TIP3    H233338   4.402   3.561  14.955 -1.3920  0.6723 -0.7739
 3975TIP3   OH233339   3.111   6.392   4.084 -0.6895 -0.0137  0.2430
 3975TIP3    H133340   3.102   6.298   4.103 -1.0108 -0.3853 -1.6211
 3975TIP3    H233341   3.082   6.434   4.165  2.9930 -1.4609  2.5741
 3976TIP3   OH233342   3.265   2.528   6.039  0.7515  0.1963  0.5141
 3976TIP3    H133343   3.342   2.472   6.035  1.2157  0.6368  2.3314
 3976TIP3    H233344   3.240   2.528   6.131 -1.1831  0.4157  0.0445
 3977TIP3   OH233345   6.148   0.449   3.936  0.0180  0.1420 -0.4240
 3977TIP3    H133346   6.212   0.382   3.960 -0.9661 -0.4567  0.6693
 3977TIP3    H233347   6.131   0.435   3.843  1.1169  0.0124 -0.6130
 3978TIP3   OH233348   0.592   1.102  15.439  0.5155  0.4425 -0.7742
 3978TIP3    H133349   0.597   1.011  15.469 -2.8440  0.9611  2.0542
 3978TIP3    H233350   0.656   1.148  15.494  0.6544  0.1058 -0.6483
 3979TIP3   OH233351   2.740   2.357   4.680 -0.0536 -0.3050  0.1131
 3979TIP3    H133352   2.688   2.288   4.721  1.9991 -0.6693  2.3044
 3979TIP3    H233353   2.734   2.431   4.740  1.6244 -0.2463  0.2555
 3980TIP3   OH233354   1.366   6.778  12.076  0.2867  0.3390  0.3355
 3980TIP3    H133355   1.318   6.764  12.157 -1.2289  0.9997 -0.4122
 3980TIP3    H233356   1.315   6.733  12.009 -0.8426  3.2096 -0.9267
 3981TIP3   OH233357   3.455   2.300  16.437  0.1447  0.2718  0.3469
 3981TIP3    H133358   3.447   2.271  16.528  0.3208  1.5321  0.7872
 3981TIP3    H233359   3.401   2.378  16.432 -0.9912 -0.5617 -1.0267
 3982TIP3   OH233360   3.026   1.460   2.252 -0.0835  0.4699  0.0673
 3982TIP3    H133361   3.020   1.368   2.226 -0.8639  0.5595 -0.1068
 3982TIP3    H233362   2.971   1.506   2.188 -1.0599  0.8428  1.1436
 3983TIP3   OH233363   6.700   3.176  10.482 -0.2006 -0.2281 -0.3079
 3983TIP3    H133364   6.692   3.080  10.478  1.4018 -0.4452  0.8371
 3983TIP3    H233365   6.687   3.197  10.574 -0.7256  0.6985 -0.5835
 3984TIP3   OH233366   1.380   1.722  13.809 -1.1027 -0.5550  0.7651
 3984TIP3    H133367   1.448   1.736  13.875 -1.1785  1.6988  0.4669
 3984TIP3    H233368   1.416   1.655  13.751  1.1977  0.9405  0.2993
 3985TIP3   OH233369   5.642   1.349   5.710 -0.3963  0.1216 -0.1768
 3985TIP3    H133370   5.568   1.290   5.697  1.2952 -1.9091 -1.0478
 3985TIP3    H233371   5.705   1.298   5.761  0.5069  1.7305  0.3833
 3986TIP3   OH233372   4.998   6.640  11.096  0.0192 -0.5201  0.7479
 3986TIP3    H133373   5.069   6.632  11.032 -1.4030  0.0058 -0.9852
 3986TIP3    H233374   5.021   6.717  11.148 -0.0979  0.7014 -0.9319
 3987TIP3   OH233375   5.686   2.297  12.534 -0.4120 -0.1060  0.2705
 3987TIP3    H133376   5.624   2.321  12.602 -0.5451 -0.4224  0.2602
 3987TIP3    H233377   5.662   2.208  12.509 -0.4347  0.0422 -0.2647
 3988TIP3   OH233378   2.156   4.175   2.853  0.2234  0.0007  0.1140
 3988TIP3    H133379   2.064   4.163   2.827 -0.2126  1.6374  0.7774
 3988TIP3    H233380   2.205   4.117   2.794 -1.3492 -2.4977  1.0867
 3989TIP3   OH233381   3.893   6.470   1.001 -0.8429 -0.5707 -0.2944
 3989TIP3    H133382   3.910   6.556   0.962 -1.2697 -1.0758 -1.6440
 3989TIP3    H233383   3.977   6.424   0.994  0.4015  0.7698  3.4158
 3990TIP3   OH233384   3.160   1.194   5.269  0.6170 -0.1666 -0.4349
 3990TIP3    H133385   3.124   1.216   5.355 -0.8518  1.3677 -1.3746
 3990TIP3    H233386   3.089   1.149   5.224  1.4722 -1.2169 -0.7652
 3991TIP3   OH233387   2.758   3.883   2.846  0.0705  0.0564 -0.4650
 3991TIP3    H133388   2.830   3.926   2.799 -0.2999  0.4973 -0.6339
 3991TIP3    H233389   2.752   3.796   2.807  0.1339  0.2232 -0.8484
 3992TIP3   OH233390   2.609   6.335  15.681 -0.3667  0.1247 -0.6488
 3992TIP3    H133391   2.602   6.427  15.705  1.4683 -0.0818  0.8932
 3992TIP3    H233392   2.684   6.303  15.731 -1.3510 -2.3667 -0.6456
 3993TIP3   OH233393   0.182   3.500   4.396  0.0466  0.4049  0.1972
 3993TIP3    H133394   0.186   3.413   4.357 -1.7772 -0.0710  0.9771
 3993TIP3    H233395   0.105   3.541   4.356 -0.1789  0.9776  1.1997
 3994TIP3   OH233396   6.714   0.509  16.859 -0.0149  0.0342  0.5469
 3994TIP3    H133397   6.742   0.451  16.930  1.6381 -0.7478 -0.6900
 3994TIP3    H233398   6.761   0.591  16.874 -1.5624  0.7595  1.7064
 3995TIP3   OH233399   2.933   5.859  13.418  0.2771  0.2812 -0.1314
 3995TIP3    H133400   3.016   5.891  13.384  0.8735 -0.6218  0.4231
 3995TIP3    H233401   2.869   5.926  13.394  1.0321  0.6523 -1.1887
 3996TIP3   OH233402   6.083   3.350   0.699 -0.5175 -0.0113  0.3806
 3996TIP3    H133403   6.115   3.271   0.653  2.3875  1.8389 -1.0983
 3996TIP3    H233404   6.013   3.383   0.643  1.8471  1.2717 -2.0848
 3997TIP3   OH233405   4.991   6.645   0.416  0.7318  0.3363 -0.0905
 3997TIP3    H133406   4.939   6.581   0.464  4.0309 -2.2118  0.4347
 3997TIP3    H233407   5.080   6.610   0.417  2.5358  4.2664 -1.0457
 3998TIP3   OH233408   4.261   4.769  14.815 -0.5694  0.0625 -0.3071
 3998TIP3    H133409   4.329   4.754  14.880  1.3799  0.4866 -2.1576
 3998TIP3    H233410   4.274   4.859  14.786 -1.4647 -0.0770 -1.2116
 3999TIP3   OH233411   2.907   3.163   4.123  0.1396 -0.5822 -0.0695
 3999TIP3    H133412   2.822   3.163   4.077 -1.0321 -0.7618  1.9820
 3999TIP3    H233413   2.929   3.070   4.131  0.5680 -0.5332 -0.6427
 4000TIP3   OH233414   4.677   0.952  13.283  0.0164  0.1361  0.7519
 4000TIP3    H133415   4.673   1.002  13.364  1.7480  1.8495 -0.1308
 4000TIP3    H233416   4.757   0.900  13.290 -0.4932 -0.6735  0.6553
 4001TIP3   OH233417   0.910   0.538   1.716 -0.1079 -0.5277  0.4542
 4001TIP3    H133418   0.998   0.576   1.708 -0.3922  0.4189  1.4671
 4001TIP3    H233419   0.924   0.455   1.763  0.2979 -0.6161  0.1802
 4002TIP3   OH233420   0.575   6.724   0.202 -0.0323 -0.3340  0.1907
 4002TIP3    H133421   0.490   6.767   0.185  0.1786  0.1453  0.3235
 4002TIP3    H233422   0.632   6.758   0.133  0.2469 -0.0802  0.5439
 4003TIP3   OH233423   3.503   2.627  14.521 -0.7053 -0.3000 -0.1665
 4003TIP3    H133424   3.532   2.552  14.573 -0.8724  1.5250  2.7723
 4003TIP3    H233425   3.410   2.612  14.506 -0.8967 -0.3733  1.0265
 4004TIP3   OH233426   3.116   1.595  13.282 -0.0582 -0.1152 -0.2680
 4004TIP3    H133427   3.165   1.665  13.325  0.2849  1.8517 -3.5222
 4004TIP3    H233428   3.178   1.522  13.277 -0.0820 -0.3906  2.2860
 4005TIP3   OH233429   2.576   4.628   1.803  0.1986 -0.5614 -0.1478
 4005TIP3    H133430   2.646   4.563   1.800  0.7637 -0.0836  1.5932
 4005TIP3    H233431   2.514   4.600   1.736  1.4842 -1.6565 -0.9142
 4006TIP3   OH233432   0.884   0.230  16.589 -0.1392  0.2815  0.0372
 4006TIP3    H133433   0.842   0.289  16.527 -0.0556  1.6080  1.1860
 4006TIP3    H233434   0.969   0.271  16.608  0.0533 -0.3638  0.6241
 4007TIP3   OH233435   5.844   1.779  11.150 -0.0787  0.2716 -0.5879
 4007TIP3    H133436   5.834   1.757  11.243  0.4630 -2.7020 -1.1201
 4007TIP3    H233437   5.938   1.788  11.138 -0.0566 -0.4524 -1.0233
 4008TIP3   OH233438   1.830   3.456  16.472 -0.2883  0.1586  0.7110
 4008TIP3    H133439   1.834   3.372  16.427 -0.9041  1.2985 -1.6212
 4008TIP3    H233440   1.922   3.483  16.481 -0.1665  0.2603 -0.6399
 4009TIP3   OH233441   3.919   3.704  12.678  0.3134 -0.1555  0.1271
 4009TIP3    H133442   3.860   3.725  12.751  0.2414  1.9055 -0.4589
 4009TIP3    H233443   3.871   3.642  12.625 -0.3109 -0.3974  0.9579
 4010TIP3   OH233444   0.588   3.502   1.769 -0.2420 -0.0473  0.2265
 4010TIP3    H133445   0.676   3.535   1.749  0.9316 -2.6412  0.7484
 4010TIP3    H233446   0.566   3.542   1.853  0.7157  0.1222  0.4045
 4011TIP3   OH233447   2.640   4.227  16.082 -0.0325  0.2790 -0.3256
 4011TIP3    H133448   2.588   4.298  16.045 -1.0470  1.5810  3.1840
 4011TIP3    H233449   2.590   4.148  16.062 -1.4419  1.1185 -0.2242
 4012TIP3   OH233450   0.656   2.079  16.642  0.5619 -0.5540  0.9774
 4012TIP3    H133451   0.629   2.009  16.582  0.4243 -0.1308  0.5380
 4012TIP3    H233452   0.594   2.149  16.626  2.1445  0.6156 -0.3814
 4013TIP3   OH233453   1.536   4.310   2.419 -0.0427 -0.0652  0.1145
 4013TIP3    H133454   1.488   4.372   2.364  0.1654 -0.3666 -0.4040
 4013TIP3    H233455   1.467   4.253   2.456  0.0236 -1.7375 -2.1491
 4014TIP3   OH233456   0.917   2.997  11.503 -0.4984  0.0082  0.4802
 4014TIP3    H133457   0.831   2.999  11.462 -1.0786  1.1417  1.6653
 4014TIP3    H233458   0.971   3.056  11.451  0.2721 -2.2911 -1.5652
 4015TIP3   OH233459   2.406   3.001   1.406  0.4155  0.3361  0.1513
 4015TIP3    H133460   2.324   2.960   1.379  0.0528  1.3937 -0.4202
 4015TIP3    H233461   2.427   3.062   1.336  1.5135  0.3448  0.4634
 4016TIP3   OH233462   2.030   5.113  11.649 -0.1082  0.0172 -0.2767
 4016TIP3    H133463   1.987   5.188  11.608 -0.6874  0.1836  0.6119
 4016TIP3    H233464   2.065   5.062  11.575 -1.2389  0.2352 -0.9819
 4017TIP3   OH233465   6.524   1.840   0.414 -0.0515 -0.1858  0.1005
 4017TIP3    H133466   6.449   1.782   0.402 -0.1797 -0.0680  0.3066
 4017TIP3    H233467   6.600   1.788   0.388 -0.3655  0.3199 -2.0024
 4018TIP3   OH233468   1.978   4.171  16.225  0.1131 -0.5166 -0.4328
 4018TIP3    H133469   2.005   4.251  16.271 -3.4513  1.5363 -1.4779
 4018TIP3    H233470   2.045   4.158  16.158  2.1764 -0.0223  1.4343
 4019TIP3   OH233471   4.991   5.118   4.864 -0.2374  0.4280 -0.1238
 4019TIP3    H133472   4.942   5.122   4.782  1.3319  0.9294 -1.0902
 4019TIP3    H233473   5.076   5.080   4.839 -0.3654 -1.1817  1.6210
 4020TIP3   OH233474   0.339   5.947   3.684  0.0058 -0.1469 -0.0564
 4020TIP3    H133475   0.377   6.014   3.627 -3.0778  1.4403 -0.4336
 4020TIP3    H233476   0.310   5.878   3.624 -0.5729  0.1407 -0.1104
 4021TIP3   OH233477   2.596   5.519  13.556 -0.0102 -0.0578 -0.2598
 4021TIP3    H133478   2.553   5.468  13.487  0.6820 -0.2499 -0.5623
 4021TIP3    H233479   2.643   5.587  13.509  0.0681  0.1096  0.0593
 4022TIP3   OH233480   3.631   5.533   3.211  0.0881 -0.6391 -0.0588
 4022TIP3    H133481   3.604   5.481   3.287 -0.7339  0.6357  0.5581
 4022TIP3    H233482   3.670   5.612   3.248  0.9627 -0.6149 -0.9788
 4023TIP3   OH233483   1.752   5.632   2.222  0.2268  0.0378 -0.6274
 4023TIP3    H133484   1.689   5.579   2.271  0.2528  0.6533  0.0884
 4023TIP3    H233485   1.751   5.717   2.265  0.3764  0.5528 -1.5989
 4024TIP3   OH233486   2.383   2.027  16.307 -0.0442 -0.8884 -0.1450
 4024TIP3    H133487   2.444   2.014  16.380  0.0026 -2.0743 -0.3789
 4024TIP3    H233488   2.432   2.081  16.245  0.8074 -1.8697 -0.3484
 4025TIP3   OH233489   6.296   1.423   4.324 -0.4600  0.4544 -0.3161
 4025TIP3    H133490   6.293   1.370   4.245  0.9887 -3.0581  1.7661
 4025TIP3    H233491   6.389   1.428   4.345 -0.8396  1.0940  1.3137
 4026TIP3   OH233492   4.854   1.089  16.076 -0.3311  0.2159 -0.2899
 4026TIP3    H133493   4.850   1.179  16.109  1.2174  0.5457 -0.9128
 4026TIP3    H233494   4.947   1.065  16.082 -0.7551 -1.4543  0.1242
 4027TIP3   OH233495   1.419   4.769  13.455 -0.5223 -0.2885  0.3995
 4027TIP3    H133496   1.386   4.851  13.493  1.0677 -0.0480  1.3820
 4027TIP3    H233497   1.407   4.780  13.361  0.0964  1.3323  0.4613
 4028TIP3   OH233498   4.325   4.183  10.331 -0.1129  0.5386 -0.1101
 4028TIP3    H133499   4.398   4.196  10.270 -0.1684  0.2997 -0.2303
 4028TIP3    H233500   4.303   4.090  10.322  0.7724  0.1606  1.2819
 4029TIP3   OH233501   6.155   1.582  15.584 -0.1333 -0.5979  0.2199
 4029TIP3    H133502   6.097   1.590  15.508  0.1052 -0.5260  0.0467
 4029TIP3    H233503   6.172   1.672  15.611 -1.0513 -0.6439  0.9921
 4030TIP3   OH233504   2.550   0.330   2.455 -0.2922 -0.1710 -0.0242
 4030TIP3    H133505   2.619   0.318   2.389 -1.5061  0.7214 -1.5189
 4030TIP3    H233506   2.590   0.300   2.537  1.5351 -0.5847 -1.0081
 4031TIP3   OH233507   5.253   5.579   1.668  0.3949  0.1432 -0.1772
 4031TIP3    H133508   5.217   5.557   1.754  3.1787 -0.2174  0.9999
 4031TIP3    H233509   5.345   5.600   1.685  1.2775 -0.7910 -3.1845
 4032TIP3   OH233510   4.653   2.031  10.943 -0.3182  0.0042  0.0192
 4032TIP3    H133511   4.646   2.025  10.848 -0.7269 -0.1179  0.0540
 4032TIP3    H233512   4.729   2.087  10.958 -1.6388  2.0074 -0.4127
 4033TIP3   OH233513   0.044   4.164   3.892 -0.5682 -0.0521  0.8474
 4033TIP3    H133514   0.038   4.074   3.925  0.5468 -0.0163  1.1944
 4033TIP3    H233515   0.007   4.218   3.963  0.5014 -0.0951  1.4565
 4034TIP3   OH233516   6.006   5.755   1.843  0.1269 -0.2932 -0.5117
 4034TIP3    H133517   6.051   5.788   1.765 -1.1237 -0.8460 -1.5215
 4034TIP3    H233518   5.926   5.807   1.848 -0.4242 -1.1281 -0.3779
 4035TIP3   OH233519   2.675   4.437   5.556  0.5251  0.3900 -0.0111
 4035TIP3    H133520   2.627   4.516   5.532  0.8713  0.2007 -1.4456
 4035TIP3    H233521   2.628   4.402   5.632  0.5630  2.1118  0.8496
 4036TIP3   OH233522   5.245   3.637  16.604  0.4700 -0.0685  0.0131
 4036TIP3    H133523   5.196   3.702  16.554  1.4403  1.3389  0.8335
 4036TIP3    H233524   5.323   3.620  16.552  0.5875 -0.0072  0.1706
 4037TIP3   OH233525   1.190   2.376  12.548 -0.2292 -0.4147  0.0855
 4037TIP3    H133526   1.280   2.351  12.568  0.1800  1.9120  1.5817
 4037TIP3    H233527   1.195   2.418  12.462 -0.2395 -1.8659 -0.6442
 4038TIP3   OH233528   2.653   1.739  14.487 -0.6231 -0.1910  0.1981
 4038TIP3    H133529   2.568   1.704  14.460 -0.1753 -0.6899 -0.6025
 4038TIP3    H233530   2.709   1.662  14.495 -0.5080  0.0256  1.7666
 4039TIP3   OH233531   5.546   2.109  16.009  0.2392 -0.4141  0.0828
 4039TIP3    H133532   5.510   2.040  15.954 -0.4736 -0.7454  0.9491
 4039TIP3    H233533   5.502   2.189  15.979 -0.1589 -0.5942  0.1937
 4040TIP3   OH233534   1.032   2.398  12.910  0.1140 -0.3779  0.1646
 4040TIP3    H133535   0.993   2.335  12.970  1.8000  0.9985  2.9026
 4040TIP3    H233536   1.124   2.402  12.936  1.0026  0.1840 -2.7001
 4041TIP3   OH233537   2.218   1.407   3.141  0.2933 -0.5651 -0.4098
 4041TIP3    H133538   2.295   1.439   3.188  0.1110  0.1267 -0.5672
 4041TIP3    H233539   2.235   1.314   3.125  0.9742 -0.4725 -0.2186
 4042TIP3   OH233540   6.414   4.000  10.909  0.1651 -0.7134  0.2131
 4042TIP3    H133541   6.432   3.990  10.816  0.0447  2.3044 -0.2084
 4042TIP3    H233542   6.324   3.968  10.920 -0.6786  1.0479 -1.1898
 4043TIP3   OH233543   4.876   3.658   5.444  0.3060  0.1122  0.4588
 4043TIP3    H133544   4.850   3.567   5.461 -1.9131  0.9483  2.0132
 4043TIP3    H233545   4.971   3.656   5.443  0.3436 -2.4639 -1.0329
 4044TIP3   OH233546   2.567   5.757   6.640 -0.0098 -0.8234  0.4791
 4044TIP3    H133547   2.510   5.834   6.654 -1.4606 -1.4989 -1.2306
 4044TIP3    H233548   2.646   5.793   6.601 -1.1748 -0.2172 -1.5016
 4045TIP3   OH233549   6.224   3.996  14.389  0.3472  0.0671 -0.0847
 4045TIP3    H133550   6.275   3.926  14.347 -0.0434  0.4106 -1.1680
 4045TIP3    H233551   6.167   3.951  14.450  0.4982 -0.5084 -0.3641
 4046TIP3   OH233552   1.192   4.952   1.894 -0.1751  0.1940 -0.0837
 4046TIP3    H133553   1.222   4.994   1.975  1.8814 -0.3731 -0.4811
 4046TIP3    H233554   1.141   4.877   1.924 -0.4321  0.6547  0.6676
 4047TIP3   OH233555   4.779   4.373  12.732  0.1377 -0.0426 -0.3074
 4047TIP3    H133556   4.698   4.396  12.777 -0.3433 -0.0126 -1.1603
 4047TIP3    H233557   4.784   4.277  12.738  0.4559  0.0148  0.4275
 4048TIP3   OH233558   5.687   1.000   2.692  0.0034  0.3030 -0.4624
 4048TIP3    H133559   5.660   1.091   2.681 -0.2393  0.5191  1.5218
 4048TIP3    H233560   5.688   0.987   2.787 -1.4979 -2.2229 -0.7140
 4049TIP3   OH233561   2.330   0.032   0.766  0.1108  0.6091  0.3002
 4049TIP3    H133562   2.290   0.093   0.828 -0.1709  1.9741 -1.1559
 4049TIP3    H233563   2.257   0.002   0.712  0.7930  2.2879 -1.6953
 4050TIP3   OH233564   5.929   2.492   4.317  0.2011 -0.0626 -0.1610
 4050TIP3    H133565   5.879   2.524   4.392  0.0313 -0.9064  0.1017
 4050TIP3    H233566   5.881   2.415   4.287 -0.8194  1.3184 -2.3693
 4051TIP3   OH233567   3.636   5.850  17.032 -0.0013 -0.5368  0.1076
 4051TIP3    H133568   3.721   5.874  17.067 -0.2110  1.6234 -0.7434
 4051TIP3    H233569   3.575   5.913  17.070 -1.1615 -1.7286  0.3115
 4052TIP3   OH233570   6.170   4.745   0.260  0.6282  0.2104  0.8281
 4052TIP3    H133571   6.122   4.673   0.301  0.5410  0.0894  0.5181
 4052TIP3    H233572   6.261   4.727   0.280  1.1498 -2.4336 -2.8363
 4053TIP3   OH233573   2.073   1.907  12.629 -0.2777 -0.3292  0.0426
 4053TIP3    H133574   2.065   1.811  12.628 -0.0931 -0.3908  1.6212
 4053TIP3    H233575   2.165   1.923  12.608 -0.0771 -0.5629  0.7037
 4054TIP3   OH233576   2.792   1.872   5.234  0.1454  0.0212  0.5087
 4054TIP3    H133577   2.758   1.961   5.226  1.5802  0.4709 -1.4824
 4054TIP3    H233578   2.714   1.817   5.235 -0.7752  1.2655  1.7882
 4055TIP3   OH233579   0.913   4.637   4.959 -0.3813  0.0827  0.6806
 4055TIP3    H133580   0.928   4.672   5.047  0.1116  1.2819  0.1459
 4055TIP3    H233581   0.962   4.555   4.957 -0.6947 -0.1390  1.6345
 4056TIP3   OH233582   3.279   0.937  11.024  0.1294 -0.6430 -0.3744
 4056TIP3    H133583   3.315   0.853  10.996  1.2738 -0.1544 -0.4223
 4056TIP3    H233584   3.330   1.002  10.976 -1.1983  0.0825 -0.8748
 4057TIP3   OH233585   0.611   5.470  13.724  0.4371  0.3352  0.6912
 4057TIP3    H133586   0.625   5.398  13.663 -0.8493 -0.2187  1.0049
 4057TIP3    H233587   0.693   5.518  13.724  0.5875  0.1447 -1.2003
 4058TIP3   OH233588   2.371   3.149   5.013  0.3102  0.0330 -0.8305
 4058TIP3    H133589   2.414   3.092   4.949 -1.0390 -3.5963  1.2022
 4058TIP3    H233590   2.426   3.144   5.091  0.5508  2.2363 -0.8060
 4059TIP3   OH233591   5.311   0.307  11.144  1.0719  0.4611  0.1442
 4059TIP3    H133592   5.348   0.375  11.088  1.0737  0.1506 -0.2357
 4059TIP3    H233593   5.233   0.276  11.096  2.4043 -1.5079 -0.9028
 4060TIP3   OH233594   1.938   1.483  11.673  0.0304 -0.7032 -0.1842
 4060TIP3    H133595   1.859   1.488  11.727  0.3840  1.7752  0.2093
 4060TIP3    H233596   1.996   1.424  11.721 -0.8379 -1.0024  0.5306
 4061TIP3   OH233597   3.371   6.500   1.437 -0.0620  0.9345 -0.1203
 4061TIP3    H133598   3.449   6.513   1.492  0.3253  1.2924 -0.7341
 4061TIP3    H233599   3.326   6.584   1.439 -0.8409  0.5079  0.8302
 4062TIP3   OH233600   3.628   2.602  13.342 -0.6052  0.2004 -0.0815
 4062TIP3    H133601   3.623   2.564  13.254  1.1866  1.3783 -0.7458
 4062TIP3    H233602   3.625   2.527  13.401  0.5851 -0.8071 -1.2499
 4063TIP3   OH233603   3.352   1.125   4.936  0.2591  0.0914  0.1529
 4063TIP3    H133604   3.339   1.212   4.975  0.7218  0.3003 -0.1479
 4063TIP3    H233605   3.265   1.086   4.935  0.1383  0.3261  0.8161
 4064TIP3   OH233606   1.758   2.283   0.650 -0.3366  0.0979  0.0067
 4064TIP3    H133607   1.712   2.307   0.730 -0.7619  0.9684 -0.4905
 4064TIP3    H233608   1.818   2.356   0.633 -0.9780  0.4133 -1.0172
 4065TIP3   OH233609   5.875   0.582  13.403  0.1475  0.7490 -0.1138
 4065TIP3    H133610   5.909   0.529  13.331  0.1394  1.9007 -0.9978
 4065TIP3    H233611   5.780   0.582  13.390  0.1055  0.5721  0.1837
 4066TIP3   OH233612   0.598   1.228   3.537 -0.8158  0.1099 -0.4403
 4066TIP3    H133613   0.689   1.231   3.509 -0.5278  1.8901  0.5422
 4066TIP3    H233614   0.560   1.155   3.488  0.4251  1.0823 -3.0358
 4067TIP3   OH233615   2.652   2.117   0.286 -0.7494  0.1474 -0.0117
 4067TIP3    H133616   2.673   2.045   0.344 -0.1140  0.1840 -0.1884
 4067TIP3    H233617   2.737   2.151   0.258 -1.0427  0.3302 -0.7110
 4068TIP3   OH233618   2.081   4.355  16.415  0.4594  0.4429 -0.1084
 4068TIP3    H133619   2.173   4.375  16.431  0.4786  1.0696 -0.9135
 4068TIP3    H233620   2.046   4.330  16.501  1.3516  0.2827  0.2172
 4069TIP3   OH233621   3.818   4.420   0.476 -0.3569  0.2213 -0.0600
 4069TIP3    H133622   3.864   4.468   0.407 -0.9546  1.0030  0.0697
 4069TIP3    H233623   3.779   4.344   0.431 -1.6431  1.2901 -0.8168
 4070TIP3   OH233624   4.933   3.567   4.429 -0.5955  0.4824 -0.1056
 4070TIP3    H133625   4.901   3.622   4.358 -2.4567  0.9991  1.0726
 4070TIP3    H233626   4.933   3.624   4.506  2.0618  0.1475  0.2334
 4071TIP3   OH233627   6.605   3.957   3.951 -0.9008 -0.0808  0.4339
 4071TIP3    H133628   6.584   4.031   4.008 -2.6141 -0.9719  1.0640
 4071TIP3    H233629   6.561   3.977   3.868 -1.5823 -0.4804  0.6887
 4072TIP3   OH233630   5.558   4.181  14.916  0.0102 -0.5731 -0.7142
 4072TIP3    H133631   5.598   4.125  14.982  0.4468  2.3530  1.7135
 4072TIP3    H233632   5.465   4.179  14.935  0.1562  0.4233  0.2044
 4073TIP3   OH233633   5.714   1.056  16.907  0.1445  0.0166  0.0432
 4073TIP3    H133634   5.751   1.110  16.978  0.2144  2.3298 -1.6339
 4073TIP3    H233635   5.791   1.023  16.861  0.1024 -0.2289  0.1497
 4074TIP3   OH233636   5.589   4.010  11.517  0.0774 -0.2781 -1.0026
 4074TIP3    H133637   5.539   3.974  11.443 -0.3250 -0.8071 -0.4850
 4074TIP3    H233638   5.523   4.044  11.577  0.3445 -0.6610 -0.4757
 4075TIP3   OH233639   0.417   0.417   3.137 -0.0095  0.3209 -0.0610
 4075TIP3    H133640   0.468   0.365   3.198 -1.1855  0.3362  0.9621
 4075TIP3    H233641   0.416   0.505   3.174  1.7485  1.0804 -1.6463
 4076TIP3   OH233642   5.369   3.250  12.051  0.0573 -0.0396  0.1251
 4076TIP3    H133643   5.318   3.174  12.023  0.7369 -0.9559  1.3042
 4076TIP3    H233644   5.459   3.219  12.052  0.3568  0.8156  0.5062
 4077TIP3   OH233645   1.414   4.033  15.148  0.4778 -0.1626 -0.1471
 4077TIP3    H133646   1.484   3.999  15.203  1.0089  0.9760 -0.0898
 4077TIP3    H233647   1.335   3.990  15.180  0.9209 -0.2341  0.8809
 4078TIP3   OH233648   1.825   0.076   5.151  0.1426  0.1273  0.2179
 4078TIP3    H133649   1.811   0.117   5.066  0.2269  1.8131  0.9835
 4078TIP3    H233650   1.778  -0.007   5.146  0.1597  0.1964 -1.4679
 4079TIP3   OH233651   4.825   2.035   4.310  0.1203  0.3889  0.3641
 4079TIP3    H133652   4.859   2.035   4.220  1.2660  0.0913  0.7840
 4079TIP3    H233653   4.730   2.035   4.299  0.2105 -1.6742 -0.8834
 4080TIP3   OH233654   1.659   2.926   2.917 -0.1798 -0.2300  0.7618
 4080TIP3    H133655   1.608   2.846   2.931  0.6805 -1.3446 -1.8263
 4080TIP3    H233656   1.746   2.905   2.950 -0.1093 -0.1417  0.6349
 4081TIP3   OH233657   5.139   4.686  11.461 -0.0521 -0.1423  0.3545
 4081TIP3    H133658   5.218   4.637  11.485  0.5470  1.0616  0.9259
 4081TIP3    H233659   5.081   4.676  11.537 -1.0281 -2.0791 -0.5574
 4082TIP3   OH233660   5.821   4.794  13.789  0.2993 -0.0607 -0.3651
 4082TIP3    H133661   5.841   4.793  13.695  0.6436  2.8222 -0.4089
 4082TIP3    H233662   5.726   4.786  13.793  0.4005 -1.9573 -0.8115
 4083TIP3   OH233663   5.187   3.017   1.383  0.3129 -0.4932  0.2988
 4083TIP3    H133664   5.278   3.031   1.409 -0.1875  0.8713  1.5103
 4083TIP3    H233665   5.137   3.062   1.451 -1.2381 -0.5170 -0.7882
 4084TIP3   OH233666   2.982   1.731  16.470  0.3824 -0.5293  0.2300
 4084TIP3    H133667   3.036   1.670  16.419  1.6734 -0.9949  2.0413
 4084TIP3    H233668   3.023   1.732  16.556 -2.4792 -0.8102  1.6826
 4085TIP3   OH233669   2.818   1.777  11.636 -0.1830 -0.0966  0.5293
 4085TIP3    H133670   2.868   1.786  11.718  1.7596 -1.7749 -0.3675
 4085TIP3    H233671   2.845   1.852  11.583  1.0812 -0.6967  0.2635
 4086TIP3   OH233672   2.143   5.826  16.138  0.1865  0.0957 -0.4994
 4086TIP3    H133673   2.062   5.776  16.139 -0.1390  0.6232  0.1892
 4086TIP3    H233674   2.125   5.902  16.193  0.2778  1.5959 -2.3971
 4087TIP3   OH233675   0.713   5.263   3.947  0.2142 -0.5220  0.0765
 4087TIP3    H133676   0.632   5.251   3.897  0.0351 -0.7442  0.4164
 4087TIP3    H233677   0.706   5.200   4.019  1.6833 -2.1400 -1.1244
 4088TIP3   OH233678   3.713   2.426  16.578 -0.0924 -0.8538  0.7874
 4088TIP3    H133679   3.705   2.465  16.490  0.3797 -0.7077  0.8085
 4088TIP3    H233680   3.763   2.345  16.564 -1.1167 -1.4956  0.7355
 4089TIP3   OH233681   6.357   1.274   5.847 -0.2305  0.0354  0.8084
 4089TIP3    H133682   6.429   1.336   5.832 -0.5358  0.6932  1.9080
 4089TIP3    H233683   6.400   1.191   5.864  0.1958 -0.0472 -0.5520
 4090TIP3   OH233684   2.366   6.071  16.074  0.7365  0.5425 -0.0494
 4090TIP3    H133685   2.277   6.105  16.080  0.7514  0.3623  1.7804
 4090TIP3    H233686   2.360   5.997  16.015 -0.1016  1.2089 -0.8261
 4091TIP3   OH233687   6.722   2.236   5.227  0.1851  0.1910 -0.2451
 4091TIP3    H133688   6.802   2.252   5.277  1.4769 -1.3413 -1.6858
 4091TIP3    H233689   6.706   2.318   5.180 -0.1396  1.0998  1.3599
 4092TIP3   OH233690   1.359   2.557  11.663  0.1276 -0.0745 -0.4955
 4092TIP3    H133691   1.427   2.558  11.731 -0.2459  0.5781 -0.1224
 4092TIP3    H233692   1.391   2.494  11.598  1.3432  0.5835 -0.5680
 4093TIP3   OH233693   5.160   6.069   5.165 -0.2510  0.2867  0.6773
 4093TIP3    H133694   5.175   5.976   5.178 -1.6254  0.1615  1.4716
 4093TIP3    H233695   5.079   6.074   5.114 -0.6889  1.0531  1.4188
 4094TIP3   OH233696   1.557   5.577  12.917 -0.0331  0.0490  0.7146
 4094TIP3    H133697   1.500   5.544  12.847  0.3706  0.2855  0.2708
 4094TIP3    H233698   1.562   5.671  12.900  1.4372 -0.1257  0.0459
 4095TIP3   OH233699   2.284   6.523   1.429  0.1099  0.6648  0.0670
 4095TIP3    H133700   2.266   6.438   1.470 -2.3780  1.1838  0.2197
 4095TIP3    H233701   2.379   6.525   1.420  0.3016 -1.8823  0.5857
 4096TIP3   OH233702   0.713   1.282  15.610 -0.1602 -0.2612  0.1045
 4096TIP3    H133703   0.766   1.263  15.688 -1.0667  1.4395  1.1994
 4096TIP3    H233704   0.741   1.369  15.582 -0.6763 -0.3598 -0.7713
 4097TIP3   OH233705   1.950   4.393   0.127 -0.1813  0.2130  0.1738
 4097TIP3    H133706   2.023   4.356   0.078  0.3422  0.5165  0.7145
 4097TIP3    H233707   1.988   4.420   0.210 -0.7027  1.2716  0.0841
 4098TIP3   OH233708   2.965   5.293  13.312  0.6051 -0.6597 -0.4201
 4098TIP3    H133709   2.933   5.208  13.343 -0.2878 -0.0822  0.2804
 4098TIP3    H233710   2.888   5.336  13.275  0.9412  0.0362 -0.3294
 4099TIP3   OH233711   5.449   4.659  11.919 -0.0223 -0.3073 -0.3110
 4099TIP3    H133712   5.410   4.742  11.947 -2.0730 -1.0804 -0.7340
 4099TIP3    H233713   5.445   4.603  11.996 -3.2099 -1.5604 -1.2502
 4100TIP3   OH233714   4.189   2.755  16.887 -0.1321  0.0735 -0.2215
 4100TIP3    H133715   4.140   2.732  16.965 -0.0065 -1.5688 -0.5972
 4100TIP3    H233716   4.181   2.850  16.881 -1.8039  0.0293  0.6851
 4101TIP3   OH233717   5.890   5.279   0.064 -0.6857 -0.0648 -0.6891
 4101TIP3    H133718   5.822   5.336   0.029 -0.3235  0.7990 -0.0370
 4101TIP3    H233719   5.887   5.201   0.009 -2.7384 -0.4068 -0.1838
 4102TIP3   OH233720   0.721   4.505  12.932 -0.1730 -0.0467  0.0575
 4102TIP3    H133721   0.812   4.478  12.949  1.1383  3.8242  0.1411
 4102TIP3    H233722   0.687   4.529  13.019 -0.2063  1.2907 -0.3029
 4103TIP3   OH233723   6.462   6.053  15.189 -0.2837 -0.4298  0.4818
 4103TIP3    H133724   6.523   5.986  15.220  0.3786  0.0525  0.2418
 4103TIP3    H233725   6.518   6.125  15.162 -0.9429 -0.1882 -0.2531
 4104TIP3   OH233726   2.919   2.727   2.332  0.2581  0.3084  0.2364
 4104TIP3    H133727   2.833   2.720   2.372  0.0259  0.5409 -0.2189
 4104TIP3    H233728   2.978   2.683   2.394 -0.3760 -1.0231 -0.0712
 4105TIP3   OH233729   4.000   6.435  15.806 -0.1561 -0.6435 -0.0434
 4105TIP3    H133730   4.068   6.370  15.790  0.0304 -0.0929 -1.7124
 4105TIP3    H233731   3.955   6.444  15.722  0.2138  1.7973 -0.0445
 4106TIP3   OH233732   2.590   2.019  12.939 -0.0640  0.2941  0.5562
 4106TIP3    H133733   2.499   2.042  12.921  0.6334  1.9616 -1.1346
 4106TIP3    H233734   2.632   2.101  12.965  0.8452 -0.5722  2.0414
 4107TIP3   OH233735   0.227   0.449   1.254  0.2966 -0.4651 -0.2776
 4107TIP3    H133736   0.307   0.467   1.303  1.1780 -1.7824 -1.1920
 4107TIP3    H233737   0.247   0.371   1.202 -0.8941  0.3641 -2.0689
 4108TIP3   OH233738   0.476   1.042  15.919 -0.1925  0.1428 -0.1807
 4108TIP3    H133739   0.441   1.012  16.003 -2.5848  1.6458 -0.5305
 4108TIP3    H233740   0.452   0.973  15.857  4.2218 -2.4957  0.6462
 4109TIP3   OH233741   6.245   4.263   3.418 -0.0683 -0.7007  0.0314
 4109TIP3    H133742   6.196   4.340   3.389  1.5546 -0.7823 -3.3769
 4109TIP3    H233743   6.179   4.208   3.461 -1.9645  1.1155 -0.3537
 4110TIP3   OH233744   3.941   5.673   0.907 -0.4514  0.3656 -0.2731
 4110TIP3    H133745   3.999   5.666   0.983  1.2703  2.8078 -1.2192
 4110TIP3    H233746   3.962   5.759   0.869 -0.7013 -1.0365 -3.9509
 4111TIP3   OH233747   4.697   0.791   1.473 -0.0398 -0.3745 -0.3427
 4111TIP3    H133748   4.607   0.820   1.463  0.0808  1.2578  2.3086
 4111TIP3    H233749   4.691   0.716   1.532  0.4179  0.9756  1.4912
 4112TIP3   OH233750   2.452   4.486  12.795  0.1279 -1.0274 -0.0918
 4112TIP3    H133751   2.423   4.422  12.730 -2.7756  0.0132  0.0099
 4112TIP3    H233752   2.384   4.553  12.794  1.2104  0.2315  2.3456
 4113TIP3   OH233753   0.519   2.563   4.231  0.6929 -0.0143  0.2887
 4113TIP3    H133754   0.499   2.516   4.150 -1.4917  2.7511 -0.9469
 4113TIP3    H233755   0.439   2.556   4.283  0.4919  1.7981  0.2860
 4114TIP3   OH233756   1.662   3.914   4.822 -0.4574  0.4252 -0.1515
 4114TIP3    H133757   1.615   3.997   4.832  0.2064  0.5431  3.1955
 4114TIP3    H233758   1.737   3.922   4.882  0.5480 -1.9944 -0.9626
 4115TIP3   OH233759   4.887   2.724   2.454 -0.3293  0.9837 -0.0488
 4115TIP3    H133760   4.830   2.687   2.387  0.9433  1.2661 -1.3276
 4115TIP3    H233761   4.861   2.680   2.535 -0.1454 -1.3077 -1.1757
 4116TIP3   OH233762   3.085   1.394   6.376  0.5368 -0.1048 -0.1375
 4116TIP3    H133763   3.086   1.478   6.421 -1.0387  0.9542 -1.9461
 4116TIP3    H233764   3.137   1.408   6.297 -1.5054 -0.1013 -1.5548
 4117TIP3   OH233765   2.086   0.177  10.585  0.3063 -0.0536  0.1805
 4117TIP3    H133766   2.010   0.231  10.605 -0.1413 -0.0424 -1.3677
 4117TIP3    H233767   2.097   0.186  10.490  0.7820 -1.9420  0.0104
 4118TIP3   OH233768   3.595   0.368  15.806  0.3032 -0.7965 -0.2228
 4118TIP3    H133769   3.681   0.383  15.767 -0.1089  0.0182 -0.8423
 4118TIP3    H233770   3.602   0.405  15.894  0.9016 -1.6657  0.1009
 4119TIP3   OH233771   3.978   2.329   6.056 -0.5321  0.0805  0.5458
 4119TIP3    H133772   4.041   2.396   6.031 -1.7855  0.9916 -0.2348
 4119TIP3    H233773   3.973   2.335   6.152 -0.0939  0.5866  0.5389
 4120TIP3   OH233774   5.451   1.761   1.192 -0.5547 -0.5300  0.0772
 4120TIP3    H133775   5.415   1.805   1.116 -0.2408 -0.9462 -0.3172
 4120TIP3    H233776   5.491   1.681   1.157  1.1935  0.1521  0.4304
 4121TIP3   OH233777   1.446   3.067  15.075 -0.1429  0.2373  0.0292
 4121TIP3    H133778   1.391   3.144  15.089 -0.7244 -0.1889  0.1460
 4121TIP3    H233779   1.384   2.998  15.053  0.0554 -0.8306  2.4436
 4122TIP3   OH233780   0.297   4.492  15.444 -0.0198 -0.6134  0.3501
 4122TIP3    H133781   0.233   4.438  15.490 -1.2411  0.6945  0.2434
 4122TIP3    H233782   0.349   4.531  15.514  0.1235 -1.0185  0.4746
 4123TIP3   OH233783   2.177   5.523   4.493 -0.3120 -0.8349 -0.3528
 4123TIP3    H133784   2.227   5.511   4.413  0.7054 -0.4502  0.2013
 4123TIP3    H233785   2.093   5.482   4.476 -1.0905  1.4342 -2.5361
 4124TIP3   OH233786   6.336   0.027   4.622 -0.3793 -0.2177  0.5005
 4124TIP3    H133787   6.399   0.080   4.671  0.1661 -1.2627  0.9551
 4124TIP3    H233788   6.263   0.015   4.683 -0.6939  0.3654  0.2423
 4125TIP3   OH233789   4.657   0.095  14.560 -0.1874  0.2751  0.1591
 4125TIP3    H133790   4.567   0.127  14.557  0.1955  1.3507  0.0254
 4125TIP3    H233791   4.684   0.107  14.651  0.3927  1.5790 -0.1690
 4126TIP3   OH233792   3.584   4.464   3.242  0.9862 -0.0397 -0.6365
 4126TIP3    H133793   3.552   4.486   3.154  2.3159 -1.8429 -1.6373
 4126TIP3    H233794   3.597   4.549   3.284 -0.5748  0.8459 -1.8233
 4127TIP3   OH233795   4.810   0.679  13.535 -0.6797 -0.0336  0.1927
 4127TIP3    H133796   4.747   0.736  13.579 -0.3977  0.1636  0.3486
 4127TIP3    H233797   4.820   0.718  13.448  1.5067  1.7678  1.1505
 4128TIP3   OH233798   5.990   6.034   2.369 -0.6440  0.6538 -0.4304
 4128TIP3    H133799   6.041   6.113   2.350  0.5517  0.0815  0.3250
 4128TIP3    H233800   6.029   5.966   2.315 -0.4139  0.1402  0.3781
 4129TIP3   OH233801   0.080   6.794   5.176  0.2566  0.4780  0.5022
 4129TIP3    H133802   0.155   6.793   5.116  1.4318  1.3291  1.9062
 4129TIP3    H233803   0.113   6.753   5.256 -1.1725 -0.2755  0.7464
 4130TIP3   OH233804   1.388   2.294   5.262 -0.7796  0.0892 -0.2362
 4130TIP3    H133805   1.387   2.390   5.256 -1.4173  0.0691 -0.5338
 4130TIP3    H233806   1.426   2.266   5.179  2.9017  0.1464  1.2188
 4131TIP3   OH233807   2.782   4.292   3.156  0.2398  0.5112  0.3230
 4131TIP3    H133808   2.713   4.349   3.190  0.8053  1.1022  0.5020
 4131TIP3    H233809   2.753   4.267   3.069 -0.1685  0.8043  0.3748
 4132TIP3   OH233810   0.882   1.271  12.366 -0.0294  0.2799 -0.2278
 4132TIP3    H133811   0.875   1.295  12.273  2.7902  0.5925 -0.4660
 4132TIP3    H233812   0.976   1.277  12.384 -0.4737 -0.1443  2.5756
 4133TIP3   OH233813   3.660   4.869   0.574 -0.2305 -0.0486  0.2127
 4133TIP3    H133814   3.728   4.920   0.529  1.4962 -0.2460  2.4469
 4133TIP3    H233815   3.578   4.912   0.549  0.8499  1.3426 -1.1302
 4134TIP3   OH233816   5.157   0.771  16.507 -0.0383 -0.4592  0.2046
 4134TIP3    H133817   5.226   0.816  16.459  0.0840 -0.3886  0.4402
 4134TIP3    H233818   5.112   0.717  16.442  1.3597 -1.8935  0.3685
 4135TIP3   OH233819   4.625   6.609  14.754  0.0135 -0.1203  0.1638
 4135TIP3    H133820   4.655   6.562  14.832  0.9610 -0.4493 -0.3834
 4135TIP3    H233821   4.546   6.655  14.782  1.8742  2.1205  2.1401
 4136TIP3   OH233822   5.968   5.971   3.345 -0.7399 -0.2902  0.1563
 4136TIP3    H133823   6.016   6.028   3.405 -0.0449 -0.2433 -0.4405
 4136TIP3    H233824   5.893   6.023   3.317 -1.3892 -0.5049  1.4011
 4137TIP3   OH233825   0.881   1.636  16.706 -0.4615 -0.3451  0.6054
 4137TIP3    H133826   0.961   1.680  16.677  0.6614 -2.8705 -0.5354
 4137TIP3    H233827   0.888   1.548  16.667 -3.4142 -0.9148  1.1719
 4138TIP3   OH233828   6.656   1.522   1.023 -0.1825  0.0511  0.4014
 4138TIP3    H133829   6.587   1.521   0.957  0.3805  0.7133 -0.2047
 4138TIP3    H233830   6.730   1.563   0.980 -0.2511  1.8391  1.8906
 4139TIP3   OH233831   5.173   3.753  12.529 -0.2178  0.4311  0.0066
 4139TIP3    H133832   5.234   3.809  12.481 -0.6077  1.6773  0.9075
 4139TIP3    H233833   5.170   3.791  12.617 -2.6888  0.7446 -0.1528
 4140TIP3   OH233834   1.712   1.514  11.820 -0.2022 -0.7531 -0.6229
 4140TIP3    H133835   1.651   1.491  11.890 -1.0264 -0.1176 -1.1097
 4140TIP3    H233836   1.656   1.542  11.748  0.6452 -0.9466 -1.3825
 4141TIP3   OH233837   2.914   1.296   0.794 -0.0604  0.2154  0.1688
 4141TIP3    H133838   2.988   1.237   0.809  0.9287  1.1909 -0.7256
 4141TIP3    H233839   2.902   1.296   0.699 -2.1172 -0.9649  0.3469
 4142TIP3   OH233840   0.899   3.231  11.063  0.4191  0.3529 -0.1827
 4142TIP3    H133841   0.811   3.266  11.078  0.1512  0.1073 -1.1065
 4142TIP3    H233842   0.937   3.290  10.998 -0.0091 -0.9767 -1.7080
 4143TIP3   OH233843   1.194   6.350  12.901  0.0921 -0.1614  0.3686
 4143TIP3    H133844   1.195   6.259  12.932  0.7379  0.2572  1.6279
 4143TIP3    H233845   1.280   6.385  12.926 -1.1301  1.5983  2.3908
 4144TIP3   OH233846   5.728   0.105  10.685 -0.0390 -0.0384 -0.1228
 4144TIP3    H133847   5.659   0.046  10.714 -1.2141  0.5307 -1.6145
 4144TIP3    H233848   5.808   0.053  10.690 -1.0220 -1.7701 -1.3350
 4145TIP3   OH233849   1.523   0.949   4.871 -0.2119  0.6197 -0.2445
 4145TIP3    H133850   1.497   0.891   4.942 -0.6501 -0.6510 -1.3778
 4145TIP3    H233851   1.449   1.008   4.860 -0.3651  0.4788  0.0291
 4146TIP3   OH233852   0.657   1.656   0.547  0.1388 -0.1357  0.0582
 4146TIP3    H133853   0.641   1.680   0.638  2.7035 -1.0243  0.8355
 4146TIP3    H233854   0.606   1.576   0.534 -0.2338 -0.0127  0.7113
 4147TIP3   OH233855   2.211   0.211   3.326 -0.9175 -0.0034  0.2631
 4147TIP3    H133856   2.146   0.279   3.306 -0.5699  0.2144 -0.1552
 4147TIP3    H233857   2.250   0.191   3.241  1.9602  2.3192  0.8865
 4148TIP3   OH233858   5.046   6.588  11.700  0.7733  0.3836 -0.4208
 4148TIP3    H133859   5.094   6.581  11.617  1.0175 -0.9390 -0.1819
 4148TIP3    H233860   5.111   6.566  11.766 -0.1807 -1.5903 -0.0972
 4149TIP3   OH233861   5.679   6.776   0.907  0.3936 -0.0184  0.6899
 4149TIP3    H133862   5.713   6.866   0.905 -1.1801  0.6146 -0.9977
 4149TIP3    H233863   5.592   6.785   0.946  1.2599 -1.3056  3.1276
 4150TIP3   OH233864   1.610   6.094   2.207 -0.2217 -0.2865 -0.0801
 4150TIP3    H133865   1.703   6.079   2.187 -0.3712 -1.9633  0.3684
 4150TIP3    H233866   1.573   6.126   2.125  0.0335 -3.1151 -1.4099
 4151TIP3   OH233867   2.900   3.086   1.892 -0.5034  0.3691 -0.0160
 4151TIP3    H133868   2.830   3.140   1.930  0.6478  1.6709  0.3536
 4151TIP3    H233869   2.980   3.134   1.912  0.4286 -0.6096 -1.2470
 4152TIP3   OH233870   4.058   2.154   2.945  0.4930  0.1085  0.0670
 4152TIP3    H133871   4.082   2.230   2.892  0.6593  0.7304  1.0057
 4152TIP3    H233872   4.124   2.151   3.014 -0.9416  0.6335  1.5203
 4153TIP3   OH233873   5.138   5.393   2.640  0.0727  0.3732  0.3474
 4153TIP3    H133874   5.227   5.369   2.663  0.4537  1.1189 -0.3121
 4153TIP3    H233875   5.141   5.412   2.546 -0.8048  0.2805  0.2890
 4154TIP3   OH233876   5.276   4.956  11.068 -0.0481  0.5326 -0.1869
 4154TIP3    H133877   5.305   4.922  10.983 -1.7140 -1.6433  0.0097
 4154TIP3    H233878   5.356   4.960  11.121  0.9677  1.6329 -1.7238
 4155TIP3   OH233879   4.238   4.459  14.466  0.4108 -0.6053  0.2835
 4155TIP3    H133880   4.231   4.406  14.386 -0.2858  0.5219 -0.4300
 4155TIP3    H233881   4.153   4.502  14.473  0.4005 -0.8324  1.7630
 4156TIP3   OH233882   1.830   0.620  10.890 -0.5386 -0.2527 -0.6180
 4156TIP3    H133883   1.868   0.536  10.917  1.3056  1.1682  1.6291
 4156TIP3    H233884   1.790   0.654  10.970  2.1890  2.6893 -0.2971
 4157TIP3   OH233885   5.316   4.171   2.954  0.3456  0.6138 -0.2489
 4157TIP3    H133886   5.333   4.224   3.032  1.8121 -0.1452 -0.0280
 4157TIP3    H233887   5.237   4.122   2.975  1.3067 -0.3755  1.2155
 4158TIP3   OH233888   1.991   1.730   0.959  0.0277  0.0780 -0.0840
 4158TIP3    H133889   1.923   1.696   0.901 -0.5155 -1.7338  1.4870
 4158TIP3    H233890   2.073   1.704   0.917 -0.3446 -0.7390 -0.3371
 4159TIP3   OH233891   4.193   2.346   2.206  0.4355 -0.2231  0.3238
 4159TIP3    H133892   4.149   2.430   2.199 -0.0822 -0.2433  2.4895
 4159TIP3    H233893   4.265   2.350   2.142 -0.2748  1.3835 -0.4139
 4160TIP3   OH233894   4.264   4.395  11.306 -0.2808 -0.5834  0.0817
 4160TIP3    H133895   4.330   4.373  11.371  0.5287 -1.8411 -1.1068
 4160TIP3    H233896   4.300   4.471  11.260 -0.6828  0.0750  0.8374
 4161TIP3   OH233897   0.103   2.936  12.652 -0.1180  0.2339  0.2343
 4161TIP3    H133898   0.185   2.935  12.602 -0.0106  0.1947  0.4096
 4161TIP3    H233899   0.130   2.918  12.742 -0.1244  1.8835  0.6011
 4162TIP3   OH233900   1.524   4.298   6.149  0.0005 -0.1009 -0.1737
 4162TIP3    H133901   1.600   4.241   6.164 -1.0438 -1.4743  0.0783
 4162TIP3    H233902   1.464   4.244   6.097 -1.1269  0.6805  0.2911
 4163TIP3   OH233903   2.507   6.125  13.150 -0.2954 -0.1735 -0.3086
 4163TIP3    H133904   2.503   6.204  13.204 -0.0743 -1.3904  1.6038
 4163TIP3    H233905   2.416   6.111  13.122 -0.2878  0.8874 -0.9361
 4164TIP3   OH233906   2.304   5.748   2.490 -0.0482  0.1742 -0.3058
 4164TIP3    H133907   2.390   5.732   2.451 -0.6227 -0.8645 -1.2216
 4164TIP3    H233908   2.322   5.796   2.571  1.4277 -0.4366 -0.2429
 4165TIP3   OH233909   6.223   3.087   0.717 -0.3613  0.1796 -0.1753
 4165TIP3    H133910   6.302   3.034   0.726  0.6884  1.4474 -1.3907
 4165TIP3    H233911   6.167   3.060   0.789  1.0290 -1.0158  0.5020
 4166TIP3   OH233912   3.983   1.774   4.922 -0.1553 -0.0110  0.6212
 4166TIP3    H133913   3.987   1.829   4.844  0.5175  0.7583  1.1861
 4166TIP3    H233914   3.957   1.687   4.889 -2.0679  0.8064 -0.1804
 4167TIP3   OH233915   3.373   2.960  15.761 -0.3761  0.1671  0.4640
 4167TIP3    H133916   3.435   2.888  15.747  0.2431  0.5322  1.2515
 4167TIP3    H233917   3.418   3.037  15.726 -1.7514 -0.0760 -2.0114
 4168TIP3   OH233918   2.260   1.033   2.713  0.2286  0.5352  0.2594
 4168TIP3    H133919   2.217   1.000   2.634  0.8657  0.7594 -0.1933
 4168TIP3    H233920   2.332   0.972   2.729 -0.0657  0.3327  0.8306
 4169TIP3   OH233921   6.593   1.084   2.037 -0.6119  0.1398  0.2262
 4169TIP3    H133922   6.529   1.056   1.972  0.4229 -0.3328 -0.6177
 4169TIP3    H233923   6.674   1.039   2.013 -0.4155 -0.7738  2.3874
 4170TIP3   OH233924   6.359   5.839  15.056 -0.2181  0.4085  0.2259
 4170TIP3    H133925   6.445   5.820  15.017 -0.9446 -0.0337 -1.2514
 4170TIP3    H233926   6.375   5.914  15.114  1.4811 -0.7188  1.3186
 4171TIP3   OH233927   1.612   3.939  13.760  0.2516  0.1330 -0.2400
 4171TIP3    H133928   1.547   3.939  13.690  0.1698 -0.4303 -0.1641
 4171TIP3    H233929   1.660   4.021  13.747  0.6558 -0.2578 -1.3415
 4172TIP3   OH233930   5.147   0.396  12.841  0.3615  0.3366  0.7708
 4172TIP3    H133931   5.063   0.393  12.795  0.6774  1.9462  0.0357
 4172TIP3    H233932   5.144   0.321  12.901 -1.0304 -0.4286 -0.2016
 4173TIP3   OH233933   3.380   3.358   5.427 -0.2532  0.5142  0.0511
 4173TIP3    H133934   3.326   3.303   5.370 -1.9881  2.1680 -0.0158
 4173TIP3    H233935   3.317   3.407   5.480  1.1388  2.9521 -0.3866
 4174TIP3   OH233936   0.482   3.573   5.154  0.0050  0.2954  0.1953
 4174TIP3    H133937   0.469   3.497   5.211 -1.3035  0.4355  0.1042
 4174TIP3    H233938   0.395   3.608   5.141  0.0608 -0.5168 -3.0399
 4175TIP3   OH233939   1.995   1.605  13.790  0.7445  0.4796  0.5484
 4175TIP3    H133940   2.037   1.532  13.746  1.1914  0.5601  0.8340
 4175TIP3    H233941   1.907   1.573  13.813  0.7409  0.2240  0.1827
 4176TIP3   OH233942   2.844   2.234  10.944 -0.5168 -0.0830 -0.2560
 4176TIP3    H133943   2.795   2.267  11.020  1.9888 -0.2601  1.5514
 4176TIP3    H233944   2.892   2.310  10.911 -0.7550 -0.2602 -1.0473
 4177TIP3   OH233945   4.914   3.994  16.181 -0.3155  0.1360  0.3174
 4177TIP3    H133946   4.881   3.943  16.256 -1.9089 -0.4951 -0.7757
 4177TIP3    H233947   4.836   4.024  16.136  0.5925  2.6588  0.2648
 4178TIP3   OH233948   5.392   3.612   2.400  0.3047  0.6336 -0.3612
 4178TIP3    H133949   5.464   3.557   2.368  0.8410  1.5333 -0.7373
 4178TIP3    H233950   5.428   3.655   2.478 -0.5204 -0.4547  0.6635
 4179TIP3   OH233951   5.479   1.445   3.942  0.2389 -0.0894  0.3042
 4179TIP3    H133952   5.526   1.529   3.940 -1.5714  0.9561 -0.6129
 4179TIP3    H233953   5.546   1.380   3.921  1.3325  1.3251 -0.8072
 4180TIP3   OH233954   3.664   3.718  10.957  0.1876 -0.1315  0.2069
 4180TIP3    H133955   3.692   3.667  10.881 -0.3196 -1.8910  1.1433
 4180TIP3    H233956   3.739   3.775  10.976  1.9487 -2.3905  0.6559
 4181TIP3   OH233957   1.297   2.295   3.648 -0.4753 -0.2301 -0.2389
 4181TIP3    H133958   1.318   2.364   3.711 -0.9659 -0.3790  0.0953
 4181TIP3    H233959   1.271   2.220   3.702  1.1363 -1.0577 -0.5558
 4182TIP3   OH233960   4.881   5.692  17.027 -0.0618 -0.4077  0.1495
 4182TIP3    H133961   4.863   5.748  17.103  1.8372  0.5613 -0.0647
 4182TIP3    H233962   4.854   5.605  17.055 -0.9126  0.1942  1.3406
 4183TIP3   OH233963   6.618   4.164  15.444  0.4840  0.1623 -0.6559
 4183TIP3    H133964   6.686   4.099  15.462 -1.2193 -1.4955  0.2498
 4183TIP3    H233965   6.550   4.145  15.510 -1.2602  1.0731 -2.1178
 4184TIP3   OH233966   6.148   1.837  12.435  0.3073 -0.0163 -0.1578
 4184TIP3    H133967   6.118   1.844  12.526  1.8613  2.5722  0.2448
 4184TIP3    H233968   6.205   1.760  12.435 -1.9092 -1.7777  0.2852
 4185TIP3   OH233969   1.447   3.259  15.377  0.1777  0.2062 -0.5943
 4185TIP3    H133970   1.395   3.336  15.354  0.0844  0.3309  0.0012
 4185TIP3    H233971   1.508   3.248  15.304 -1.4494 -0.6656 -1.8931
 4186TIP3   OH233972   3.029   0.502   4.776  0.4305  0.4983 -0.1499
 4186TIP3    H133973   3.115   0.537   4.801 -0.7394  3.3363  0.3347
 4186TIP3    H233974   2.990   0.474   4.858  0.7766 -0.5895 -0.3424
 4187TIP3   OH233975   5.684   0.084  16.028  0.1888 -0.0882 -0.1866
 4187TIP3    H133976   5.603   0.099  15.979 -0.7576  0.1053  1.3794
 4187TIP3    H233977   5.740   0.035  15.968 -1.3832 -0.9169 -1.0246
 4188TIP3   OH233978   2.998   5.443  14.564  0.4596 -0.2352  0.4247
 4188TIP3    H133979   3.019   5.533  14.586  1.3079 -0.3925  0.2909
 4188TIP3    H233980   2.983   5.400  14.648 -0.4918  0.1548  0.4601
 4189TIP3   OH233981   4.774   6.650  16.125 -0.3309 -0.8589 -0.3555
 4189TIP3    H133982   4.687   6.689  16.126 -0.3139 -0.7948  1.2989
 4189TIP3    H233983   4.766   6.572  16.180  0.9080 -0.1973  0.8378
 4190TIP3   OH233984   2.696   1.479  14.854 -0.1765 -0.7092 -0.2700
 4190TIP3    H133985   2.603   1.486  14.876  0.1791 -0.0290  1.1142
 4190TIP3    H233986   2.738   1.448  14.934  0.7013 -1.8400 -1.1174
 4191TIP3   OH233987   5.340   0.152  12.302 -0.3004 -0.2304 -0.0639
 4191TIP3    H133988   5.261   0.203  12.320  1.0485  1.2056  2.2600
 4191TIP3    H233989   5.410   0.198  12.347  2.0143 -1.2230 -2.3452
 4192TIP3   OH233990   3.355   3.955   2.546 -0.3853 -0.5616 -0.1503
 4192TIP3    H133991   3.354   4.027   2.609  1.3042  0.1644 -0.8913
 4192TIP3    H233992   3.447   3.926   2.544 -0.1978 -0.0576 -2.7707
 4193TIP3   OH233993   4.689   5.708   4.943  0.2508  0.2060 -0.2776
 4193TIP3    H133994   4.651   5.747   5.021  0.0992 -1.4082  0.4905
 4193TIP3    H233995   4.621   5.718   4.876  0.3075  1.4190 -0.1750
 4194TIP3   OH233996   2.536   4.191  14.962  0.0774 -0.5098 -0.0340
 4194TIP3    H133997   2.480   4.234  14.897 -2.3953 -1.4228  1.3548
 4194TIP3    H233998   2.527   4.098  14.944  1.1655 -0.6872  0.2495
 4195TIP3   OH233999   3.430   6.166  15.389  0.4770 -0.3579 -0.1208
 4195TIP3    H134000   3.353   6.118  15.358 -0.5682 -0.2582  2.0612
 4195TIP3    H234001   3.410   6.258  15.368  1.0944 -0.5375 -1.6015
 4196TIP3   OH234002   5.079   2.396   2.149  0.3850  0.0576 -0.2197
 4196TIP3    H134003   5.146   2.354   2.203 -0.3031 -1.4606 -0.4847
 4196TIP3    H234004   5.012   2.328   2.138 -1.2048  1.5268  0.0360
 4197TIP3   OH234005   5.772   1.917  12.007  0.1562 -0.3287 -0.4282
 4197TIP3    H134006   5.687   1.883  12.036 -0.3414  0.1075 -1.3325
 4197TIP3    H234007   5.779   1.890  11.916  1.3806 -1.0739 -0.1391
 4198TIP3   OH234008   4.732   1.578   1.549 -0.4147 -0.1960  0.1471
 4198TIP3    H134009   4.774   1.494   1.567 -0.1199 -0.2453 -0.7390
 4198TIP3    H234010   4.641   1.557   1.532  0.0349 -0.6039 -2.0402
 4199TIP3   OH234011   1.166   6.009   0.968  0.2135  0.5220 -0.7074
 4199TIP3    H134012   1.106   5.970   0.904  0.8337  0.6346 -1.3717
 4199TIP3    H234013   1.229   5.939   0.986  0.7723  0.9016 -1.1756
 4200TIP3   OH234014   5.053   5.111  11.006 -0.1934 -0.0721 -0.0292
 4200TIP3    H134015   5.082   5.168  10.936  0.8747 -1.8033 -1.0774
 4200TIP3    H234016   5.133   5.067  11.035 -0.6297  0.5122  2.2283
 4201TIP3   OH234017   3.175   1.542  16.668  0.0659 -0.5167 -0.1738
 4201TIP3    H134018   3.208   1.513  16.583  1.1965 -0.4199  0.2142
 4201TIP3    H234019   3.250   1.585  16.709 -0.5706 -0.2405  0.7254
 4202TIP3   OH234020   2.572   5.282   1.716 -0.7433 -0.7384 -0.3082
 4202TIP3    H134021   2.556   5.284   1.621 -0.2242  1.8724 -0.4011
 4202TIP3    H234022   2.667   5.272   1.724 -0.2058  3.1041 -0.2626
 4203TIP3   OH234023   2.807   1.745  16.829  0.1103  0.3128 -0.5318
 4203TIP3    H134024   2.889   1.773  16.787  1.0404 -0.3172  0.8028
 4203TIP3    H234025   2.834   1.677  16.891 -1.4125  0.2306  0.0723
 4204TIP3   OH234026   1.641   6.524  12.470 -0.4677  0.2783  0.8249
 4204TIP3    H134027   1.569   6.564  12.423  0.7819  2.0098  0.2739
 4204TIP3    H234028   1.623   6.541  12.563 -1.3616 -0.4102  0.7915
 4205TIP3   OH234029   1.269   0.461  11.562 -0.2697  0.1572 -0.1672
 4205TIP3    H134030   1.319   0.397  11.511 -0.9556 -0.2363 -0.3704
 4205TIP3    H234031   1.312   0.545  11.546  0.9438 -0.3217  0.4980
 4206TIP3   OH234032   3.742   6.165  14.997 -0.0551 -0.7701  0.2536
 4206TIP3    H134033   3.761   6.077  14.963  2.2094 -0.2757  0.0866
 4206TIP3    H234034   3.826   6.210  14.993 -0.7370  0.7788  2.2163
 4207TIP3   OH234035   1.355   3.642  16.222 -0.4290  0.0546  0.0582
 4207TIP3    H134036   1.400   3.572  16.269 -0.0074 -0.9470 -1.7525
 4207TIP3    H234037   1.406   3.653  16.142 -3.1662 -0.9289 -1.9540
 4208TIP3   OH234038   5.440   5.645   5.789 -0.5239  0.4610  0.2277
 4208TIP3    H134039   5.405   5.556   5.783  1.0479 -0.3609  2.0180
 4208TIP3    H234040   5.531   5.633   5.815 -0.4548  2.6110  1.2334
 4209TIP3   OH234041   5.337   3.943   0.645  0.2362 -0.4089  0.1563
 4209TIP3    H134042   5.398   4.014   0.662 -2.3106  2.2186 -0.8577
 4209TIP3    H234043   5.323   3.902   0.731  0.2943  1.6127  1.1781
 4210TIP3   OH234044   3.915   3.490   0.312  0.2846  0.0799 -0.8506
 4210TIP3    H134045   3.971   3.435   0.256  1.0514  0.1030 -0.1273
 4210TIP3    H234046   3.859   3.427   0.358  0.1929  0.0055 -1.0620
 4211TIP3   OH234047   4.554   0.707  10.724  0.4959 -0.2932  0.5370
 4211TIP3    H134048   4.500   0.730  10.649  1.2458  1.8846  0.5742
 4211TIP3    H234049   4.638   0.681  10.687  0.7437  0.4096  0.5954
 4212TIP3   OH234050   3.843   1.468  12.131 -0.0185 -0.3338 -0.3972
 4212TIP3    H134051   3.913   1.529  12.153 -0.8500  0.6341 -0.3627
 4212TIP3    H234052   3.769   1.495  12.186 -0.7531 -0.6448 -1.2030
 4213TIP3   OH234053   0.270   0.213  15.178  0.3090 -0.0367  0.3119
 4213TIP3    H134054   0.184   0.197  15.215  0.6774  1.4958  1.9722
 4213TIP3    H234055   0.280   0.147  15.109 -1.4330 -1.3865  1.2900
 4214TIP3   OH234056   5.864   1.877   4.039  0.3223  0.3973 -0.6897
 4214TIP3    H134057   5.770   1.862   4.043  0.1370  1.5664  1.9436
 4214TIP3    H234058   5.877   1.930   3.961 -1.5085  1.6636 -0.2008
 4215TIP3   OH234059   0.412   1.761   5.713 -0.4454 -0.1070 -0.0641
 4215TIP3    H134060   0.414   1.829   5.645 -0.2972  0.1849  0.2263
 4215TIP3    H234061   0.383   1.807   5.792  1.4842  0.0652  0.6039
 4216TIP3   OH234062   3.863   1.262  11.169  0.1763 -0.5828  0.3287
 4216TIP3    H134063   3.827   1.189  11.219 -0.8400 -2.0896 -2.3940
 4216TIP3    H234064   3.791   1.291  11.113  0.6480  2.3846  1.0884
 4217TIP3   OH234065   0.604   4.846  13.267 -0.4362  0.2604  0.5908
 4217TIP3    H134066   0.698   4.857  13.280  0.0783 -1.5725 -1.0653
 4217TIP3    H234067   0.577   4.923  13.216  0.2823  0.5434  0.6342
 4218TIP3   OH234068   0.719   1.100  16.254 -0.5030  0.0422  0.4998
 4218TIP3    H134069   0.787   1.146  16.304 -0.0057 -0.2225  0.0790
 4218TIP3    H234070   0.764   1.070  16.175 -0.1285 -3.3985  1.8608
 4219TIP3   OH234071   5.187   0.569   3.380  0.2008  0.2701 -0.1608
 4219TIP3    H134072   5.207   0.479   3.353  1.1232  0.5204 -0.3330
 4219TIP3    H234073   5.152   0.559   3.469 -1.2291 -0.3919 -0.7601
 4220TIP3   OH234074   6.327   4.309  17.106  0.2641  0.0060 -0.2729
 4220TIP3    H134075   6.359   4.397  17.126  0.7744 -0.2188 -0.0857
 4220TIP3    H234076   6.328   4.264  17.190 -0.8736  0.0900 -0.1983
 4221TIP3   OH234077   4.511   3.010  17.169  0.8644  0.0754  0.3153
 4221TIP3    H134078   4.565   3.066  17.113  1.3911  0.0006  0.7487
 4221TIP3    H234079   4.572   2.950  17.211  0.6975  1.1082  2.1521
 4222TIP3   OH234080   2.873   6.059   5.236 -0.3102 -0.3092 -0.1965
 4222TIP3    H134081   2.862   5.969   5.206 -0.3982 -0.1321 -0.6998
 4222TIP3    H234082   2.917   6.051   5.321 -0.3465 -0.8255 -0.2259
 4223TIP3   OH234083   3.454   3.738  12.564 -0.1786 -0.3217 -0.2625
 4223TIP3    H134084   3.514   3.808  12.537 -0.4654 -0.5783 -1.6512
 4223TIP3    H234085   3.512   3.671  12.600  0.0679  0.7649  1.5030
 4224TIP3   OH234086   4.388   1.305  16.000  0.1596 -0.4263 -0.7737
 4224TIP3    H134087   4.448   1.350  15.941 -0.1421  0.5361 -0.3719
 4224TIP3    H234088   4.436   1.300  16.083  0.2891 -1.0831 -0.8861
 4225TIP3   OH234089   5.883   4.994  15.582  0.2991 -0.1390  0.8914
 4225TIP3    H134090   5.888   4.983  15.677  1.1042  0.2368  0.9057
 4225TIP3    H234091   5.791   4.979  15.560 -0.1770  1.1642  1.9147
 4226TIP3   OH234092   2.147   4.567   5.932  0.0465  0.1804  0.0535
 4226TIP3    H134093   2.159   4.565   6.027  0.3333  2.1689  0.1006
 4226TIP3    H234094   2.233   4.594   5.898 -0.0069 -0.6781 -0.7989
 4227TIP3   OH234095   3.590   3.547   0.116  0.4604  0.2016  0.3620
 4227TIP3    H134096   3.504   3.517   0.086 -0.4456 -0.0820  2.9892
 4227TIP3    H234097   3.580   3.641   0.130  0.0647 -0.0479  2.0296
 4228TIP3   OH234098   0.096   2.976   4.176  0.3274 -0.1647 -0.5224
 4228TIP3    H134099   0.020   3.014   4.220  0.6005 -1.3190  0.9834
 4228TIP3    H234100   0.067   2.963   4.086 -0.9904  0.1434 -0.1575
 4229TIP3   OH234101   2.534   5.300   1.180 -0.2697  0.8405 -0.0484
 4229TIP3    H134102   2.450   5.295   1.135 -0.3913  0.2212  0.2361
 4229TIP3    H234103   2.526   5.377   1.236 -1.0855  0.1287  0.8409
 4230TIP3   OH234104   1.966   6.444  14.294  0.0997  0.1844  0.0932
 4230TIP3    H134105   1.922   6.490  14.366  1.6338  1.0524  0.5111
 4230TIP3    H234106   1.984   6.357  14.330 -2.1738 -0.5836 -0.4559
 4231TIP3   OH234107   3.965   5.470  11.563 -0.9488 -0.6230 -0.2264
 4231TIP3    H134108   3.878   5.505  11.547 -1.0857 -0.8638 -0.0113
 4231TIP3    H234109   4.005   5.463  11.476 -0.4053  1.3679 -0.1700
 4232TIP3   OH234110   2.125   5.717   3.584  0.6054 -0.2746  0.1283
 4232TIP3    H134111   2.090   5.634   3.616 -0.7597 -0.3571 -1.4320
 4232TIP3    H234112   2.076   5.783   3.632 -0.7491 -0.4016 -0.9986
 4233TIP3   OH234113   4.942   6.416   6.679 -0.1691 -0.7396 -0.8944
 4233TIP3    H134114   4.992   6.497   6.691  0.5763 -1.0985 -1.4376
 4233TIP3    H234115   4.918   6.389   6.768 -2.3362  1.1992 -0.8026
 4234TIP3   OH234116   1.899   3.306   5.574  0.2951 -0.6516 -0.0006
 4234TIP3    H134117   1.900   3.386   5.520 -1.6982 -1.4641 -1.3883
 4234TIP3    H234118   1.888   3.235   5.511  1.3072 -1.9877  1.2732
 4235TIP3   OH234119   4.504   6.003  13.108 -0.2474 -0.0412 -0.4300
 4235TIP3    H134120   4.554   6.085  13.104  2.0834 -1.4049 -1.5512
 4235TIP3    H234121   4.465   5.994  13.021 -1.6091  0.4765  0.1006
 4236TIP3   OH234122   2.108   0.450  11.801 -0.2671  0.2748  0.1280
 4236TIP3    H134123   2.059   0.475  11.880 -1.1023 -0.1711 -0.2388
 4236TIP3    H234124   2.155   0.530  11.777  1.2612 -0.0043  1.9629
 4237TIP3   OH234125   4.564   6.415   4.245 -0.1782  0.1707  0.2004
 4237TIP3    H134126   4.497   6.446   4.184  0.0515 -0.2039 -0.2579
 4237TIP3    H234127   4.647   6.443   4.205  0.0458 -1.1391 -0.3246
 4238TIP3   OH234128   5.137   3.675   4.607  0.1808  0.3688 -0.5368
 4238TIP3    H134129   5.194   3.605   4.638  0.1911  0.4632 -0.3390
 4238TIP3    H234130   5.077   3.691   4.680  0.6747  1.0972 -0.2869
 4239TIP3   OH234131   5.563   0.319   5.095  0.5220 -0.3661  0.1893
 4239TIP3    H134132   5.638   0.282   5.049  1.6972  1.5602  0.4684
 4239TIP3    H234133   5.601   0.372   5.165 -1.0893  0.4472  0.4980
 4240TIP3   OH234134   5.215   5.455  13.339  0.6219 -0.0913  0.0598
 4240TIP3    H134135   5.199   5.517  13.268 -0.5031 -0.6201 -0.1716
 4240TIP3    H234136   5.167   5.490  13.414 -0.4004 -0.8853 -0.1974
 4241TIP3   OH234137   1.233   1.239   3.509  0.2339 -0.4112  0.3321
 4241TIP3    H134138   1.230   1.144   3.507  1.0377 -0.4438 -2.2614
 4241TIP3    H234139   1.161   1.267   3.453 -0.9875  0.6110  2.2854
 4242TIP3   OH234140   0.431   6.170   3.992  0.7269 -0.2918  0.3130
 4242TIP3    H134141   0.524   6.185   4.003  0.4938  1.6209  0.0546
 4242TIP3    H234142   0.397   6.252   3.957 -0.6530 -1.7584 -2.1212
 4243TIP3   OH234143   1.855   0.958   1.736  0.1920  0.6584  0.3847
 4243TIP3    H134144   1.929   0.901   1.713 -0.1182  0.6548 -0.6772
 4243TIP3    H234145   1.825   0.992   1.652  0.0044  1.9505  0.9540
 4244TIP3   OH234146   3.438   0.597   2.339 -0.7049 -0.2509 -0.0557
 4244TIP3    H134147   3.471   0.564   2.423  0.9427 -0.9410 -0.9271
 4244TIP3    H234148   3.381   0.670   2.363  0.1694 -0.0705  1.6490
 4245TIP3   OH234149   1.315   0.913  16.574 -0.3549  0.2306 -0.1932
 4245TIP3    H134150   1.401   0.889  16.538 -0.1606 -0.2261  0.5349
 4245TIP3    H234151   1.327   0.907  16.669 -1.8377 -2.3367 -0.0584
 4246TIP3   OH234152   5.119   2.050  14.622 -0.2584  0.1685  0.1967
 4246TIP3    H134153   5.095   2.073  14.712 -1.6026 -1.4041  0.2847
 4246TIP3    H234154   5.040   2.013  14.585  1.0237 -1.8369 -0.7273
 4247TIP3   OH234155   3.387   0.606  14.488  0.5679 -0.3042  0.8486
 4247TIP3    H134156   3.376   0.514  14.465  0.0997  0.2920 -1.5792
 4247TIP3    H234157   3.480   0.617  14.504  0.4190 -1.5069  2.9111
 4248TIP3   OH234158   1.014   5.613  10.280 -0.0825  0.0886  0.1132
 4248TIP3    H134159   0.965   5.531  10.286  0.9238 -1.0015 -3.6996
 4248TIP3    H234160   0.947   5.681  10.285 -1.2252 -1.0507  0.9335
 4249TIP3   OH234161   2.574   3.562   1.896 -0.1616 -0.6277  0.7283
 4249TIP3    H134162   2.522   3.608   1.830  1.5827 -3.4564 -3.0079
 4249TIP3    H234163   2.523   3.485   1.918 -0.4541 -0.0116  2.3230
 4250TIP3   OH234164   5.446   4.587   5.437  0.3657 -0.6484 -0.3521
 4250TIP3    H134165   5.418   4.676   5.416  0.7527 -0.0864  1.3410
 4250TIP3    H234166   5.504   4.562   5.365 -0.4198  0.1251 -1.2825
 4251TIP3   OH234167   4.182   3.295   0.270  0.1526 -0.5211 -0.5484
 4251TIP3    H134168   4.186   3.229   0.339 -0.0268 -0.5250 -0.5400
 4251TIP3    H234169   4.249   3.268   0.207 -0.1902 -0.9368 -0.7375
 4252TIP3   OH234170   5.418   2.066   0.160 -0.3860  0.4626 -0.3365
 4252TIP3    H134171   5.446   2.151   0.128 -0.6019  0.7649  0.2718
 4252TIP3    H234172   5.465   2.003   0.105 -1.8462  0.9440 -2.2641
 4253TIP3   OH234173   2.192   1.067   4.064  0.6106 -0.1126 -0.3601
 4253TIP3    H134174   2.251   0.992   4.074  0.1290 -0.3546  0.9932
 4253TIP3    H234175   2.178   1.098   4.154  0.8520  1.6503 -0.8897
 4254TIP3   OH234176   0.750   0.986  14.066  0.3872  0.1544 -0.1086
 4254TIP3    H134177   0.787   0.914  14.116 -1.9752 -1.6834 -0.8233
 4254TIP3    H234178   0.712   1.045  14.132 -2.1337 -1.9181  0.4642
 4255TIP3   OH234179   4.209   0.205  14.947  0.0663  0.0640  0.0500
 4255TIP3    H134180   4.231   0.220  14.855 -1.4290  1.9126 -0.0623
 4255TIP3    H234181   4.194   0.292  14.983  1.1436 -0.5675  2.2358
 4256TIP3   OH234182   6.197   2.606   3.564 -0.3046 -0.2435  0.1326
 4256TIP3    H134183   6.248   2.663   3.506 -0.9207 -1.9116 -2.1752
 4256TIP3    H234184   6.113   2.651   3.574 -0.4601 -0.2880 -0.9125
 4257TIP3   OH234185   6.534   6.241   4.534 -0.4270  0.0310  0.7012
 4257TIP3    H134186   6.468   6.252   4.465 -0.7865 -0.1655  1.0071
 4257TIP3    H234187   6.614   6.218   4.488 -0.5321  0.4509  0.3118
 4258TIP3   OH234188   2.977   3.507  14.375 -0.4932  0.0815 -0.2107
 4258TIP3    H134189   2.901   3.531  14.428  0.7374  0.4865  1.4794
 4258TIP3    H234190   2.959   3.418  14.345 -1.8581  0.3711 -0.2997
 4259TIP3   OH234191   5.078   2.707   5.219 -0.6309 -0.1342  0.3977
 4259TIP3    H134192   5.083   2.751   5.135 -1.6493 -0.4970  0.1273
 4259TIP3    H234193   5.163   2.723   5.260  0.4710 -1.2451 -1.3317
 4260TIP3   OH234194   4.368   1.200  14.322 -0.1501  0.0608  0.3920
 4260TIP3    H134195   4.365   1.105  14.315 -0.5769  0.0084  1.1984
 4260TIP3    H234196   4.336   1.232  14.237 -3.3462 -0.5232  1.2677
 4261TIP3   OH234197   3.091   0.736  12.720  0.3452  0.4042 -0.0922
 4261TIP3    H134198   3.114   0.648  12.690  1.0107  1.0066 -1.4318
 4261TIP3    H234199   3.025   0.766  12.657 -1.0309  0.3071  1.2551
 4262TIP3   OH234200   6.548   4.581  13.368 -0.3163 -0.2347 -1.0215
 4262TIP3    H134201   6.567   4.488  13.356 -0.2612 -0.5272  0.9812
 4262TIP3    H234202   6.583   4.602  13.455  0.7562  1.9628 -1.8947
 4263TIP3   OH234203   6.165   3.663  15.034  0.5402  0.1659  0.0837
 4263TIP3    H134204   6.122   3.743  15.003 -2.2594 -0.9923  0.7181
 4263TIP3    H234205   6.185   3.615  14.953 -0.2204  0.3182 -0.2064
 4264TIP3   OH234206   0.652   6.468   0.650  0.0469  0.0749  0.5494
 4264TIP3    H134207   0.629   6.554   0.613 -1.7297 -1.6520 -2.8609
 4264TIP3    H234208   0.731   6.443   0.604 -0.6785 -1.0013 -0.1521
 4265TIP3   OH234209   2.386   2.937   2.448 -0.5836 -0.0114  0.5960
 4265TIP3    H134210   2.345   2.944   2.361  0.5006  0.1694  0.0764
 4265TIP3    H234211   2.402   3.028   2.474  0.7374 -0.0877  0.1494
 4266TIP3   OH234212   5.490   6.424  16.273  0.4084 -0.5693 -0.1656
 4266TIP3    H134213   5.552   6.395  16.207  1.4671  0.3466  0.3949
 4266TIP3    H234214   5.542   6.475  16.335 -1.0299  0.8952 -0.0917
 4267TIP3   OH234215   0.478   2.368  14.449 -0.3747 -0.0994 -0.3605
 4267TIP3    H134216   0.449   2.278  14.432 -2.5132  0.7192 -1.5854
 4267TIP3    H234217   0.504   2.401  14.363  0.3906  0.4559  0.0755
 4268TIP3   OH234218   6.493   3.389   1.109 -0.4824 -0.2410 -0.3031
 4268TIP3    H134219   6.535   3.452   1.168 -1.9329  0.5622 -0.0791
 4268TIP3    H234220   6.557   3.318   1.101 -0.5135 -0.8290  2.9559
 4269TIP3   OH234221   0.196   2.305  13.030 -0.8518  0.5939 -0.3492
 4269TIP3    H134222   0.204   2.211  13.046 -0.8495  0.5602 -0.5444
 4269TIP3    H234223   0.193   2.344  13.117 -0.3309  0.4568 -0.2666
 4270TIP3   OH234224   2.666   4.853  15.005  0.2962 -0.1161  0.1135
 4270TIP3    H134225   2.670   4.851  14.910  0.4961 -3.3915  0.0800
 4270TIP3    H234226   2.588   4.905  15.025  0.9754  1.7275 -1.7320
 4271TIP3   OH234227   0.581   5.439   4.573  0.0926  0.0499  0.0659
 4271TIP3    H134228   0.486   5.434   4.570  0.1093 -0.5563  0.4231
 4271TIP3    H234229   0.609   5.412   4.485 -0.0107 -1.4091  0.4663
 4272TIP3   OH234230   0.674   3.535   0.538  0.3190 -0.5597  0.4287
 4272TIP3    H134231   0.600   3.553   0.595  0.6308 -0.7743  0.9053
 4272TIP3    H234232   0.750   3.534   0.596  1.1320  2.4769 -0.4030
 4273TIP3   OH234233   4.110   6.165  12.126 -0.1110  0.1558 -0.3790
 4273TIP3    H134234   4.070   6.204  12.204  0.0017  0.4473 -0.4647
 4273TIP3    H234235   4.177   6.106  12.160 -0.2121  0.1158 -0.2485
 4274TIP3   OH234236   0.707   6.783  13.139  0.0257  0.6655 -0.5804
 4274TIP3    H134237   0.621   6.747  13.118  0.9041 -1.9421 -0.0875
 4274TIP3    H234238   0.756   6.709  13.175  2.5228  2.0345 -0.9264
 4275TIP3   OH234239   1.618   2.445  14.836  0.3075 -0.1587 -0.8332
 4275TIP3    H134240   1.553   2.428  14.768 -0.0489  1.5389 -0.9575
 4275TIP3    H234241   1.677   2.370  14.832 -0.8842 -1.0837 -1.6144
 4276TIP3   OH234242   4.132   1.405  15.965  0.1044  0.4340  1.0284
 4276TIP3    H134243   4.158   1.452  15.886  0.0447  1.4411  1.5883
 4276TIP3    H234244   4.214   1.374  16.002  0.0045 -1.8527 -0.4786
 4277TIP3   OH234245   0.339   3.684   2.759 -0.3440  0.0709  0.4075
 4277TIP3    H134246   0.259   3.708   2.712 -0.8264  1.1669  1.7182
 4277TIP3    H234247   0.325   3.717   2.848  0.8317 -1.3050  1.1364
 4278TIP3   OH234248   0.687   0.158  11.447  0.1666 -0.4077 -0.0655
 4278TIP3    H134249   0.739   0.078  11.456  0.4633 -0.4834 -1.9671
 4278TIP3    H234250   0.739   0.213  11.388 -2.0647 -0.6826 -2.4911
 4279TIP3   OH234251   3.645   3.352   4.171  0.1476 -0.0484  0.6139
 4279TIP3    H134252   3.619   3.287   4.236  0.1320 -0.6348  0.0312
 4279TIP3    H234253   3.563   3.381   4.131  0.0840  0.9108  1.3995
 4280TIP3   OH234254   4.424   0.059  17.102  0.1446  0.4868  0.2775
 4280TIP3    H134255   4.373   0.018  17.033  0.7063  1.4231 -0.7219
 4280TIP3    H234256   4.443  -0.012  17.164  0.7223 -0.6776 -1.1697
 4281TIP3   OH234257   0.542   1.790   3.133  0.3837  1.0739 -0.2303
 4281TIP3    H134258   0.486   1.866   3.151  1.6269  1.3408  3.1650
 4281TIP3    H234259   0.483   1.716   3.131 -0.4754  1.7461 -0.3217
 4282TIP3   OH234260   6.055   1.505   1.435 -0.6932 -0.7610  0.3946
 4282TIP3    H134261   6.009   1.442   1.381  0.6362 -2.1908  0.8708
 4282TIP3    H234262   6.040   1.589   1.392 -1.9032 -1.4811 -0.6500
 4283TIP3   OH234263   6.430   1.949   3.621  0.0262 -0.5476  0.1836
 4283TIP3    H134264   6.430   1.896   3.542  0.1898  0.8790 -0.7962
 4283TIP3    H234265   6.508   2.003   3.614  1.2179 -1.8391  2.3522
 4284TIP3   OH234266   0.446   3.343   3.725  0.1848 -0.2162 -0.3747
 4284TIP3    H134267   0.451   3.250   3.749  1.0744  0.2326  1.2739
 4284TIP3    H234268   0.388   3.382   3.790  0.1478  0.4738 -0.8100
 4285TIP3   OH234269   2.772   5.949  16.880  0.3169 -0.4127 -0.2292
 4285TIP3    H134270   2.852   5.913  16.918  1.7033  0.4821 -2.1155
 4285TIP3    H234271   2.703   5.887  16.905  1.0275  0.1168  3.6712
 4286TIP3   OH234272   3.394   2.600  14.871 -0.4469 -0.4227  0.3247
 4286TIP3    H134273   3.301   2.591  14.847  0.0439 -0.8386 -1.5843
 4286TIP3    H234274   3.435   2.520  14.839  0.6762 -0.0102  0.6813
 4287TIP3   OH234275   5.736   0.845   4.475  0.2846 -0.1353  0.2573
 4287TIP3    H134276   5.772   0.930   4.452 -3.1328  1.1875 -0.8451
 4287TIP3    H234277   5.682   0.862   4.553 -4.4376  0.1067 -2.6897
 4288TIP3   OH234278   0.339   4.633  13.482 -0.3688 -0.1269 -0.3390
 4288TIP3    H134279   0.382   4.627  13.397  0.1878  1.3571 -0.1888
 4288TIP3    H234280   0.300   4.721  13.483 -0.5415 -0.2040  0.8501
 4289TIP3   OH234281   2.760   1.141  14.072 -0.3032 -0.1969 -0.7629
 4289TIP3    H134282   2.781   1.050  14.053  0.7976 -0.3784  1.0966
 4289TIP3    H234283   2.843   1.180  14.099 -1.0280  0.9601 -0.1338
 4290TIP3   OH234284   2.207   6.006   4.769  0.2390 -0.3364  0.3041
 4290TIP3    H134285   2.204   5.910   4.768 -0.1522 -0.3370 -1.6649
 4290TIP3    H234286   2.299   6.027   4.787  0.3849 -1.0852  0.4594
 4291TIP3   OH234287   6.535   2.504  15.826  0.5548 -0.0388  0.3498
 4291TIP3    H134288   6.503   2.474  15.741  1.3544 -1.2816  0.4683
 4291TIP3    H234289   6.509   2.596  15.830  1.7089  0.4532 -1.8459
 4292TIP3   OH234290   5.879   1.817   2.436  0.0967 -0.4634  0.0217
 4292TIP3    H134291   5.834   1.736   2.462 -1.4187  0.4885  0.5126
 4292TIP3    H234292   5.852   1.881   2.501 -1.5869  1.3183 -2.2555
 4293TIP3   OH234293   4.896   4.968   3.322  0.1495 -0.0612 -0.8627
 4293TIP3    H134294   4.864   5.019   3.396 -0.1820 -0.6073 -0.6216
 4293TIP3    H234295   4.861   4.880   3.336  1.8785 -0.7437 -0.5044
 4294TIP3   OH234296   5.863   0.948   1.409 -0.3624  0.5719  0.2972
 4294TIP3    H134297   5.884   1.030   1.454  0.3559  1.0539 -0.8732
 4294TIP3    H234298   5.878   0.967   1.316 -0.9299 -0.6623 -0.0648
 4295TIP3   OH234299   3.760   2.160  11.258 -0.0723  0.3948  0.4671
 4295TIP3    H134300   3.777   2.066  11.262 -0.3357  0.3817  1.4325
 4295TIP3    H234301   3.702   2.171  11.183  0.7141 -0.0903 -0.2285
 4296TIP3   OH234302   0.579   6.255   3.690  0.0485  0.2940 -0.1431
 4296TIP3    H134303   0.615   6.193   3.627 -1.7699  2.0369 -3.0960
 4296TIP3    H234304   0.506   6.208   3.730 -0.9969  0.2539 -1.9905
 4297TIP3   OH234305   4.669   2.606   3.970  0.4867 -0.3530 -0.3152
 4297TIP3    H134306   4.764   2.615   3.971  0.6340 -1.7684  0.8460
 4297TIP3    H234307   4.639   2.661   4.042  0.4261  0.0157 -0.6195
 4298TIP3   OH234308   0.461   3.565   0.717  0.1302 -0.3473  0.0500
 4298TIP3    H134309   0.528   3.508   0.755  0.2820  0.4422  1.0260
 4298TIP3    H234310   0.450   3.634   0.782 -1.4804 -0.3436 -0.1976
 4299TIP3   OH234311   4.849   0.148  11.914 -0.6866 -0.0088  0.2231
 4299TIP3    H134312   4.859   0.241  11.892 -0.8335  0.0608  0.4411
 4299TIP3    H234313   4.863   0.144  12.008 -2.7526  0.1239  0.5816
 4300TIP3   OH234314   6.192   6.212  14.322  0.0140  0.1641  0.2116
 4300TIP3    H134315   6.264   6.270  14.297  1.0650 -0.6281  1.2860
 4300TIP3    H234316   6.175   6.234  14.414 -1.2211  0.4296 -0.0697
 4301TIP3   OH234317   2.512   4.263  16.538 -0.0912  0.1905 -0.8547
 4301TIP3    H134318   2.590   4.270  16.483  0.7077  0.3995  0.2725
 4301TIP3    H234319   2.444   4.310  16.490  0.7050  0.7319 -1.4669
 4302TIP3   OH234320   0.215   4.044  11.532  0.0664 -0.0249 -0.2266
 4302TIP3    H134321   0.261   4.008  11.608 -0.6138  1.1850  0.7943
 4302TIP3    H234322   0.281   4.046  11.462  0.7820 -0.8716  0.4127
 4303TIP3   OH234323   4.396   6.536   4.064  1.2562 -0.2930  0.2325
 4303TIP3    H134324   4.365   6.616   4.020  0.1523  0.6471  2.5687
 4303TIP3    H234325   4.316   6.488   4.084  1.8782 -1.6916 -0.5261
 4304TIP3   OH234326   3.823   3.855   4.514  0.1185 -0.4882  0.3054
 4304TIP3    H134327   3.842   3.948   4.526  0.0923 -0.5854  1.1383
 4304TIP3    H234328   3.763   3.833   4.585  1.1455 -1.4430  0.9033
 4305TIP3   OH234329   2.890   2.877  16.615  0.3446 -0.7241  0.0289
 4305TIP3    H134330   2.802   2.899  16.584  0.1465 -0.0794  0.9962
 4305TIP3    H234331   2.924   2.960  16.648  0.6022 -1.3407  1.3536
 4306TIP3   OH234332   0.138   5.992  11.029  0.0723  0.6086  0.1353
 4306TIP3    H134333   0.135   6.000  11.124  1.0550  1.9214  0.1024
 4306TIP3    H234334   0.125   6.082  10.998 -1.4385  0.0242 -1.0312
 4307TIP3   OH234335   4.273   4.061  11.952  0.2693  0.6900  0.7845
 4307TIP3    H134336   4.360   4.041  11.987  1.3765 -0.0674 -2.1405
 4307TIP3    H234337   4.286   4.141  11.902 -0.1645 -0.5248 -1.3712
 4308TIP3   OH234338   0.964   2.805  17.012  0.0839 -0.4698 -0.3136
 4308TIP3    H134339   0.988   2.715  16.990  0.4080 -0.0384 -1.7764
 4308TIP3    H234340   0.943   2.801  17.106  0.6997 -1.9317 -0.2096
 4309TIP3   OH234341   6.717   2.639  10.387  0.3521  0.0017 -0.3139
 4309TIP3    H134342   6.718   2.549  10.354 -2.4236  0.6644 -2.6829
 4309TIP3    H234343   6.630   2.649  10.425  0.0318  2.0341 -1.4386
 4310TIP3   OH234344   6.190   4.423  13.789  0.9122 -0.1562  0.3811
 4310TIP3    H134345   6.166   4.449  13.877  0.1375  0.0129  0.1304
 4310TIP3    H234346   6.140   4.343  13.773 -0.2783  0.7337 -0.5062
 4311TIP3   OH234347   6.121   5.181   4.949 -0.0030  0.4956  0.3683
 4311TIP3    H134348   6.105   5.095   4.989 -0.6314  0.4944  0.1360
 4311TIP3    H234349   6.175   5.228   5.013  0.9512 -0.3196  0.1890
 4312TIP3   OH234350   2.770   3.776  13.420  0.3349  0.1716 -0.3822
 4312TIP3    H134351   2.716   3.801  13.345 -0.3026  0.9585  0.3182
 4312TIP3    H234352   2.852   3.824  13.408 -0.2395  1.3136  0.0564
 4313TIP3   OH234353   1.623   1.431   1.356  0.9914 -0.3769  0.0047
 4313TIP3    H134354   1.563   1.474   1.417  1.4079  2.8852 -1.6853
 4313TIP3    H234355   1.566   1.391   1.290  0.5936  0.3105 -0.0783
 4314TIP3   OH234356   0.815   3.085  17.156  0.3026 -0.0598 -0.2471
 4314TIP3    H134357   0.766   3.086  17.238 -0.2201  0.0817 -0.5544
 4314TIP3    H234358   0.826   2.992  17.136 -0.2146 -0.0957 -0.3868
 4315TIP3   OH234359   1.772   6.779   3.913 -0.9609 -0.1801 -0.4607
 4315TIP3    H134360   1.677   6.781   3.901 -1.1850 -2.6369  0.3552
 4315TIP3    H234361   1.798   6.690   3.889  0.5095 -0.8418  2.9170
 4316TIP3   OH234362   0.267   0.281  16.676 -0.2087  0.7305  0.1384
 4316TIP3    H134363   0.318   0.328  16.610  1.7899  3.6826  3.3881
 4316TIP3    H234364   0.332   0.227  16.722 -1.1842  0.0948  0.7964
 4317TIP3   OH234365   1.404   2.658   5.794  0.2746  0.0551  0.1874
 4317TIP3    H134366   1.360   2.577   5.819  1.7916 -0.9103 -0.1571
 4317TIP3    H234367   1.368   2.679   5.707 -2.2493  1.3936  1.4313
 4318TIP3   OH234368   2.695   0.115  14.244  0.5464 -0.3473 -0.4573
 4318TIP3    H134369   2.634   0.188  14.251  0.8879  0.0006 -1.0175
 4318TIP3    H234370   2.647   0.039  14.277  0.9805  0.5528  2.5973
 4319TIP3   OH234371   3.598   5.440   1.568 -0.1411 -0.1841  0.2591
 4319TIP3    H134372   3.551   5.399   1.496  0.3461 -1.0337  0.4086
 4319TIP3    H234373   3.680   5.391   1.574 -0.2039 -0.1678  1.4336
 4320TIP3   OH234374   6.174   1.707  11.929 -0.4285 -0.3069  0.6155
 4320TIP3    H134375   6.104   1.738  11.872 -0.4998 -0.5000  0.5985
 4320TIP3    H234376   6.138   1.712  12.017 -1.1369 -2.1908  0.4597
 4321TIP3   OH234377   0.577   4.850   3.786  0.0000  0.1708  0.0340
 4321TIP3    H134378   0.485   4.874   3.777 -0.0348  1.9040  3.4304
 4321TIP3    H234379   0.579   4.755   3.774 -1.3548  0.4703 -4.7469
 4322TIP3   OH234380   0.548   2.391  16.460 -0.0365 -0.7481 -0.0434
 4322TIP3    H134381   0.498   2.473  16.458 -0.1785 -0.8257 -2.3357
 4322TIP3    H234382   0.521   2.345  16.381  2.5846 -1.4467 -0.6173
 4323TIP3   OH234383   0.894   3.678  12.050 -0.3445  0.2069 -0.3457
 4323TIP3    H134384   0.805   3.665  12.017  0.4958  0.6039 -3.0485
 4323TIP3    H234385   0.908   3.772  12.047  0.1285  0.1570  0.1574
 4324TIP3   OH234386   5.268   2.648   1.111 -0.2369  0.7399 -0.6032
 4324TIP3    H134387   5.253   2.683   1.199 -1.7552 -0.7426 -0.2217
 4324TIP3    H234388   5.361   2.662   1.095  0.5638 -0.8094  2.1053
 4325TIP3   OH234389   5.301   3.138  16.577 -0.1101 -0.1075  0.2577
 4325TIP3    H134390   5.297   3.043  16.580 -0.7922 -0.0648  0.8867
 4325TIP3    H234391   5.334   3.163  16.663 -0.0587  0.2384  0.1402
 4326TIP3   OH234392   6.070   2.172   5.012 -0.1060  0.0864  0.6334
 4326TIP3    H134393   5.990   2.162   4.960 -1.1608  1.2948  1.9485
 4326TIP3    H234394   6.128   2.223   4.956 -0.0339 -1.1904 -0.5190
 4327TIP3   OH234395   6.607   4.370  14.450  0.1101 -0.5019 -0.5803
 4327TIP3    H134396   6.679   4.324  14.494  0.0380  0.6051  0.7696
 4327TIP3    H234397   6.627   4.362  14.357  0.8936 -1.9373 -0.3308
 4328TIP3   OH234398   0.611   4.971   6.240 -0.1781  0.0514 -0.2540
 4328TIP3    H134399   0.633   5.059   6.209 -0.7527  0.7170  1.1036
 4328TIP3    H234400   0.677   4.952   6.306 -0.2102 -0.4229 -0.3568
 4329TIP3   OH234401   1.443   0.467   0.069 -0.7112  0.4702  0.2090
 4329TIP3    H134402   1.515   0.507   0.118  1.0150 -0.3685 -1.4837
 4329TIP3    H234403   1.445   0.510  -0.016 -1.4989 -0.3452 -0.2372
 4330TIP3   OH234404   5.580   0.491  12.492  0.3599  0.0703 -0.5003
 4330TIP3    H134405   5.566   0.400  12.518 -0.2242  0.2923  0.0041
 4330TIP3    H234406   5.529   0.501  12.411 -0.6580  0.2865  0.1482
 4331TIP3   OH234407   5.864   5.341  16.284 -0.8706 -0.1725  0.0135
 4331TIP3    H134408   5.824   5.302  16.206 -1.0409 -2.3325  1.0854
 4331TIP3    H234409   5.957   5.321  16.275 -0.8914 -0.4230  0.3547
 4332TIP3   OH234410   3.745   5.047  13.580 -0.1764 -0.5023  0.1421
 4332TIP3    H134411   3.675   5.013  13.636  1.0005  0.2071  2.1516
 4332TIP3    H234412   3.809   5.083  13.641  1.3063  0.1219 -1.6861
 4333TIP3   OH234413   6.011   0.387  15.515 -0.4198  0.5149 -0.2128
 4333TIP3    H134414   5.948   0.429  15.456 -0.8409 -0.8722 -0.7814
 4333TIP3    H234415   6.055   0.321  15.460  1.1793  1.0952  0.3019
 4334TIP3   OH234416   0.224   1.487  15.792  0.4312 -0.5798  1.0252
 4334TIP3    H134417   0.188   1.398  15.795  0.5947 -0.8571 -2.1081
 4334TIP3    H234418   0.280   1.492  15.870  0.8189 -3.3950  1.0419
 4335TIP3   OH234419   3.433   3.254   3.329  0.1362 -0.1867  0.2527
 4335TIP3    H134420   3.371   3.278   3.398  1.2599  0.6263  1.0112
 4335TIP3    H234421   3.429   3.327   3.267 -0.0295 -0.3797  0.0317
 4336TIP3   OH234422   5.562   2.921  12.549 -0.0468  0.4689 -0.0109
 4336TIP3    H134423   5.594   2.831  12.539  1.3358  1.0378 -0.9112
 4336TIP3    H234424   5.541   2.928  12.642 -2.7390 -1.5730 -0.3159
 4337TIP3   OH234425   5.191   6.081   5.778  0.5178  0.2717 -0.1361
 4337TIP3    H134426   5.121   6.105   5.840 -0.8260 -0.0277 -1.4726
 4337TIP3    H234427   5.205   5.988   5.794  0.1726  0.1930 -0.2713
 4338TIP3   OH234428   5.500   3.618  15.698  0.4174  0.2278 -0.0277
 4338TIP3    H134429   5.586   3.576  15.701  1.0130  1.1814 -2.2630
 4338TIP3    H234430   5.440   3.549  15.670  0.3940 -0.4295  1.5047
 4339TIP3   OH234431   1.686   4.216   5.649 -0.6663 -0.5654  0.0615
 4339TIP3    H134432   1.591   4.220   5.661 -0.7386 -1.9855  0.0852
 4339TIP3    H234433   1.709   4.302   5.613 -2.0854 -0.5289 -0.8252
 4340TIP3   OH234434   2.191   6.410  16.053 -0.4643 -0.2128 -0.0628
 4340TIP3    H134435   2.113   6.363  16.080  0.9471 -0.9841  3.1960
 4340TIP3    H234436   2.261   6.376  16.109  1.6758  2.2990 -0.9592
 4341TIP3   OH234437   0.145   3.208   6.091 -0.5180 -0.1112 -0.1540
 4341TIP3    H134438   0.082   3.175   6.154 -0.9625  1.0480  0.0256
 4341TIP3    H234439   0.220   3.148   6.098 -1.0364 -0.6849  0.6115
 4342TIP3   OH234440   5.484   2.882  12.827  0.2360  0.2469  0.3763
 4342TIP3    H134441   5.438   2.959  12.860 -0.7388 -0.2449  0.1817
 4342TIP3    H234442   5.429   2.808  12.852  1.3228 -0.4377  0.8580
 4343TIP3   OH234443   0.250   2.715  13.995  0.7918  0.5789  0.1643
 4343TIP3    H134444   0.257   2.787  14.058 -0.1662 -0.3579  1.4083
 4343TIP3    H234445   0.306   2.646  14.030  1.2553  0.4987 -0.7098
 4344TIP3   OH234446   6.576   0.258  12.431 -0.1283  0.2752 -0.3843
 4344TIP3    H134447   6.650   0.319  12.433  0.4155 -0.3506 -1.1585
 4344TIP3    H234448   6.538   0.264  12.519  1.3686 -0.0368  0.3190
 4345TIP3   OH234449   1.046   5.387   1.980  0.7453 -0.4178  0.7443
 4345TIP3    H134450   0.951   5.394   1.991  0.4862 -0.1030 -1.2794
 4345TIP3    H234451   1.069   5.303   2.019 -0.4219 -0.6746  0.9142
 4346TIP3   OH234452   6.119   4.839   4.014  0.4690 -0.1912 -0.3906
 4346TIP3    H134453   6.024   4.853   4.017  0.5820  0.6986 -0.5479
 4346TIP3    H234454   6.137   4.818   3.922  0.5035  0.3163 -0.5034
 4347TIP3   OH234455   5.988   4.674  14.328 -1.1223 -0.2270 -0.0753
 4347TIP3    H134456   5.914   4.733  14.333 -0.2231  0.9941 -0.6636
 4347TIP3    H234457   5.950   4.589  14.306 -2.3046  0.4484 -0.7232
 4348TIP3   OH234458   0.345   0.907  16.104 -0.5428 -0.0025 -0.3059
 4348TIP3    H134459   0.283   0.855  16.053 -0.6841  0.2188 -0.3618
 4348TIP3    H234460   0.410   0.844  16.134 -0.5955 -0.1761 -0.5526
 4349TIP3   OH234461   1.170   0.750  15.623  0.0340 -0.3771  0.2240
 4349TIP3    H134462   1.255   0.722  15.658  0.3296  0.4447  0.1953
 4349TIP3    H234463   1.176   0.846  15.620 -0.2577 -0.3713 -1.3417
 4350TIP3   OH234464   2.081   4.707   1.960 -0.1109  0.0191 -0.3088
 4350TIP3    H134465   2.029   4.643   1.912 -2.5048  2.2079 -0.8780
 4350TIP3    H234466   2.083   4.675   2.050 -2.2241 -0.3425 -0.3553
 4351TIP3   OH234467   2.199   6.118  13.133 -0.1095  0.3390 -0.6021
 4351TIP3    H134468   2.179   6.109  13.040 -3.4080  1.6116 -0.1122
 4351TIP3    H234469   2.135   6.181  13.166  1.7428  0.8685  2.3235
 4352TIP3   OH234470   1.014   2.754   2.070 -0.2089 -0.1660  0.2965
 4352TIP3    H134471   1.085   2.818   2.072  0.1850 -0.6289  1.4413
 4352TIP3    H234472   0.954   2.788   2.003  1.5404 -0.2769 -1.4413
 4353TIP3   OH234473   0.238   1.259   0.534  0.4059  0.0196 -0.4149
 4353TIP3    H134474   0.204   1.251   0.623  1.8551 -0.2521  0.1342
 4353TIP3    H234475   0.309   1.322   0.541  1.9704 -1.6239 -0.9490
 4354TIP3   OH234476   4.111   1.293   5.204  0.2758 -0.2687 -0.2676
 4354TIP3    H134477   4.044   1.244   5.155  0.3754 -0.6769  0.0034
 4354TIP3    H234478   4.093   1.385   5.183 -0.8013 -0.3252  0.3470
 4355TIP3   OH234479   2.711   1.112  11.578  0.3961 -0.0388 -0.1810
 4355TIP3    H134480   2.737   1.023  11.555 -0.1665 -0.4031  0.5439
 4355TIP3    H234481   2.728   1.119  11.671 -3.9790 -1.0922  0.9531
 4356TIP3   OH234482   4.912   2.359   4.238  0.3029 -0.1132 -0.2796
 4356TIP3    H134483   4.850   2.421   4.278 -0.5298 -1.2043  0.1617
 4356TIP3    H234484   4.865   2.276   4.236  1.4995 -0.8002 -0.6240
 4357TIP3   OH234485   4.865   3.084   4.500  0.0142  0.2558 -0.0024
 4357TIP3    H134486   4.844   3.163   4.549 -3.6328 -0.3653 -0.2700
 4357TIP3    H234487   4.894   3.115   4.414 -0.9808  1.3198  0.0251
 4358TIP3   OH234488   2.970   0.191  14.863 -0.0196  0.3975  0.2961
 4358TIP3    H134489   3.010   0.168  14.947 -0.6239 -1.4057  0.1318
 4358TIP3    H234490   2.925   0.274  14.880 -0.0577  0.1143  1.7338
 4359TIP3   OH234491   2.123   2.558   4.543  0.0560  0.1384 -0.7369
 4359TIP3    H134492   2.045   2.512   4.575  0.6038 -0.3347 -0.0418
 4359TIP3    H234493   2.103   2.651   4.556  0.1162 -0.0220  0.6942
 4360TIP3   OH234494   3.762   5.180   2.587  0.5885 -0.1428 -0.2733
 4360TIP3    H134495   3.811   5.160   2.667 -1.1993 -1.2895  0.6149
 4360TIP3    H234496   3.757   5.275   2.585  0.5159 -0.0879  1.1153
 4361TIP3   OH234497   4.635   0.667  16.815 -0.2186  0.7238  0.1263
 4361TIP3    H134498   4.640   0.762  16.822  0.7560  0.8390 -1.6605
 4361TIP3    H234499   4.663   0.647  16.726  0.7654 -1.3303  0.8226
 4362TIP3   OH234500   2.068   4.426   3.328 -0.8025  0.2935 -0.2017
 4362TIP3    H134501   2.014   4.441   3.406  1.8675  0.8192  1.6652
 4362TIP3    H234502   2.057   4.505   3.276 -0.4280  1.2036  1.0555
 4363TIP3   OH234503   2.270   2.236  13.377  0.4027 -0.0837  0.1389
 4363TIP3    H134504   2.348   2.194  13.415  0.8932  0.0717 -0.6720
 4363TIP3    H234505   2.208   2.164  13.365  0.7136 -0.3441  0.0651
 4364TIP3   OH234506   6.680   0.757   4.935  0.3918  0.1488  0.2189
 4364TIP3    H134507   6.707   0.720   5.019  1.9662  2.7248  0.9891
 4364TIP3    H234508   6.590   0.786   4.949  0.2070 -0.5658  0.5743
 4365TIP3   OH234509   4.628   2.452  16.109  0.5869  0.0076 -0.1653
 4365TIP3    H134510   4.709   2.503  16.107  1.0863 -0.7291  0.4876
 4365TIP3    H234511   4.615   2.432  16.201 -0.7638  0.7516 -0.1842
 4366TIP3   OH234512   1.738   0.254   0.996  0.0203  0.3749  0.1469
 4366TIP3    H134513   1.725   0.198   1.073  3.2313 -2.4301 -1.0656
 4366TIP3    H234514   1.803   0.319   1.024  1.4194 -0.8318 -0.1526
 4367TIP3   OH234515   5.881   6.498  16.104  0.8999  0.1773  0.1417
 4367TIP3    H134516   5.922   6.434  16.163 -0.2109  0.1654  0.9176
 4367TIP3    H234517   5.954   6.551  16.073  1.4741  0.4018  1.7867
 4368TIP3   OH234518   4.451   3.808  17.004  1.0922 -0.0614  0.0468
 4368TIP3    H134519   4.382   3.760  17.050  0.8698  0.2561  0.0499
 4368TIP3    H234520   4.494   3.742  16.951 -0.1962 -0.0070 -1.1302
 4369TIP3   OH234521   2.466   4.313   4.508 -0.0939  0.6201  0.4625
 4369TIP3    H134522   2.502   4.309   4.597 -0.5109  0.6185  0.6358
 4369TIP3    H234523   2.371   4.321   4.521 -0.4380 -1.8233  0.0391
 4370TIP3   OH234524   2.611   0.555   5.876 -0.0142  0.8739  0.1820
 4370TIP3    H134525   2.543   0.621   5.893 -0.3431  0.4401  0.5640
 4370TIP3    H234526   2.589   0.520   5.789 -0.6075  0.3427  0.5421
 4371TIP3   OH234527   4.091   5.557   4.822 -0.1914 -0.1171  0.1255
 4371TIP3    H134528   4.037   5.546   4.900  0.5036  0.2602  0.6736
 4371TIP3    H234529   4.098   5.652   4.810  0.1534 -0.1635 -0.0743
 4372TIP3   OH234530   3.679   2.243   5.381 -0.0653  0.2404 -0.2525
 4372TIP3    H134531   3.753   2.218   5.436  0.7972  0.0021 -1.4968
 4372TIP3    H234532   3.617   2.171   5.390  0.0028  0.2611  0.4881
 4373TIP3   OH234533   2.074   1.513   0.215  0.4010 -0.4419  0.0448
 4373TIP3    H134534   2.031   1.543   0.295 -0.6245 -2.9250  0.5121
 4373TIP3    H234535   2.008   1.461   0.170  1.5621 -0.6439 -1.4877
 4374TIP3   OH234536   1.410   4.100  12.237  0.2499 -0.0431 -0.2433
 4374TIP3    H134537   1.491   4.146  12.213 -0.5477  1.6626  0.1520
 4374TIP3    H234538   1.364   4.088  12.154  0.0525  0.7485 -0.2609
 4375TIP3   OH234539   6.196   4.948   2.346  0.0071 -0.6102  0.0219
 4375TIP3    H134540   6.115   4.981   2.385 -0.0843  0.3083 -0.9014
 4375TIP3    H234541   6.261   4.958   2.415 -0.5262 -0.7638  0.5624
 4376TIP3   OH234542   6.608   5.318   0.023  0.1418  0.1976 -0.0014
 4376TIP3    H134543   6.656   5.394  -0.010  2.7288 -1.2526  0.1722
 4376TIP3    H234544   6.611   5.255  -0.049  1.2410 -1.0497  1.0831
 4377TIP3   OH234545   2.961   0.012  14.669  0.1662 -0.1949  0.0769
 4377TIP3    H134546   2.894  -0.043  14.712 -1.6687  0.5560 -1.6770
 4377TIP3    H234547   2.981   0.079  14.734 -2.0344  0.5140  0.1272
 4378TIP3   OH234548   4.679   2.862  11.113 -0.0368  0.2515 -0.0602
 4378TIP3    H134549   4.628   2.807  11.054 -2.1411  0.1833  1.7237
 4378TIP3    H234550   4.676   2.949  11.073  0.4050 -0.1965 -1.1199
 4379TIP3   OH234551   6.398   0.190   3.101  0.4426 -0.0254  0.7936
 4379TIP3    H134552   6.463   0.120   3.109  0.8970  0.0936 -1.1869
 4379TIP3    H234553   6.450   0.268   3.078 -0.4044 -0.1424 -1.8048
 4380TIP3   OH234554   3.337   0.277   3.366 -0.8394 -0.2130  0.0465
 4380TIP3    H134555   3.294   0.352   3.324  0.9661  0.6444 -0.4089
 4380TIP3    H234556   3.386   0.316   3.439  0.0145 -0.9687 -0.1154
 4381TIP3   OH234557   2.534   1.098  12.510  0.5942 -0.8932  0.3233
 4381TIP3    H134558   2.481   1.040  12.565  1.2734 -0.5863  1.3281
 4381TIP3    H234559   2.481   1.112  12.431 -0.4858 -1.1932  0.9800
 4382TIP3   OH234560   2.182   3.989   3.081  0.3207  0.2425  0.0422
 4382TIP3    H134561   2.101   3.949   3.112  0.8126  0.0367  1.1075
 4382TIP3    H234562   2.153   4.060   3.024 -0.5813 -0.9261 -1.0241
 4383TIP3   OH234563   2.198   5.294   0.055 -0.2307  0.1421  0.0440
 4383TIP3    H134564   2.109   5.285   0.020 -0.3746 -0.3240  0.5200
 4383TIP3    H234565   2.228   5.204   0.068 -0.3009  0.2953  1.4079
 4384TIP3   OH234566   5.003   5.447   5.495  0.2726  0.6843 -0.2752
 4384TIP3    H134567   4.931   5.420   5.437  1.0734 -0.8985 -0.5960
 4384TIP3    H234568   5.077   5.462   5.436  0.6419  0.6919  0.1868
 4385TIP3   OH234569   1.132   1.950  15.406  0.6361  0.0640  0.0099
 4385TIP3    H134570   1.088   1.946  15.321  0.6230 -0.0882  0.0241
 4385TIP3    H234571   1.099   2.030  15.446  0.0430 -0.2745  0.2005
 4386TIP3   OH234572   6.049   1.244  13.713  0.1114 -0.0178 -0.0950
 4386TIP3    H134573   6.012   1.318  13.761 -1.6487 -0.8020 -0.1626
 4386TIP3    H234574   6.091   1.190  13.781 -0.9480 -0.2955  0.3630
 4387TIP3   OH234575   3.501   4.864   0.203 -0.7855 -0.0620  0.0482
 4387TIP3    H134576   3.529   4.953   0.225  0.1255 -0.0477 -1.0448
 4387TIP3    H234577   3.501   4.817   0.286 -1.7161  1.0500  0.7218
 4388TIP3   OH234578   6.443   2.027  16.931 -0.6943  0.6046  0.5889
 4388TIP3    H134579   6.422   1.981  17.012 -0.1561 -1.6836 -0.4694
 4388TIP3    H234580   6.535   2.006  16.915 -1.1775 -0.3306 -1.3665
 4389TIP3   OH234581   3.983   0.020   2.069 -0.1747 -0.0020  0.3440
 4389TIP3    H134582   4.062   0.005   2.120  0.3184  1.3124 -0.0145
 4389TIP3    H234583   3.915  -0.028   2.117  0.1282  1.7084  2.6430
 4390TIP3   OH234584   1.195   3.336  13.866 -0.0595  0.0576 -0.2390
 4390TIP3    H134585   1.195   3.256  13.814  0.0960 -0.3414  0.3581
 4390TIP3    H234586   1.264   3.322  13.931  0.4078  0.9404 -0.5209
 4391TIP3   OH234587   4.344   6.214   3.925 -0.2474  0.5243  0.2388
 4391TIP3    H134588   4.277   6.152   3.898 -0.1591 -0.5116  2.2009
 4391TIP3    H234589   4.296   6.284   3.969 -0.1387  0.3472  0.6459
 4392TIP3   OH234590   2.734   1.895  17.077  0.7003  0.2822 -0.4480
 4392TIP3    H134591   2.726   1.838  17.000 -0.1914  0.3650 -0.4284
 4392TIP3    H234592   2.649   1.888  17.121  1.9740 -1.7279  1.9582
 4393TIP3   OH234593   6.383   5.603  16.398  0.4077 -0.4316 -0.1946
 4393TIP3    H134594   6.470   5.637  16.420  1.1992 -1.6953 -1.1915
 4393TIP3    H234595   6.362   5.543  16.469  0.1469  0.1887  0.2609
 4394TIP3   OH234596   1.421   4.893  11.207 -0.6007  0.0471 -0.1657
 4394TIP3    H134597   1.471   4.898  11.126 -0.3453  1.0056  0.0367
 4394TIP3    H234598   1.392   4.802  11.212  0.5013 -0.3512 -0.6667
 4395TIP3   OH234599   6.744   2.297   4.851 -0.7918 -0.3128 -0.8202
 4395TIP3    H134600   6.758   2.389   4.873 -1.6297 -0.1238 -1.0617
 4395TIP3    H234601   6.657   2.277   4.886 -1.2038 -0.6222 -1.9801
 4396TIP3   OH234602   2.015   2.137   4.326  1.1148  0.7714 -0.3607
 4396TIP3    H134603   2.110   2.144   4.310  0.7582  2.0833 -2.2199
 4396TIP3    H234604   1.983   2.226   4.316 -0.4352  0.2158 -0.5008
 4397TIP3   OH234605   4.544   5.319   4.417  0.0856  0.5336 -0.0843
 4397TIP3    H134606   4.596   5.255   4.466  2.1101 -0.9782 -3.7532
 4397TIP3    H234607   4.549   5.399   4.468  4.1476 -0.1859  0.9767
 4398TIP3   OH234608   0.406   2.174   2.774 -0.7474 -0.9702  0.5699
 4398TIP3    H134609   0.495   2.139   2.774 -0.8016 -1.1092  0.3839
 4398TIP3    H234610   0.391   2.202   2.864  0.2960  1.1298  0.1641
 4399TIP3   OH234611   4.720   4.708   5.272  0.1115 -0.4267  0.3128
 4399TIP3    H134612   4.647   4.769   5.284  0.2919 -0.4353  1.5740
 4399TIP3    H234613   4.687   4.624   5.304  0.6186 -0.4670  0.7382
 4400TIP3   OH234614   3.903   2.956   6.652  0.4759  0.3941  0.0748
 4400TIP3    H134615   3.956   3.010   6.594  0.7900  0.0587  0.0427
 4400TIP3    H234616   3.844   3.017   6.696 -1.0412  0.4623 -1.9247
 4401TIP3   OH234617   5.879   0.234  13.050 -0.5308  0.5455  1.1459
 4401TIP3    H134618   5.883   0.224  12.954 -1.5126  1.5502  0.9816
 4401TIP3    H234619   5.806   0.178  13.076  1.3054 -1.7754  1.6661
 4402TIP3   OH234620   6.605   0.162   5.261  0.1515  0.0150  0.2301
 4402TIP3    H134621   6.650   0.126   5.337 -0.8922  0.3296  1.0227
 4402TIP3    H234622   6.576   0.085   5.212  1.6739 -0.1856 -0.3847
 4403TIP3   OH234623   3.695   2.800   5.212  0.4941 -0.3567 -1.2255
 4403TIP3    H134624   3.677   2.706   5.214 -0.0582 -0.2495  0.3295
 4403TIP3    H234625   3.780   2.807   5.169  0.3153 -1.5288 -1.7994
 4404TIP3   OH234626   2.591   2.144  15.735 -0.3191 -0.3245 -0.3262
 4404TIP3    H134627   2.680   2.166  15.707 -0.9455 -0.6450 -2.7349
 4404TIP3    H234628   2.566   2.070  15.681 -1.2569 -1.7891  1.9444
 4405TIP3   OH234629   6.617   1.876   0.063 -0.4103 -0.3745 -0.6612
 4405TIP3    H134630   6.623   1.918   0.149  0.0174 -0.5327 -0.6154
 4405TIP3    H234631   6.692   1.910   0.014  1.2208 -2.6749  0.0717
 4406TIP3   OH234632   3.832   2.422  12.400  0.0535  0.0076 -0.1950
 4406TIP3    H134633   3.816   2.409  12.493  0.4234  0.0945 -0.1172
 4406TIP3    H234634   3.751   2.460  12.366  0.0194  0.2430  0.1463
 4407TIP3   OH234635   2.574   2.679   0.796 -0.3541  0.3933 -0.6642
 4407TIP3    H134636   2.651   2.676   0.853 -0.7832  0.8246 -0.0612
 4407TIP3    H234637   2.551   2.587   0.782  0.4068  0.2504 -1.0496
 4408TIP3   OH234638   3.072   1.986   1.654  0.1912 -0.2430 -0.0820
 4408TIP3    H134639   3.149   1.937   1.624  0.8041  0.3597  0.4565
 4408TIP3    H234640   3.090   2.077   1.630  1.1854  0.4508  2.8369
 4409TIP3   OH234641   1.371   5.718  12.261  0.2666  0.3746  0.2398
 4409TIP3    H134642   1.322   5.688  12.185 -1.3877  0.6977  1.1449
 4409TIP3    H234643   1.440   5.774  12.225  0.9592 -1.3070 -1.1678
 4410TIP3   OH234644   6.298   3.524   2.473 -0.4941 -0.3757 -0.1345
 4410TIP3    H134645   6.312   3.580   2.549  0.4206  0.1566 -0.6637
 4410TIP3    H234646   6.210   3.546   2.442  0.2457  1.6560 -0.9987
 4411TIP3   OH234647   5.327   6.755   1.656 -0.8195 -0.0534  0.4452
 4411TIP3    H134648   5.306   6.775   1.565  0.4055  1.5548  0.4693
 4411TIP3    H234649   5.333   6.659   1.658 -1.1709 -0.1456 -1.0794
 4412TIP3   OH234650   6.362   2.503  11.246 -0.2299  0.1925  0.3745
 4412TIP3    H134651   6.303   2.558  11.195  2.2864  1.7837 -1.0673
 4412TIP3    H234652   6.354   2.416  11.206 -0.9136  0.5901 -0.3903
 4413TIP3   OH234653   1.461   5.831  16.661  0.0551 -0.1417  0.0151
 4413TIP3    H134654   1.483   5.918  16.693  0.7824 -0.2203 -0.2538
 4413TIP3    H234655   1.366   5.832  16.651 -0.2928 -0.3271  2.7445
 4414TIP3   OH234656   3.074   1.329  12.436 -0.7359  0.3629 -0.0157
 4414TIP3    H134657   3.142   1.283  12.388 -1.2309  0.3963 -0.7673
 4414TIP3    H234658   3.107   1.419  12.444 -0.4567  0.2515  0.1010
 4415TIP3   OH234659   6.361   1.417  13.737  0.1284  0.7258 -0.6683
 4415TIP3    H134660   6.372   1.488  13.800  1.2366  0.2966 -0.3608
 4415TIP3    H234661   6.268   1.421  13.713 -0.6358  0.1050  1.9127
 4416TIP3   OH234662   5.231   3.823  12.792 -0.2090  1.3413  0.0254
 4416TIP3    H134663   5.168   3.778  12.848 -0.5327 -0.9884 -2.0487
 4416TIP3    H234664   5.279   3.881  12.852 -3.2312  2.1019  1.9241
 4417TIP3   OH234665   0.969   5.869   0.499 -0.0212  0.1251 -0.2927
 4417TIP3    H134666   0.994   5.849   0.409 -0.1004 -1.7660  0.0502
 4417TIP3    H234667   1.039   5.831   0.552 -1.5336 -1.6803  0.5282
 4418TIP3   OH234668   0.198   3.541   3.234  0.7093  0.0756 -0.2968
 4418TIP3    H134669   0.214   3.614   3.174  1.8103 -0.7185 -0.9934
 4418TIP3    H234670   0.261   3.553   3.305 -0.1083  0.6096  0.3643
 4419TIP3   OH234671   4.486   1.662  12.900 -0.0985  0.3226  0.0839
 4419TIP3    H134672   4.443   1.681  12.983  1.5645  0.4783  0.9519
 4419TIP3    H234673   4.516   1.747  12.868  1.3066  0.0140  0.5206
 4420TIP3   OH234674   1.255   2.176  15.185  0.1823  0.0426 -0.3908
 4420TIP3    H134675   1.183   2.113  15.194 -1.0746  1.3409 -1.1364
 4420TIP3    H234676   1.236   2.244  15.250  0.1041  0.9665 -1.3569
 4421TIP3   OH234677   1.222   4.445  16.681  0.6882  0.1892  0.2025
 4421TIP3    H134678   1.295   4.400  16.639  1.8168  1.8069  0.3194
 4421TIP3    H234679   1.185   4.500  16.612  1.0982  1.1488  0.7304
 4422TIP3   OH234680   6.300   6.372  11.658  0.4584  0.2617  0.4377
 4422TIP3    H134681   6.267   6.292  11.616  1.4192  1.5361 -3.1214
 4422TIP3    H234682   6.226   6.404  11.710 -0.9801 -1.3340 -0.4994
 4423TIP3   OH234683   2.280   1.116   0.814 -0.2090  0.0240 -0.2867
 4423TIP3    H134684   2.258   1.050   0.880 -1.3456  0.3513 -0.3056
 4423TIP3    H234685   2.321   1.187   0.864 -0.0022 -0.2241 -0.1034
 4424TIP3   OH234686   2.224   6.652  11.777  0.0907  0.3492 -0.0815
 4424TIP3    H134687   2.145   6.639  11.828  0.0496 -1.5033 -0.5677
 4424TIP3    H234688   2.241   6.746  11.783 -1.9468  0.7310  0.2906
 4425TIP3   OH234689   6.344   5.140  16.655 -0.8315  0.3860 -0.6743
 4425TIP3    H134690   6.373   5.052  16.678 -1.7724  0.0866 -0.6050
 4425TIP3    H234691   6.421   5.180  16.614 -0.2645 -0.3156 -0.3264
 4426TIP3   OH234692   6.722   3.795   1.746 -0.4457  0.5745  0.3116
 4426TIP3    H134693   6.660   3.842   1.801  1.2075  3.3261 -0.0236
 4426TIP3    H234694   6.775   3.863   1.704  0.1902 -1.4818 -2.5617
 4427TIP3   OH234695   2.143   0.207  16.308 -0.1697  0.1079  0.2492
 4427TIP3    H134696   2.085   0.244  16.242  0.1879 -1.1166 -0.7911
 4427TIP3    H234697   2.129   0.261  16.386 -1.8218  0.5591 -0.3303
 4428TIP3   OH234698   6.075   5.020   2.105  0.6118 -0.0675  0.3769
 4428TIP3    H134699   6.130   5.008   2.181 -0.2923  0.0984  1.0805
 4428TIP3    H234700   6.102   4.952   2.043  0.6059 -0.9235  1.2923
 4429TIP3   OH234701   5.760   5.169  14.248 -0.0380  0.0630 -0.2716
 4429TIP3    H134702   5.748   5.127  14.162  0.4785 -1.3268  0.3081
 4429TIP3    H234703   5.814   5.246  14.229  4.2080 -2.6989 -0.6976
 4430TIP3   OH234704   5.353   6.420  15.199 -0.0650  0.1874 -0.0676
 4430TIP3    H134705   5.368   6.503  15.155  0.8880 -0.3962 -0.8859
 4430TIP3    H234706   5.432   6.369  15.182 -0.7828 -1.0217  0.1100
 4431TIP3   OH234707   6.340   2.052   5.399 -0.0797  0.1283 -0.0715
 4431TIP3    H134708   6.274   2.012   5.455  0.0047 -2.0306 -1.4137
 4431TIP3    H234709   6.295   2.065   5.315  0.7690  0.0838 -0.5397
 4432TIP3   OH234710   3.634   1.276   2.041  0.0541  0.4986 -0.0315
 4432TIP3    H134711   3.663   1.365   2.020  1.1410 -0.1003 -1.2924
 4432TIP3    H234712   3.539   1.279   2.036  0.1307  1.1642 -2.1567
 4433TIP3   OH234713   1.368   1.573   0.832 -0.0902  0.0561  0.7193
 4433TIP3    H134714   1.437   1.587   0.767 -0.0109 -0.9377  0.5759
 4433TIP3    H234715   1.300   1.525   0.784 -0.5409  0.3458  1.0647
 4434TIP3   OH234716   0.423   3.845  16.487 -0.1327 -0.2979  0.8764
 4434TIP3    H134717   0.446   3.918  16.545 -1.1257  0.5409  0.2531
 4434TIP3    H234718   0.327   3.843  16.487 -0.1393 -0.7627 -0.1419
 4435TIP3   OH234719   1.789   4.869  13.637 -0.0277 -0.2144 -0.1440
 4435TIP3    H134720   1.810   4.904  13.723 -1.6685  0.0487  0.1827
 4435TIP3    H234721   1.771   4.776  13.651 -0.6178 -0.1017 -0.1427
 4436TIP3   OH234722   2.894   5.703  15.931 -0.1260  0.4831 -0.4045
 4436TIP3    H134723   2.843   5.784  15.931 -0.4798  0.2895  1.0696
 4436TIP3    H234724   2.905   5.682  16.024  3.7252  1.1725 -0.5537
 4437TIP3   OH234725   4.224   5.042  16.950 -0.5049  0.0842 -0.4556
 4437TIP3    H134726   4.272   5.123  16.937  1.8326 -1.3457 -1.3799
 4437TIP3    H234727   4.162   5.061  17.021  0.6038  2.3713 -0.0357
 4438TIP3   OH234728   1.320   0.466   0.925 -0.3500  0.3365 -0.7210
 4438TIP3    H134729   1.391   0.460   0.862 -0.1173  2.7138 -0.7749
 4438TIP3    H234730   1.276   0.382   0.920  2.5483 -1.3326 -0.5407
 4439TIP3   OH234731   3.551   0.328  13.516 -0.0816 -0.2707 -0.2824
 4439TIP3    H134732   3.477   0.331  13.456  1.1712  1.5619 -1.8227
 4439TIP3    H234733   3.602   0.252  13.487  0.0573  0.0878 -1.0010
 4440TIP3   OH234734   5.210   6.700   3.047  0.2671  0.0989  0.0593
 4440TIP3    H134735   5.286   6.742   3.087 -0.2726  0.7103  0.4541
 4440TIP3    H234736   5.206   6.737   2.959 -1.0195  2.0024  0.8424
 4441TIP3   OH234737   0.946   4.339  15.305  0.0621  0.3275 -0.0455
 4441TIP3    H134738   0.994   4.377  15.232 -0.5497  0.9530 -0.1350
 4441TIP3    H234739   0.859   4.320  15.270 -0.3927  1.0848  0.6281
 4442TIP3   OH234740   1.189   0.442   2.650  0.8323 -0.1327  0.4399
 4442TIP3    H134741   1.151   0.396   2.725  0.3927  0.4706  0.5929
 4442TIP3    H234742   1.210   0.529   2.683  1.6772 -0.2159  0.1585
 4443TIP3   OH234743   0.110   1.570  11.181 -0.2743  0.0844 -0.0334
 4443TIP3    H134744   0.123   1.582  11.275  0.1475 -0.3480 -0.0315
 4443TIP3    H234745   0.148   1.649  11.142 -2.8491  1.5790  0.2793
 4444TIP3   OH234746   5.479   5.018   2.175  0.4781 -0.3341  0.1237
 4444TIP3    H134747   5.461   4.931   2.140 -0.6151 -0.6729  1.4217
 4444TIP3    H234748   5.552   5.006   2.235 -0.9665 -0.8460  1.9010
 4445TIP3   OH234749   1.166   3.567  11.382  0.7503  0.2462  0.1447
 4445TIP3    H134750   1.184   3.575  11.289 -0.9546  0.3724 -0.1967
 4445TIP3    H234751   1.162   3.473  11.398 -0.4650  0.2244 -0.2342
 4446TIP3   OH234752   5.718   4.233   0.128 -0.4080 -0.2638 -0.1484
 4446TIP3    H134753   5.714   4.316   0.081 -1.2041  0.1703  0.6376
 4446TIP3    H234754   5.784   4.246   0.196  1.1380 -1.0723 -1.4206
 4447TIP3   OH234755   4.222   4.521  16.913 -0.2516  0.0611  0.7338
 4447TIP3    H134756   4.307   4.477  16.910 -0.5742 -0.5200 -0.0132
 4447TIP3    H234757   4.242   4.613  16.895  0.0965 -0.2712 -0.6895
 4448TIP3   OH234758   1.770   5.625  13.236 -0.1141  0.2835 -0.1577
 4448TIP3    H134759   1.823   5.681  13.293 -0.3665  0.4998 -0.1299
 4448TIP3    H234760   1.746   5.682  13.162 -1.4887  0.6310  0.5232
 4449TIP3   OH234761   3.537   1.706  11.942  0.4159 -0.0185 -0.0252
 4449TIP3    H134762   3.571   1.783  11.987 -0.8523 -0.6480  2.1804
 4449TIP3    H234763   3.609   1.643  11.945  0.3991 -0.0184  1.1338
 4450TIP3   OH234764   6.434   1.702  16.530  0.4221  0.7505  0.0440
 4450TIP3    H134765   6.434   1.702  16.626 -2.1446  2.0821  0.1210
 4450TIP3    H234766   6.421   1.793  16.505  0.0519  0.2928 -1.5686
 4451TIP3   OH234767   6.693   2.791   0.028  0.3124 -0.0477 -0.2304
 4451TIP3    H134768   6.739   2.733   0.088 -0.6486 -0.8944 -0.2727
 4451TIP3    H234769   6.665   2.734  -0.044 -1.2076  0.3097  0.0297
 4452TIP3   OH234770   1.400   0.969  12.640  0.8176 -0.8142  0.3533
 4452TIP3    H134771   1.460   0.935  12.707 -0.1047 -3.1386  0.1065
 4452TIP3    H234772   1.379   0.892  12.586 -1.7963  0.0765 -0.0197
 4453TIP3   OH234773   2.029   3.810  14.696  0.4290 -0.0993 -0.7085
 4453TIP3    H134774   2.021   3.858  14.779 -0.4541 -0.9017 -0.3192
 4453TIP3    H234775   1.990   3.868  14.631  0.0872  0.0502 -0.3723
 4454TIP3   OH234776   0.448   3.714  12.198 -0.0153  0.8586 -0.6932
 4454TIP3    H134777   0.491   3.689  12.279 -0.1919  0.1008 -0.8195
 4454TIP3    H234778   0.361   3.744  12.225 -0.0248  0.7384 -0.5870
 4455TIP3   OH234779   3.062   2.115  16.061  0.5208  0.6822  0.0116
 4455TIP3    H134780   3.126   2.137  16.128 -0.9690  3.1320  0.7575
 4455TIP3    H234781   2.991   2.072  16.109  0.9565 -0.8181 -0.6142
 4456TIP3   OH234782   3.776   0.570   6.308 -0.5803 -0.1105  0.2511
 4456TIP3    H134783   3.848   0.519   6.345 -1.5556 -0.7245  1.3785
 4456TIP3    H234784   3.818   0.635   6.252  0.7560 -1.5046 -0.4265
 4457TIP3   OH234785   5.977   6.568   3.930  0.3754  0.6370 -0.2721
 4457TIP3    H134786   5.890   6.544   3.963  0.2636  1.1169 -0.2129
 4457TIP3    H234787   6.032   6.570   4.008  0.4772  0.1860 -0.3283
 4458TIP3   OH234788   1.367   5.933  13.836  0.4508 -0.5045  0.6859
 4458TIP3    H134789   1.335   6.021  13.853  0.9881 -0.1621 -0.0141
 4458TIP3    H234790   1.328   5.879  13.905 -0.8735  0.0488  0.3960
 4459TIP3   OH234791   0.712   5.186  12.506 -0.0110 -0.1152  0.1162
 4459TIP3    H134792   0.733   5.120  12.572 -1.5537 -0.1237  0.6300
 4459TIP3    H234793   0.631   5.226  12.537 -0.6464  0.0451 -1.6422
 4460TIP3   OH234794   0.881   0.006   0.955 -0.2976 -0.0399  0.0116
 4460TIP3    H134795   0.826  -0.001   0.877  0.7715  0.8251 -0.8550
 4460TIP3    H234796   0.819   0.011   1.027 -1.3867  1.1242 -0.9496
 4461TIP3   OH234797   5.385   4.138   3.835 -0.0797  0.1383 -0.6521
 4461TIP3    H134798   5.471   4.132   3.793 -0.2754 -1.5348 -0.8848
 4461TIP3    H234799   5.331   4.075   3.788 -0.9231 -0.1573  0.6718
 4462TIP3   OH234800   6.682   4.823  10.888  0.1365  0.3436  0.4171
 4462TIP3    H134801   6.626   4.901  10.885  0.0460  0.2567 -1.3441
 4462TIP3    H234802   6.624   4.751  10.863  0.8044  0.1120 -0.5041
 4463TIP3   OH234803   4.792   4.122  12.112  0.1114 -0.1913  0.7148
 4463TIP3    H134804   4.831   4.209  12.116 -0.7424  0.2083  0.5502
 4463TIP3    H234805   4.697   4.138  12.115 -0.0557 -1.1093  0.6018
 4464TIP3   OH234806   0.616   0.501  10.907 -0.6165 -0.2589  0.4973
 4464TIP3    H134807   0.544   0.515  10.845 -1.5130 -2.1615  1.0440
 4464TIP3    H234808   0.657   0.587  10.915 -1.6814  0.4690 -1.2355
 4465TIP3   OH234809   2.186   4.549  11.975 -0.1887  0.7366  0.7146
 4465TIP3    H134810   2.270   4.592  11.958 -0.6789  1.8370  0.9556
 4465TIP3    H234811   2.146   4.540  11.888 -0.0792  0.7854  0.6591
 4466TIP3   OH234812   5.668   1.567  16.485  0.2400  0.1184 -0.1523
 4466TIP3    H134813   5.608   1.576  16.559  0.8978  0.4405  0.3464
 4466TIP3    H234814   5.675   1.655  16.449 -1.6328 -0.3555 -1.8627
 4467TIP3   OH234815   5.563   1.218   1.915 -0.1156 -0.2014 -0.4195
 4467TIP3    H134816   5.508   1.192   1.989  0.8192  1.0775  0.7855
 4467TIP3    H234817   5.601   1.302   1.943  0.6188  0.0811 -2.1774
 4468TIP3   OH234818   1.969   3.389   6.066  0.2233  0.2619 -0.3602
 4468TIP3    H134819   1.951   3.474   6.105  2.0684 -0.0270  1.2707
 4468TIP3    H234820   2.061   3.393   6.040  0.0112 -0.8378 -1.3929
 4469TIP3   OH234821   6.184   3.665   3.460  0.6841 -0.3474 -0.3158
 4469TIP3    H134822   6.229   3.603   3.518  2.5373 -0.4340 -1.7148
 4469TIP3    H234823   6.198   3.628   3.372 -0.3796  0.7455 -0.9677
 4470TIP3   OH234824   4.181   1.813   2.670  0.1887  0.4251  0.5589
 4470TIP3    H134825   4.162   1.892   2.720 -2.6980 -0.0039  0.2745
 4470TIP3    H234826   4.118   1.749   2.702  0.2500 -0.7480 -1.5224
 4471TIP3   OH234827   4.589   0.285  15.085 -0.1552  0.4921  0.1213
 4471TIP3    H134828   4.494   0.296  15.079 -0.1982  0.9307  1.3026
 4471TIP3    H234829   4.602   0.220  15.154  0.4245  1.6952  1.1991
 4472TIP3   OH234830   5.650   6.766   6.010  0.0227 -0.3529  0.2088
 4472TIP3    H134831   5.566   6.720   6.011  0.3592 -1.0017 -0.3651
 4472TIP3    H234832   5.714   6.697   5.993  0.5138  0.3704 -1.0180
 4473TIP3   OH234833   0.484   1.667  16.827 -0.1159  0.0005 -0.2069
 4473TIP3    H134834   0.518   1.583  16.796 -2.1915 -0.5471 -1.1630
 4473TIP3    H234835   0.398   1.647  16.862 -0.8932  1.7901 -0.9421
 4474TIP3   OH234836   1.504   0.398   1.710 -0.2285  0.1935 -0.1679
 4474TIP3    H134837   1.422   0.410   1.664  0.5841  1.5271 -1.3738
 4474TIP3    H234838   1.482   0.413   1.802 -1.0975  2.0159 -0.6231
 4475TIP3   OH234839   5.002   0.267  11.128  0.0587  0.3990  0.1932
 4475TIP3    H134840   4.985   0.330  11.057  0.0196  0.7580  0.5149
 4475TIP3    H234841   5.004   0.321  11.207  0.7711  0.0970  0.3885
 4476TIP3   OH234842   6.674   4.695   3.968  0.1734 -0.6097 -0.0386
 4476TIP3    H134843   6.765   4.670   3.987  0.4133 -0.5602 -1.0598
 4476TIP3    H234844   6.622   4.644   4.031  0.7948 -2.0245 -0.6093
 4477TIP3   OH234845   3.052   2.558  12.751  0.5162  0.3749  0.0408
 4477TIP3    H134846   3.129   2.596  12.793 -1.0909  3.5230  0.4454
 4477TIP3    H234847   3.046   2.604  12.667 -0.9547  0.2742  0.0741
 4478TIP3   OH234848   4.753   2.955   4.700 -0.2145  0.1471  0.1977
 4478TIP3    H134849   4.786   3.028   4.648  2.9109  0.1733  2.0189
 4478TIP3    H234850   4.745   2.883   4.638  0.4042  0.9959 -0.8970
 4479TIP3   OH234851   6.762   1.694  11.767  0.2021  0.1895  0.2629
 4479TIP3    H134852   6.764   1.649  11.851 -0.3925 -0.4466 -0.0521
 4479TIP3    H234853   6.849   1.679  11.729  0.0698 -0.5591  0.2383
 4480TIP3   OH234854   2.803   3.162  11.650  0.2035 -0.5469 -0.4066
 4480TIP3    H134855   2.840   3.234  11.599  1.0330 -0.3200  0.4801
 4480TIP3    H234856   2.718   3.195  11.679  0.0882 -0.3611 -0.9401
 4481TIP3   OH234857   0.355   3.453   6.396  0.0035 -0.5265 -0.5386
 4481TIP3    H134858   0.368   3.413   6.310 -1.7407 -0.5080 -0.8551
 4481TIP3    H234859   0.294   3.395   6.440 -1.7090  1.1227 -0.5839
 4482TIP3   OH234860   4.039   5.291   5.370  0.6548 -0.3213  0.5383
 4482TIP3    H134861   4.117   5.275   5.316  0.4592 -0.5713  0.3215
 4482TIP3    H234862   4.073   5.317   5.455  1.0034  3.2392 -0.5495
 4483TIP3   OH234863   5.040   5.060   2.876  0.3069 -0.5738  0.3670
 4483TIP3    H134864   4.952   5.085   2.848  0.6092  0.5855  0.3997
 4483TIP3    H234865   5.026   5.006   2.954 -0.3550  0.4637  0.9949
 4484TIP3   OH234866   3.335   2.648  17.067  0.4152 -0.4441 -0.1708
 4484TIP3    H134867   3.416   2.631  17.115  1.2024 -1.0863 -1.6550
 4484TIP3    H234868   3.354   2.725  17.014 -1.0278  1.3366  1.7554
 4485TIP3   OH234869   2.647   2.885  15.935  0.0261  0.3915 -0.5889
 4485TIP3    H134870   2.733   2.897  15.973  0.5108 -2.1255 -0.6968
 4485TIP3    H234871   2.659   2.903  15.842  0.0496  1.5023 -0.3832
 4486TIP3   OH234872   3.684   2.700  15.921 -0.1712  0.0338 -0.5895
 4486TIP3    H134873   3.760   2.649  15.949 -0.6131  0.1459  0.9599
 4486TIP3    H234874   3.690   2.781  15.972 -1.9318 -0.4615  0.5187
 4487TIP3   OH234875   2.806   4.088  11.486 -0.2975  0.3051  0.4042
 4487TIP3    H134876   2.823   4.048  11.572  0.7121 -1.7066 -0.6669
 4487TIP3    H234877   2.846   4.175  11.493  1.1575 -0.3887  1.5028
 4488TIP3   OH234878   2.704   3.097   3.666  0.2049  0.4946 -0.3414
 4488TIP3    H134879   2.689   3.136   3.753 -0.6372 -1.1402  0.2798
 4488TIP3    H234880   2.637   3.030   3.658  1.4445 -0.6696 -1.4766
 4489TIP3   OH234881   5.826   3.255  10.585  0.2489 -0.7042  0.2724
 4489TIP3    H134882   5.884   3.179  10.582 -1.1404 -1.8786  1.5010
 4489TIP3    H234883   5.752   3.232  10.529  0.1956  0.1011 -0.0095
 4490TIP3   OH234884   2.088   2.840   4.552  0.0682 -0.2000  0.7339
 4490TIP3    H134885   2.102   2.882   4.636  0.4275 -0.3645  0.7596
 4490TIP3    H234886   2.157   2.875   4.496 -1.1849  1.2132  0.0097
 4491TIP3   OH234887   0.970   4.264   4.176 -0.7707  0.1219  0.5067
 4491TIP3    H134888   1.034   4.198   4.202 -3.3779 -2.6173  0.5762
 4491TIP3    H234889   1.022   4.334   4.138  2.1839 -2.6673 -1.1603
 4492TIP3   OH234890   4.809   3.530   1.140  0.1830  0.0092 -0.0570
 4492TIP3    H134891   4.748   3.495   1.075  1.8963  0.0054 -1.7497
 4492TIP3    H234892   4.762   3.601   1.181 -1.3542 -0.6987 -0.5207
 4493TIP3   OH234893   5.536   0.440   2.599 -0.3689 -0.7688 -0.2358
 4493TIP3    H134894   5.488   0.390   2.666 -0.6232 -0.4764 -0.1986
 4493TIP3    H234895   5.477   0.442   2.524 -1.4812  1.6500  0.6072
 4494TIP3   OH234896   3.181   2.105   3.531  0.5694 -0.0169  0.3394
 4494TIP3    H134897   3.139   2.184   3.564 -0.1063  0.3059 -1.2407
 4494TIP3    H234898   3.158   2.037   3.595 -0.8710  0.5407  0.4429
 4495TIP3   OH234899   3.465   6.234   3.290  0.3956  0.0443 -0.1173
 4495TIP3    H134900   3.404   6.308   3.282  0.4936  0.1547  0.1333
 4495TIP3    H234901   3.541   6.260   3.237  0.7389  0.4536  0.5527
 4496TIP3   OH234902   6.063   3.469  16.831  0.0837 -0.2253  0.3489
 4496TIP3    H134903   6.071   3.480  16.737  1.0305 -1.8761  0.1889
 4496TIP3    H234904   6.150   3.442  16.860 -0.8202 -2.5068  1.2288
 4497TIP3   OH234905   0.115   4.277  16.291  0.1688 -0.3193  0.3103
 4497TIP3    H134906   0.053   4.313  16.228 -1.2309  0.0135  1.8188
 4497TIP3    H234907   0.176   4.349  16.307  0.2303 -0.2368 -0.2637
 4498TIP3   OH234908   1.445   5.391   6.071  0.0123 -0.5479 -0.1375
 4498TIP3    H134909   1.463   5.476   6.111  0.1728 -1.0524  0.8933
 4498TIP3    H234910   1.364   5.361   6.113 -0.0764 -0.8745 -0.5380
 4499TIP3   OH234911   3.901   0.111  13.277  0.3779 -0.3757 -0.0881
 4499TIP3    H134912   3.938   0.118  13.189  2.8803 -2.8116  0.6059
 4499TIP3    H234913   3.956   0.168  13.331  1.0241 -1.4116  0.3885
 4500TIP3   OH234914   1.684   0.856  12.670 -0.1213  0.5876 -0.1170
 4500TIP3    H134915   1.697   0.942  12.631 -3.0211  1.4665  0.5963
 4500TIP3    H234916   1.719   0.794  12.605  0.5713  2.2107 -1.3502
 4501TIP3   OH234917   1.245   3.167  13.333  0.1731 -0.4748  0.0496
 4501TIP3    H134918   1.179   3.172  13.264 -2.1293  2.3905  2.1868
 4501TIP3    H234919   1.327   3.188  13.289 -0.5047 -2.5314 -2.4168
 4502TIP3   OH234920   6.547   2.108   4.387  0.3123 -0.0668  0.4795
 4502TIP3    H134921   6.461   2.081   4.354  0.5837 -0.7343  0.3133
 4502TIP3    H234922   6.547   2.203   4.375 -0.6323  0.0189  1.0407
 4503TIP3   OH234923   4.027   6.518  12.737 -0.0857 -0.2610 -0.2474
 4503TIP3    H134924   3.986   6.603  12.719 -2.8252 -1.2202  0.9000
 4503TIP3    H234925   4.096   6.538  12.800 -0.7878  1.1378  0.1272
 4504TIP3   OH234926   5.458   2.303  15.836  0.4725  0.0422  0.2553
 4504TIP3    H134927   5.387   2.292  15.772 -0.8560  2.0344  1.2826
 4504TIP3    H234928   5.520   2.361  15.792 -0.0571  0.7738  0.4517
 4505TIP3   OH234929   2.000   4.451   2.832  0.0877 -0.5030 -1.1372
 4505TIP3    H134930   1.954   4.395   2.895  2.0187 -0.2243  0.6525
 4505TIP3    H234931   2.092   4.449   2.861  0.4958  2.3333 -1.9041
 4506TIP3   OH234932   4.834   0.647   3.445  0.2817  0.1512  0.5742
 4506TIP3    H134933   4.899   0.672   3.512  2.5187 -0.6810 -1.1547
 4506TIP3    H234934   4.850   0.707   3.372 -0.1927 -0.7247 -0.2744
 4507TIP3   OH234935   0.737   4.719  14.625  0.0027  0.0769  0.3685
 4507TIP3    H134936   0.746   4.804  14.668 -1.3010  0.3788  0.0983
 4507TIP3    H234937   0.820   4.674  14.642  0.1166  0.7885  1.8456
 4508TIP3   OH234938   0.549   6.140   5.822 -0.5287 -0.2713 -0.2167
 4508TIP3    H134939   0.494   6.191   5.881 -1.9214  0.3768 -1.9850
 4508TIP3    H234940   0.494   6.066   5.796  0.1946 -0.7480 -0.4211
 4509TIP3   OH234941   2.999   4.471  14.993 -1.1709  0.8239 -0.3314
 4509TIP3    H134942   2.909   4.443  14.980 -1.2424 -0.3357  1.9914
 4509TIP3    H234943   3.030   4.417  15.067  1.6320  0.6973 -1.4661
 4510TIP3   OH234944   6.477   2.911  16.653  0.4632 -0.4911 -0.0435
 4510TIP3    H134945   6.461   2.846  16.585 -0.7472 -1.1439  0.8169
 4510TIP3    H234946   6.469   2.862  16.735  1.7186  0.3077  0.5814
 4511TIP3   OH234947   2.010   2.022  10.742 -0.2857  0.5296 -0.4317
 4511TIP3    H134948   2.064   2.097  10.716 -0.5533  0.9092  0.1007
 4511TIP3    H234949   1.982   1.983  10.659  0.4382  0.5872 -0.7176
 4512TIP3   OH234950   5.233   6.459   5.719 -0.2924 -0.3819  0.2405
 4512TIP3    H134951   5.194   6.540   5.752 -0.9610 -0.3811 -0.5084
 4512TIP3    H234952   5.283   6.425   5.792  0.6906  1.1317  0.3145
 4513TIP3   OH234953   5.461   0.991  14.468  0.3602  0.1684 -0.2317
 4513TIP3    H134954   5.520   0.976  14.394  2.6236  1.0063  1.3056
 4513TIP3    H234955   5.431   1.081  14.458  1.1589  0.4857  0.1806
 4514TIP3   OH234956   0.274   0.541   4.341 -0.4282  0.2894 -0.6805
 4514TIP3    H134957   0.204   0.498   4.292  0.3551 -0.9413 -0.7328
 4514TIP3    H234958   0.259   0.515   4.432  1.8230 -2.7634 -1.0366
 4515TIP3   OH234959   6.655   4.107   2.144  0.3861  0.9276 -0.1079
 4515TIP3    H134960   6.641   4.131   2.236 -1.2579  0.6370 -0.2499
 4515TIP3    H234961   6.569   4.077   2.114  1.3113 -0.8022 -1.2115
 4516TIP3   OH234962   2.485   6.489   3.657  0.3016 -0.2065  0.2400
 4516TIP3    H134963   2.533   6.497   3.739 -0.1040  2.0779  0.3166
 4516TIP3    H234964   2.519   6.409   3.617  1.5293 -0.5969  1.9577
 4517TIP3   OH234965   4.741   0.372  16.730 -0.0222  0.3038  0.0010
 4517TIP3    H134966   4.797   0.435  16.776 -1.5112  1.2831  0.5655
 4517TIP3    H234967   4.730   0.300  16.792 -0.3645  0.6777  0.3865
 4518TIP3   OH234968   0.649   6.328  14.565 -0.4280  0.2565  0.5582
 4518TIP3    H134969   0.639   6.256  14.502 -1.0563 -0.3292  1.3012
 4518TIP3    H234970   0.730   6.371  14.540 -0.9412  0.3801 -0.9904
 4519TIP3   OH234971   6.401   0.104  13.666 -0.2953  0.2602 -0.4328
 4519TIP3    H134972   6.418   0.083  13.574 -0.6871 -0.1037 -0.4262
 4519TIP3    H234973   6.483   0.141  13.698  0.0952 -0.3439 -0.7194
 4520TIP3   OH234974   6.187   0.892   5.662  0.0405  0.4495  0.3395
 4520TIP3    H134975   6.193   0.881   5.757  0.1042 -0.0479  0.2852
 4520TIP3    H234976   6.114   0.953   5.649  0.4935  1.0862  0.7333
 4521TIP3   OH234977   5.749   6.646   0.639  0.3654 -0.4804 -0.0638
 4521TIP3    H134978   5.727   6.698   0.715 -2.0029  0.6758 -1.4339
 4521TIP3    H234979   5.822   6.693   0.598 -2.8080  3.0936 -2.2624
 4522TIP3   OH234980   0.738   4.067  15.395 -0.7520  0.0705  0.3961
 4522TIP3    H134981   0.698   4.149  15.425 -0.1484  0.6469 -0.3049
 4522TIP3    H234982   0.831   4.088  15.387 -0.7244 -0.4033 -0.6950
 4523TIP3   OH234983   6.255   2.837  12.935 -0.0887  0.1075 -0.3043
 4523TIP3    H134984   6.335   2.817  12.886  1.0766  0.7644  1.2439
 4523TIP3    H234985   6.197   2.878  12.871  0.8056 -0.3972 -1.4699
 4524TIP3   OH234986   5.306   0.823   2.375  0.2461  0.1578 -0.3509
 4524TIP3    H134987   5.324   0.915   2.390  0.8396 -0.1701  1.1063
 4524TIP3    H234988   5.391   0.785   2.350  0.1604 -0.1335 -0.2073
 4525TIP3   OH234989   3.052   2.918   4.998  0.4056 -0.0273  0.4676
 4525TIP3    H134990   3.141   2.915   5.035  0.4861 -2.2731  0.1995
 4525TIP3    H234991   3.055   2.858   4.923 -0.7650  1.5884 -0.9683
 4526TIP3   OH234992   0.280   4.829   2.463  0.1285 -0.4010  0.0929
 4526TIP3    H134993   0.216   4.899   2.472  1.5103  1.5243 -2.9967
 4526TIP3    H234994   0.248   4.777   2.389  0.6862 -1.1318  0.3556
 4527TIP3   OH234995   2.187   1.334   0.531  0.5173  0.1771 -0.4690
 4527TIP3    H134996   2.114   1.371   0.481  0.0378 -1.5868 -1.1422
 4527TIP3    H234997   2.145   1.296   0.609  0.7379 -0.7030 -0.7811
 4528TIP3   OH234998   6.399   3.882  13.394  0.7112  0.2526  0.3308
 4528TIP3    H134999   6.466   3.817  13.372  0.3477 -0.0662  0.1550
 4528TIP3    H235000   6.349   3.894  13.313 -1.2044 -1.5889  1.1535
 4529TIP3   OH235001   5.212   4.247   0.875  0.4251  0.4141 -0.1402
 4529TIP3    H135002   5.126   4.247   0.917  0.4526  0.3450 -0.0843
 4529TIP3    H235003   5.194   4.263   0.782  0.2932 -0.3370 -0.2491
 4530TIP3   OH235004   0.740   2.927   3.723 -0.1472 -0.1469 -0.2700
 4530TIP3    H135005   0.685   2.853   3.749  0.2516 -1.0774 -1.9218
 4530TIP3    H235006   0.778   2.900   3.639  0.0819  1.9128 -0.8751
 4531TIP3   OH235007   5.008   1.420   0.277 -0.0640  0.2905  0.0841
 4531TIP3    H135008   5.039   1.507   0.251 -0.1869 -0.0372 -1.2333
 4531TIP3    H235009   5.072   1.359   0.242 -0.5173 -0.2090  0.1020
 4532TIP3   OH235010   4.074   0.092  14.496 -0.2507 -0.0981  0.1725
 4532TIP3    H135011   4.025   0.162  14.453 -1.4410 -0.9672  0.0697
 4532TIP3    H235012   4.165   0.121  14.492 -0.6123  0.9918 -0.7214
 4533TIP3   OH235013   1.499   0.207   4.815 -0.0077  0.6939 -0.4870
 4533TIP3    H135014   1.412   0.237   4.839 -0.6603 -0.9097 -0.7553
 4533TIP3    H235015   1.529   0.271   4.750 -1.2444  0.8953 -0.8807
 4534TIP3   OH235016   2.464   5.628   3.965 -0.2724  0.1679  0.3401
 4534TIP3    H135017   2.504   5.543   3.982  0.7550  0.7067  0.7362
 4534TIP3    H235018   2.371   5.615   3.984 -0.0356 -0.7134  0.9814
 4535TIP3   OH235019   1.470   1.517  11.276  0.3711 -0.0816 -0.4239
 4535TIP3    H135020   1.561   1.545  11.281  0.8917 -1.4667 -1.6638
 4535TIP3    H235021   1.445   1.528  11.185 -0.6750  0.1272 -0.1379
 4536TIP3   OH235022   3.505   0.891   0.927  0.2898  0.2774 -0.0828
 4536TIP3    H135023   3.431   0.879   0.868  1.8629  0.4630 -2.1847
 4536TIP3    H235024   3.513   0.986   0.938 -1.0019  0.2322  1.8780
 4537TIP3   OH235025   6.337   4.688  14.718  0.5867 -0.2178  0.0825
 4537TIP3    H135026   6.334   4.772  14.763  2.0297  1.1167 -2.1450
 4537TIP3    H235027   6.369   4.626  14.785  2.7967  1.6818  0.9135
 4538TIP3   OH235028   0.413   3.029   0.341 -0.3169 -0.1302 -0.1017
 4538TIP3    H135029   0.345   3.091   0.366 -0.3555 -0.2125 -0.0003
 4538TIP3    H235030   0.370   2.943   0.344 -0.8134 -0.0142 -2.1174
 4539TIP3   OH235031   1.775   2.816  15.085  0.0409 -0.1895 -0.6122
 4539TIP3    H135032   1.787   2.756  15.011 -1.9887  1.8487 -2.7622
 4539TIP3    H235033   1.699   2.782  15.131 -0.3337  0.0191 -1.0733
 4540TIP3   OH235034   6.308   4.977  15.954 -0.5802 -0.0000  0.4275
 4540TIP3    H135035   6.239   5.008  16.013 -0.1694 -1.3246  1.6659
 4540TIP3    H235036   6.335   4.893  15.992  0.4298 -0.3814 -1.0835
 4541TIP3   OH235037   2.718   3.448  15.656 -0.1271 -0.4054 -0.3485
 4541TIP3    H135038   2.801   3.485  15.684 -2.3537  2.8545  2.9337
 4541TIP3    H235039   2.694   3.497  15.578  0.3512 -0.2978 -0.4299
 4542TIP3   OH235040   4.129   4.942  13.600 -0.1223  0.2670  0.2705
 4542TIP3    H135041   4.163   5.006  13.662 -0.6045 -1.6146  2.6386
 4542TIP3    H235042   4.036   4.965  13.589 -0.3996 -0.2122  1.4448
 4543TIP3   OH235043   3.935   5.934   0.752  0.4220  0.2566 -0.0873
 4543TIP3    H135044   3.847   5.917   0.717  0.4497 -1.3280  0.5090
 4543TIP3    H235045   3.920   5.987   0.830  0.1137  1.1102 -0.7124
 4544TIP3   OH235046   4.777   3.780   2.290 -0.3466  0.6571  0.3940
 4544TIP3    H135047   4.707   3.746   2.347  0.1424 -2.4643 -0.6396
 4544TIP3    H235048   4.744   3.765   2.201  1.1505  0.1902 -0.1090
 4545TIP3   OH235049   5.207   6.111  11.609 -0.4495  0.0305  0.2151
 4545TIP3    H135050   5.281   6.063  11.646 -0.7846 -2.0287 -1.5728
 4545TIP3    H235051   5.208   6.195  11.654  2.6611 -0.1028  0.6125
 4546TIP3   OH235052   0.418   5.447  13.949  0.3424  0.3364  0.0890
 4546TIP3    H135053   0.437   5.353  13.958 -0.3864  0.0822 -0.9309
 4546TIP3    H235054   0.465   5.473  13.870  0.0794  0.7125  0.0579
 4547TIP3   OH235055   6.450   4.664   1.367  0.6348  0.1354  0.4950
 4547TIP3    H135056   6.396   4.626   1.297  0.4307  0.2702  0.5808
 4547TIP3    H235057   6.436   4.606   1.442  2.0507 -0.9211 -0.0018
 4548TIP3   OH235058   2.703   2.445  11.933 -0.5664  0.1431  0.3470
 4548TIP3    H135059   2.741   2.496  12.004  0.7145  1.7346 -1.3453
 4548TIP3    H235060   2.761   2.462  11.858 -2.5982 -0.3017 -1.4348
 4549TIP3   OH235061   1.646   5.846   1.179  0.1463  0.0122  0.0722
 4549TIP3    H135062   1.692   5.764   1.160 -0.4963 -0.0049 -1.6624
 4549TIP3    H235063   1.714   5.913   1.179  0.3759 -0.1930 -1.1389
 4550TIP3   OH235064   4.839   0.033  13.803  0.0826 -0.0903  0.2063
 4550TIP3    H135065   4.873  -0.011  13.726 -0.1033  0.6158 -0.2929
 4550TIP3    H235066   4.838   0.126  13.780 -1.0156  0.0344  0.6429
 4551TIP3   OH235067   0.666   4.713  16.643 -0.2300 -0.1824  0.6073
 4551TIP3    H135068   0.667   4.640  16.580 -0.4530 -0.0573  0.4587
 4551TIP3    H235069   0.678   4.791  16.588 -1.0207 -0.0241  0.6562
 4552TIP3   OH235070   6.053   6.329  15.573  0.1521 -0.3743 -0.1437
 4552TIP3    H135071   6.066   6.247  15.621  0.4414 -0.3658 -0.2094
 4552TIP3    H235072   6.030   6.301  15.484 -0.5250 -0.3917  0.0264
 4553TIP3   OH235073   0.552   4.155  16.259  0.3200  0.1695 -0.0643
 4553TIP3    H135074   0.600   4.095  16.202  0.7039 -0.7560  1.1839
 4553TIP3    H235075   0.576   4.128  16.348 -0.7308  1.1796  0.5566
 4554TIP3   OH235076   0.695   5.499   4.965  0.6861  0.2528  0.4527
 4554TIP3    H135077   0.760   5.490   4.896 -2.6342  0.0956 -2.9368
 4554TIP3    H235078   0.680   5.409   4.996  1.4413  0.1952  0.6576
 4555TIP3   OH235079   2.476   2.264  14.325 -0.2453 -0.0991  0.6892
 4555TIP3    H135080   2.551   2.227  14.372 -0.0960 -0.9299 -0.1638
 4555TIP3    H235081   2.507   2.275  14.236 -1.6926 -2.3739 -0.1946
 4556TIP3   OH235082   2.862   4.808  10.957 -0.1662  1.0212 -0.2683
 4556TIP3    H135083   2.893   4.817  10.867  2.5913  0.7215  0.5552
 4556TIP3    H235084   2.820   4.722  10.960 -1.0762  1.4028 -1.4404
 4557TIP3   OH235085   2.387   4.719  13.009 -0.2748 -0.0851 -1.0155
 4557TIP3    H135086   2.359   4.703  12.919  2.0927 -1.4114 -1.5914
 4557TIP3    H235087   2.481   4.701  13.008  0.0311  1.0551  1.4674
 4558TIP3   OH235088   4.028   4.790  11.485 -0.0096  0.6107 -0.3819
 4558TIP3    H135089   4.078   4.816  11.408  1.4985  0.2389  0.4363
 4558TIP3    H235090   4.030   4.694  11.485 -1.0063  0.5716 -0.4899
 4559TIP3   OH235091   2.458   4.674   2.227  0.4027  0.6095 -0.0614
 4559TIP3    H135092   2.449   4.718   2.143  0.2005  0.7226  0.0182
 4559TIP3    H235093   2.511   4.734   2.280  1.8734 -0.1518 -0.5982
 4560TIP3   OH235094   1.583   4.765   0.617 -0.1097 -0.2544  0.3757
 4560TIP3    H135095   1.576   4.702   0.688 -1.7565  2.8048  3.2234
 4560TIP3    H235096   1.496   4.805   0.611  0.0697 -0.0598 -3.1688
 4561TIP3   OH235097   5.748   0.836   5.864  0.1252  0.8785 -0.5044
 4561TIP3    H135098   5.737   0.747   5.898  0.4735  0.6467 -0.9822
 4561TIP3    H235099   5.831   0.865   5.902  0.9082  0.3299 -1.7438
 4562TIP3   OH235100   4.353   2.968   3.251 -0.3991  0.0366  0.3686
 4562TIP3    H135101   4.434   2.959   3.301 -0.1930  0.9535  0.2080
 4562TIP3    H235102   4.316   2.879   3.249  0.6844 -0.4216  0.2883
 4563TIP3   OH235103   5.932   0.205  15.837  0.4710  0.2516 -0.8547
 4563TIP3    H135104   5.958   0.271  15.901 -1.0998  0.3816 -0.3116
 4563TIP3    H235105   5.898   0.133  15.889  0.7129 -0.3346 -1.4978
 4564TIP3   OH235106   3.291   5.875   1.079  0.3089 -0.3771  0.0526
 4564TIP3    H135107   3.232   5.859   1.005  0.7245  0.9035 -0.5832
 4564TIP3    H235108   3.334   5.958   1.058  2.8837 -1.5855  0.1304
 4565TIP3   OH235109   6.658   0.181   1.207 -0.1168 -0.4480  0.0713
 4565TIP3    H135110   6.728   0.167   1.271  0.3774  0.3219 -0.2752
 4565TIP3    H235111   6.637   0.094   1.174  0.3919 -0.7335  0.4920
 4566TIP3   OH235112   2.995   4.020  13.369 -0.4210 -0.2448 -0.3357
 4566TIP3    H135113   2.924   4.083  13.364  0.1042  0.6808  2.1662
 4566TIP3    H235114   3.067   4.060  13.319 -0.8269  0.0422 -0.6943
 4567TIP3   OH235115   6.778   1.280   3.197  0.1021  0.2381 -0.2060
 4567TIP3    H135116   6.726   1.204   3.220 -0.4881  0.6576 -0.1342
 4567TIP3    H235117   6.862   1.266   3.241  0.3046 -0.7581 -0.8590
 4568TIP3   OH235118   3.284   6.205   3.735  0.0571 -0.4307 -0.1739
 4568TIP3    H135119   3.234   6.142   3.787 -0.4626 -0.2853 -0.4906
 4568TIP3    H235120   3.257   6.290   3.768  1.3257 -0.3753  0.7740
 4569TIP3   OH235121   3.605   0.271   5.643  0.1542  0.0896 -0.5528
 4569TIP3    H135122   3.568   0.321   5.716  1.2083  1.2685 -0.7685
 4569TIP3    H235123   3.644   0.338   5.587  1.4744 -0.9847 -0.9595
 4570TIP3   OH235124   6.226   3.285  13.177  0.1534 -0.9310 -0.2581
 4570TIP3    H135125   6.251   3.366  13.219  0.4097 -2.0640  1.9111
 4570TIP3    H235126   6.261   3.292  13.088 -0.5035  1.5915 -0.4013
 4571TIP3   OH235127   0.042   5.898   2.055 -0.4051 -0.5431 -0.2990
 4571TIP3    H135128   0.015   5.852   1.975 -0.2657  1.8773 -1.8610
 4571TIP3    H235129   0.135   5.917   2.041 -0.7519  1.2893 -0.3408
 4572TIP3   OH235130   3.603   3.999   5.257  0.2602  0.7558 -0.4337
 4572TIP3    H135131   3.597   4.086   5.218  0.4618  1.0348  0.1551
 4572TIP3    H235132   3.697   3.982   5.263  0.2193  0.1933 -1.2050
 4573TIP3   OH235133   1.119   4.579   5.368 -0.0071  0.3977 -0.0475
 4573TIP3    H135134   1.121   4.674   5.359  0.5481  0.2642 -1.7232
 4573TIP3    H235135   1.027   4.558   5.384 -0.0591  1.2353  0.8229
 4574TIP3   OH235136   2.930   6.553  16.753  0.3181  0.3846  0.5884
 4574TIP3    H135137   2.970   6.607  16.821  0.1212 -1.2954  2.1014
 4574TIP3    H235138   2.972   6.468  16.763 -0.4635 -0.1808 -0.7431
 4575TIP3   OH235139   1.674   4.457  16.113 -0.4691  0.3009 -0.3945
 4575TIP3    H135140   1.656   4.475  16.205 -0.6459 -1.3552 -0.0874
 4575TIP3    H235141   1.611   4.511  16.065  0.2345  1.9083  0.3874
 4576TIP3   OH235142   4.477   5.490   2.476  0.9298 -0.7003 -0.4537
 4576TIP3    H135143   4.502   5.479   2.568  0.7462  2.3214  0.0555
 4576TIP3    H235144   4.518   5.573   2.450  0.1815 -1.0002 -2.8129
 4577TIP3   OH235145   5.237   0.930   3.095 -0.1328 -0.1969  0.4249
 4577TIP3    H135146   5.269   0.841   3.104  0.5398  0.1567  1.9991
 4577TIP3    H235147   5.292   0.981   3.155 -0.7889  1.1932 -0.1058
 4578TIP3   OH235148   4.787   6.010   1.145  0.2230 -0.3151 -0.1246
 4578TIP3    H135149   4.764   6.018   1.052 -0.9011  0.8821  0.2330
 4578TIP3    H235150   4.831   6.092   1.166 -0.8046  0.0330  0.7384
 4579TIP3   OH235151   3.654   3.932  12.500  0.4848  0.4799  0.3348
 4579TIP3    H135152   3.685   4.020  12.479  0.1914  0.2176 -1.4102
 4579TIP3    H235153   3.711   3.874  12.449 -0.0160 -0.2635  0.6063
 4580TIP3   OH235154   3.658   2.970  15.223 -0.2545  0.6055 -0.1033
 4580TIP3    H135155   3.691   2.946  15.137 -1.1667  0.7907 -0.5141
 4580TIP3    H235156   3.715   3.042  15.251 -0.5627  1.2042 -0.9846
 4581TIP3   OH235157   4.692   3.585  11.928 -0.3915 -0.1404  0.1415
 4581TIP3    H135158   4.624   3.576  11.862 -1.9290  0.3705  1.5976
 4581TIP3    H235159   4.686   3.505  11.980 -0.0300  0.0122  0.4218
 4582TIP3   OH235160   2.832   5.966  11.480  0.0340 -0.6847  0.1149
 4582TIP3    H135161   2.829   6.057  11.453 -0.7405 -0.3343  1.2986
 4582TIP3    H235162   2.807   5.917  11.402 -0.0344  0.1475 -0.3951
 4583TIP3   OH235163   3.481   2.746  15.666 -0.3647  0.4061 -0.1506
 4583TIP3    H135164   3.517   2.711  15.748  0.6621  0.3567 -0.6097
 4583TIP3    H235165   3.533   2.704  15.598 -1.1501  0.5277 -0.8293
 4584TIP3   OH235166   0.537   1.639  16.455  0.3748 -0.4575  0.1308
 4584TIP3    H135167   0.526   1.564  16.514  0.8593 -1.2427 -0.7625
 4584TIP3    H235168   0.518   1.604  16.368  0.8819  0.3900 -0.3310
 4585TIP3   OH235169   3.842   2.252   5.796  0.7442  0.0974  0.5936
 4585TIP3    H135170   3.816   2.321   5.857  0.3196  0.6836 -0.2349
 4585TIP3    H235171   3.924   2.217   5.833  1.6209  1.8585  0.4031
 4586TIP3   OH235172   6.262   2.197  10.416 -0.7921 -0.8727 -0.3871
 4586TIP3    H135173   6.332   2.261  10.425 -0.3242 -1.2572 -1.1829
 4586TIP3    H235174   6.211   2.205  10.497 -0.6187  0.3413 -0.3802
 4587TIP3   OH235175   0.146   1.339  13.894 -1.0395  0.0113  0.3028
 4587TIP3    H135176   0.210   1.287  13.942 -0.6824  1.5809  1.6451
 4587TIP3    H235177   0.079   1.361  13.958 -0.2832  2.6108  0.3391
 4588TIP3   OH235178   2.244   2.288   0.432  0.1404 -0.0494  0.0837
 4588TIP3    H135179   2.336   2.292   0.455  0.0066  0.3000  0.5725
 4588TIP3    H235180   2.243   2.283   0.336  0.6406  0.8490  0.0256
 4589TIP3   OH235181   1.651   1.402  13.050  0.3974 -0.1556 -0.0256
 4589TIP3    H135182   1.668   1.496  13.050 -0.4569  0.0248 -1.5121
 4589TIP3    H235183   1.712   1.367  13.115 -0.9572  1.7013  2.4191
 4590TIP3   OH235184   0.551   3.828   5.437  0.2212 -0.1780  0.0903
 4590TIP3    H135185   0.605   3.802   5.511  1.0637  0.2712 -0.3503
 4590TIP3    H235186   0.469   3.856   5.476  0.1939 -1.1323  0.7525
 4591TIP3   OH235187   1.664   3.922  14.298  0.0366 -0.2070  0.1117
 4591TIP3    H135188   1.625   3.943  14.213 -0.9704 -0.6054  0.4649
 4591TIP3    H235189   1.715   3.999  14.320  0.6645 -0.2602 -1.0521
 4592TIP3   OH235190   6.671   4.979   3.904 -0.2539 -0.2574 -0.3777
 4592TIP3    H135191   6.658   4.902   3.960  3.5868 -1.1472 -0.4835
 4592TIP3    H235192   6.686   5.050   3.966  0.2164 -0.4362 -0.2866
 4593TIP3   OH235193   2.627   5.789  14.230 -0.5980  0.7265 -0.4618
 4593TIP3    H135194   2.626   5.880  14.263  1.7796  0.5096  0.4675
 4593TIP3    H235195   2.639   5.736  14.309  0.0849 -0.2234 -1.1874
 4594TIP3   OH235196   6.449   1.968  16.514 -0.1756 -0.1513 -0.3723
 4594TIP3    H135197   6.369   1.995  16.559 -0.1281 -0.5783 -0.0288
 4594TIP3    H235198   6.427   1.973  16.421 -0.4739  0.1166 -0.2907
 4595TIP3   OH235199   6.546   6.334  13.814  0.3627  0.1759  0.4311
 4595TIP3    H135200   6.498   6.413  13.840 -0.0513  0.5769 -1.4494
 4595TIP3    H235201   6.490   6.262  13.841 -0.9414  0.6215 -1.0041
 4596TIP3   OH235202   0.403   4.157   3.027 -0.2162  0.1045 -0.4605
 4596TIP3    H135203   0.324   4.104   3.027  0.3293 -0.8003  1.2777
 4596TIP3    H235204   0.470   4.101   2.986  0.0284 -0.0336  0.1088
 4597TIP3   OH235205   2.000   4.429  14.201 -0.0443 -0.0108  0.4276
 4597TIP3    H135206   2.045   4.345  14.189 -0.4688 -0.2449  0.4709
 4597TIP3    H235207   2.049   4.490  14.145  0.3594 -0.2506  0.5120
 4598TIP3   OH235208   1.348   6.565   5.527 -0.1957 -0.4070  0.1389
 4598TIP3    H135209   1.394   6.529   5.603  1.5870 -0.2604 -0.8059
 4598TIP3    H235210   1.328   6.655   5.551  3.3934  0.7929 -0.6382
 4599TIP3   OH235211   3.141   2.579  14.771 -0.0056 -0.2805 -0.0389
 4599TIP3    H135212   3.097   2.646  14.823  1.9259 -0.2224  1.6457
 4599TIP3    H235213   3.106   2.496  14.802  1.7713 -0.3083  2.1654
 4600TIP3   OH235214   6.467   1.324   3.124  0.2382  0.1861 -0.0987
 4600TIP3    H135215   6.460   1.367   3.039 -0.0446 -0.0093 -0.1729
 4600TIP3    H235216   6.559   1.338   3.150  0.2610  0.4549 -0.3210
 4601TIP3   OH235217   5.956   1.803   3.686  0.4965 -0.1946  0.8515
 4601TIP3    H135218   5.962   1.849   3.602  4.9568 -0.7037  0.6791
 4601TIP3    H235219   5.923   1.869   3.747 -1.5809  0.5519 -0.9239
 4602TIP3   OH235220   6.480   2.791  14.007 -0.3114  0.2504 -0.4047
 4602TIP3    H135221   6.566   2.751  13.997 -0.3744 -0.1106  0.4013
 4602TIP3    H235222   6.497   2.879  14.039 -0.2614 -0.2373  0.9790
 4603TIP3   OH235223   4.301   0.777  13.852  0.4409 -0.4118  0.1627
 4603TIP3    H135224   4.338   0.740  13.932  2.0865  2.5386  0.9175
 4603TIP3    H235225   4.212   0.801  13.876  0.8522  0.2557  1.1292
 4604TIP3   OH235226   3.030   6.360   0.180  0.2877 -0.4931 -0.0142
 4604TIP3    H135227   3.073   6.352   0.265  0.1813 -1.5642 -0.0548
 4604TIP3    H235228   2.953   6.414   0.197  0.6995 -0.0255  0.4016
 4605TIP3   OH235229   1.684   0.438   4.913 -0.0061 -0.0583  0.2337
 4605TIP3    H135230   1.778   0.453   4.922  0.1711  0.9076 -2.5417
 4605TIP3    H235231   1.677   0.345   4.890  0.5552  0.4441 -2.1989
 4606TIP3   OH235232   6.561   0.221  14.383  0.3595  0.6612  0.4000
 4606TIP3    H135233   6.601   0.303  14.354 -1.3332  2.0030  1.6496
 4606TIP3    H235234   6.585   0.158  14.316  3.1347  1.7290  0.2383
 4607TIP3   OH235235   5.233   2.651  13.569 -0.6087 -0.3334 -0.4546
 4607TIP3    H135236   5.307   2.593  13.588 -0.1516  0.6759  1.0811
 4607TIP3    H235237   5.162   2.618  13.624  0.3867  1.9356  2.4667
 4608TIP3   OH235238   6.793   0.298  14.773 -0.2690  0.4298 -0.4706
 4608TIP3    H135239   6.799   0.237  14.699 -0.6189  0.0739 -0.2119
 4608TIP3    H235240   6.788   0.241  14.850  1.0381  0.7997 -0.0882
 4609TIP3   OH235241   1.977   0.522  12.083  0.6485 -0.2004  0.5685
 4609TIP3    H135242   2.046   0.515  12.149 -0.0720 -0.1179  1.3436
 4609TIP3    H235243   1.914   0.453  12.107  0.5526 -0.3951 -0.2327
 4610TIP3   OH235244   6.579   2.748   3.942  0.3693 -0.2153  0.0619
 4610TIP3    H135245   6.571   2.706   3.857 -0.4896 -0.8438  0.4275
 4610TIP3    H235246   6.659   2.799   3.937  1.0677 -1.3292 -0.6545
 4611TIP3   OH235247   4.176   2.074   3.655  0.4728 -0.0466 -0.2529
 4611TIP3    H135248   4.263   2.034   3.652 -0.7412 -3.0779  0.9620
 4611TIP3    H235249   4.134   2.046   3.573 -0.5229 -1.7308  0.7822
 4612TIP3   OH235250   3.462   1.705  15.892  0.3275 -0.4349  0.4917
 4612TIP3    H135251   3.392   1.646  15.865  0.1641 -0.0382  0.0277
 4612TIP3    H235252   3.478   1.761  15.816  0.3290  0.2540  0.9800
 4613TIP3   OH235253   6.030   5.968   0.511  0.2727 -0.7437  0.3064
 4613TIP3    H135254   6.123   5.953   0.531  0.8878 -1.2447 -2.5458
 4613TIP3    H235255   6.000   5.885   0.474 -2.0393 -1.3640  3.1928
 4614TIP3   OH235256   4.849   2.636   6.240  0.7749  0.3721  0.2131
 4614TIP3    H135257   4.804   2.626   6.324  1.6833  0.1610  0.6766
 4614TIP3    H235258   4.835   2.727   6.216  1.2182  0.6576  1.0023
 4615TIP3   OH235259   4.625   6.103  14.375  0.1271 -0.2292 -0.3976
 4615TIP3    H135260   4.594   6.185  14.335 -0.4101 -0.5170 -0.5782
 4615TIP3    H235261   4.545   6.054  14.393  0.4999 -1.7599 -2.5117
 4616TIP3   OH235262   1.586   2.234   6.024  0.5025  0.3981  0.0813
 4616TIP3    H135263   1.559   2.173   5.955  1.2490  1.1092 -0.8719
 4616TIP3    H235264   1.534   2.208   6.100  1.4953 -2.0708  0.0258
 4617TIP3   OH235265   2.636   6.124  15.471  0.4345  0.0258 -0.4673
 4617TIP3    H135266   2.642   6.187  15.400  0.6533  0.8417  0.2523
 4617TIP3    H235267   2.622   6.177  15.550 -0.7391 -0.9016 -0.0086
 4618TIP3   OH235268   1.665   5.124  13.976 -0.1201 -0.0967 -0.4602
 4618TIP3    H135269   1.743   5.080  13.942  0.4599  1.0555 -0.6588
 4618TIP3    H235270   1.671   5.213  13.942 -1.0922  0.2427  0.2185
 4619TIP3   OH235271   2.053   1.408   4.202  0.3297 -0.3707  0.2405
 4619TIP3    H135272   2.022   1.348   4.135  0.3779 -1.0240  0.7995
 4619TIP3    H235273   1.994   1.394   4.276 -0.7661  1.5079 -0.1985
 4620TIP3   OH235274   0.157   6.294  12.813 -0.5793  0.0536 -0.0035
 4620TIP3    H135275   0.217   6.272  12.884  0.9872  0.7313 -1.0431
 4620TIP3    H235276   0.144   6.388  12.821 -1.6314 -0.1090  0.2874
 4621TIP3   OH235277   1.122   6.258  16.010 -0.0699  0.1910  0.7668
 4621TIP3    H135278   1.154   6.210  16.086 -0.5327 -1.3375  0.0228
 4621TIP3    H235279   1.162   6.215  15.935  0.5807  1.8288  0.1180
 4622TIP3   OH235280   0.871   0.455   1.379  1.1054  0.1106  0.3951
 4622TIP3    H135281   0.841   0.364   1.376 -1.3672  0.8635 -0.6326
 4622TIP3    H235282   0.791   0.506   1.396  2.2048  2.1652 -0.2562
 4623TIP3   OH235283   3.115   1.005  15.555 -0.0451 -0.4388 -0.1518
 4623TIP3    H135284   3.151   0.986  15.468  0.0758  0.8297 -0.3969
 4623TIP3    H235285   3.166   1.079  15.586  0.1829 -1.1362  1.1955
 4624TIP3   OH235286   2.198   0.438   0.290  0.3414  0.4360  0.0204
 4624TIP3    H135287   2.285   0.461   0.255  0.6648  0.5465  0.8821
 4624TIP3    H235288   2.206   0.451   0.384 -0.9189  1.4220  0.0175
 4625TIP3   OH235289   5.312   5.266   5.411 -1.1493 -0.3090 -0.1026
 4625TIP3    H135290   5.232   5.298   5.368 -1.4119 -1.2021 -0.3022
 4625TIP3    H235291   5.363   5.227   5.340 -0.9128 -0.4716  0.1536
 4626TIP3   OH235292   3.340   2.239  12.343 -0.0994 -0.0570  0.3190
 4626TIP3    H135293   3.401   2.165  12.352  1.0264  0.7959 -0.1027
 4626TIP3    H235294   3.363   2.278  12.259  0.5921  1.8860  1.3489
 4627TIP3   OH235295   3.891   1.789  11.185  0.2111 -0.1984 -0.3194
 4627TIP3    H135296   3.984   1.808  11.176  0.0936 -0.2568 -1.8936
 4627TIP3    H235297   3.888   1.703  11.228  0.9421 -1.1483 -2.0861
 4628TIP3   OH235298   1.852   4.635   3.092  0.5428  0.3996 -0.7737
 4628TIP3    H135299   1.837   4.555   3.042  0.4721 -0.5265  0.6718
 4628TIP3    H235300   1.776   4.642   3.151  1.0752  0.9311 -0.1243
 4629TIP3   OH235301   1.435   6.767   2.882 -0.2766  1.0683  0.4165
 4629TIP3    H135302   1.379   6.763   2.960  1.5452 -0.2234  1.7731
 4629TIP3    H235303   1.524   6.759   2.917  0.5642 -0.4805 -1.8495
 4630TIP3   OH235304   0.875   2.623  13.102  0.6171  0.2749  0.1546
 4630TIP3    H135305   0.797   2.603  13.154 -1.2903  1.7238 -1.9384
 4630TIP3    H235306   0.862   2.575  13.020  1.1189  1.7131 -0.8201
 4631TIP3   OH235307   0.500   3.589  16.612  0.3485 -0.6758 -0.0194
 4631TIP3    H135308   0.511   3.626  16.700  1.2042 -1.6300  0.2884
 4631TIP3    H235309   0.448   3.654  16.565 -0.8653 -0.5335  1.4505
 4632TIP3   OH235310   5.753   2.893  14.208  0.1415 -0.2417 -0.7122
 4632TIP3    H135311   5.835   2.881  14.161  1.6198  0.3355  1.5639
 4632TIP3    H235312   5.746   2.987  14.222 -0.6004 -0.3365 -0.3643
 4633TIP3   OH235313   5.734   4.372   1.317  0.7176 -0.2024  0.0176
 4633TIP3    H135314   5.818   4.364   1.361 -0.2145 -0.1637  1.9245
 4633TIP3    H235315   5.685   4.295   1.344 -0.1860  0.2601 -0.2565
 4634TIP3   OH235316   6.640   3.454   4.130 -0.0544 -1.0584  0.6186
 4634TIP3    H135317   6.697   3.504   4.189 -0.3933 -1.5152  1.3345
 4634TIP3    H235318   6.579   3.520   4.095 -1.1894 -1.1051  2.3732
 4635TIP3   OH235319   1.865   5.805   1.875 -0.0459 -0.2540  0.0236
 4635TIP3    H135320   1.842   5.819   1.783  0.0484 -0.5501 -0.0488
 4635TIP3    H235321   1.782   5.787   1.918  0.0720 -1.7549 -0.3201
 4636TIP3   OH235322   2.623   5.563  14.823 -0.2618  0.1357  0.2169
 4636TIP3    H135323   2.649   5.545  14.732 -1.4817 -1.9185  0.1938
 4636TIP3    H235324   2.706   5.569  14.871  0.3754 -0.0259 -0.8229
 4637TIP3   OH235325   4.490   0.683   1.919  0.8003  0.0703  0.8405
 4637TIP3    H135326   4.581   0.654   1.924  0.5711 -0.6586  0.8958
 4637TIP3    H235327   4.494   0.777   1.937  1.5078 -0.0112  1.1530
 4638TIP3   OH235328   5.338   5.825  10.509  0.2270 -0.0543 -0.0168
 4638TIP3    H135329   5.246   5.842  10.530  0.3396  0.5566 -0.0065
 4638TIP3    H235330   5.356   5.882  10.434 -0.8392 -3.7684 -3.4671
 4639TIP3   OH235331   5.475   4.001   5.640 -0.5977 -0.1253 -0.0910
 4639TIP3    H135332   5.562   4.011   5.680 -1.2477  0.2392  1.2999
 4639TIP3    H235333   5.426   4.077   5.672 -1.6306 -0.6851 -0.3267
 4640TIP3   OH235334   1.951   5.418  15.477 -0.3693  0.7133  0.2590
 4640TIP3    H135335   1.998   5.335  15.475 -1.0895  0.3113 -0.1462
 4640TIP3    H235336   1.912   5.426  15.390 -1.2809  0.9072  0.6743
 4641TIP3   OH235337   5.383   0.814   3.418 -0.1330  0.1251 -0.3707
 4641TIP3    H135338   5.321   0.741   3.406  0.9177 -0.9413  0.3991
 4641TIP3    H235339   5.467   0.771   3.431  0.4645  1.4840  0.3992
 4642TIP3   OH235340   1.165   5.516   6.418 -0.1684 -0.1865  0.0036
 4642TIP3    H135341   1.086   5.527   6.470 -1.0613  1.2880 -1.5839
 4642TIP3    H235342   1.234   5.558   6.470 -0.9949  1.0676  0.1020
 4643TIP3   OH235343   2.766   5.931  15.962 -0.4507  0.1369 -0.7343
 4643TIP3    H135344   2.778   6.011  16.014  0.8058 -1.3090  1.3406
 4643TIP3    H235345   2.710   5.876  16.017 -0.8926 -0.6283 -1.9213
 4644TIP3   OH235346   4.763   4.078   2.974 -0.5574 -0.2364 -0.1358
 4644TIP3    H135347   4.807   3.995   2.993  1.5752  0.7042 -0.7330
 4644TIP3    H235348   4.797   4.139   3.040  0.4156  0.9330 -1.6508
 4645TIP3   OH235349   5.505   2.842  11.306 -0.2904  0.0593  0.6780
 4645TIP3    H135350   5.457   2.869  11.228 -0.1707  0.1361  0.6305
 4645TIP3    H235351   5.444   2.787  11.355  0.2124 -1.5013 -0.3650
 4646TIP3   OH235352   0.221   1.092  15.617 -0.4869 -0.4940  0.3259
 4646TIP3    H135353   0.249   1.171  15.570 -0.1281 -1.2179 -0.7041
 4646TIP3    H235354   0.184   1.125  15.699  0.9403  0.6625  0.5385
 4647TIP3   OH235355   5.031   0.632  13.787 -0.3127 -0.1674 -0.4684
 4647TIP3    H135356   5.025   0.606  13.695 -0.8265  0.7841 -0.7236
 4647TIP3    H235357   4.953   0.594  13.828 -1.8908  2.0921 -1.1611
 4648TIP3   OH235358   0.976   2.261   1.721 -0.2082 -0.0843 -0.3329
 4648TIP3    H135359   1.019   2.285   1.803 -1.5733 -0.5504  0.5571
 4648TIP3    H235360   0.934   2.341   1.691  0.6129  0.1831 -0.8049
 4649TIP3   OH235361   6.462   1.041   3.485  0.3239 -0.6978  0.5472
 4649TIP3    H135362   6.473   1.045   3.580 -0.0539  0.5622  0.5527
 4649TIP3    H235363   6.402   0.968   3.472  1.3455 -1.6901  1.1684
 4650TIP3   OH235364   3.421   2.672   4.250  0.4341 -0.0255 -0.1615
 4650TIP3    H135365   3.370   2.711   4.320 -0.1102 -0.4662 -0.3079
 4650TIP3    H235366   3.465   2.597   4.291  0.8373  0.2574 -0.0742
 4651TIP3   OH235367   1.277   0.588  13.890  0.2450  0.4657  0.1072
 4651TIP3    H135368   1.302   0.608  13.800 -0.3996  0.6542 -0.0336
 4651TIP3    H235369   1.353   0.613  13.942  1.1986 -1.0271 -0.5204
 4652TIP3   OH235370   0.966   2.070  10.690  0.2273 -0.9388  0.6933
 4652TIP3    H135371   0.908   2.019  10.634  0.1505 -1.0457  0.8690
 4652TIP3    H235372   1.016   2.005  10.739  2.0469 -0.9084 -0.9859
 4653TIP3   OH235373   6.483   1.428  13.483 -0.5015 -0.3275 -0.1190
 4653TIP3    H135374   6.573   1.396  13.484 -0.5393 -0.4765 -1.0877
 4653TIP3    H235375   6.452   1.413  13.572 -0.2898 -2.3307 -0.3468
 4654TIP3   OH235376   0.043   5.777   5.859  0.3732 -0.5516 -0.4017
 4654TIP3    H135377   0.086   5.857   5.827  0.4954 -0.4338  0.0510
 4654TIP3    H235378   0.078   5.707   5.804 -2.0564  0.0665 -2.9588
 4655TIP3   OH235379   2.956   2.264  13.213 -0.0513 -0.6600  0.7246
 4655TIP3    H135380   3.013   2.302  13.145 -0.0560  0.0360  1.0969
 4655TIP3    H235381   2.955   2.170  13.194  0.0582 -0.4906 -0.1528
 4656TIP3   OH235382   6.790   4.967   2.837  0.2139 -0.0277 -0.1453
 4656TIP3    H135383   6.765   4.977   2.929 -0.1453  1.1185 -0.3449
 4656TIP3    H235384   6.731   4.899   2.803 -0.9902  0.9029  0.0125
 4657TIP3   OH235385   1.327   1.859  12.461  0.1328  0.5544  0.5015
 4657TIP3    H135386   1.351   1.911  12.384  1.3324  0.8479  1.0469
 4657TIP3    H235387   1.267   1.915  12.509 -0.3835  0.4947 -0.0648
 4658TIP3   OH235388   0.367   2.669  12.855 -0.2088 -0.6265  0.1394
 4658TIP3    H135389   0.308   2.627  12.794 -1.0798 -0.4053  0.8083
 4658TIP3    H235390   0.310   2.720  12.913  0.5061 -1.3146  1.5214
 4659TIP3   OH235391   3.000   6.443  14.240  0.2880 -0.2682 -0.2248
 4659TIP3    H135392   3.050   6.517  14.273 -3.0621  3.0238 -1.7642
 4659TIP3    H235393   2.957   6.405  14.317  2.0415 -0.7019  0.5801
 4660TIP3   OH235394   2.050   1.854  12.321 -0.3347  0.6213 -0.0138
 4660TIP3    H135395   2.011   1.855  12.234  0.6522 -0.6686 -0.5028
 4660TIP3    H235396   2.105   1.932  12.325 -2.1263  1.9352  0.3319
 4661TIP3   OH235397   0.440   6.010  12.528 -0.1393 -0.3722 -0.6662
 4661TIP3    H135398   0.381   6.083  12.509  0.1772  0.1996  0.4675
 4661TIP3    H235399   0.441   5.959  12.447 -0.3455  0.9025 -1.5075
 4662TIP3   OH235400   4.221   2.586  14.964  0.3255  0.6037 -0.0081
 4662TIP3    H135401   4.162   2.545  15.028 -0.6535  1.3606 -0.3984
 4662TIP3    H235402   4.228   2.677  14.993 -1.8532  1.5395 -2.1070
 4663TIP3   OH235403   1.264   4.729   0.847  0.3400 -0.1980 -0.5589
 4663TIP3    H135404   1.288   4.717   0.755 -1.5705 -0.0119 -1.1240
 4663TIP3    H235405   1.171   4.706   0.850  1.0615 -3.5476  1.9957
 4664TIP3   OH235406   2.073   2.738  11.213  0.3566 -0.1441  0.5834
 4664TIP3    H135407   2.076   2.651  11.254  1.8779 -0.0146  0.7895
 4664TIP3    H235408   2.100   2.724  11.123  3.1433  0.4169  1.2448
 4665TIP3   OH235409   0.442   3.035  16.664 -0.5143  0.1458 -0.0561
 4665TIP3    H135410   0.361   3.042  16.614 -1.3754 -1.9033  0.9568
 4665TIP3    H235411   0.414   3.018  16.754  1.0452 -0.0690  0.4315
 4666TIP3   OH235412   3.934   5.904  12.183  0.3906  0.1241  0.1704
 4666TIP3    H135413   3.953   5.849  12.258 -0.7699 -0.2649  0.2000
 4666TIP3    H235414   3.988   5.868  12.112  1.1348  0.2033  0.6925
 4667TIP3   OH235415   0.594   2.462  14.901 -0.1731 -0.1722  0.2283
 4667TIP3    H135416   0.625   2.433  14.816  0.5307 -0.2743  0.5092
 4667TIP3    H235417   0.566   2.382  14.945  1.0520 -0.3559  0.7156
 4668TIP3   OH235418   1.328   6.618   4.375 -0.0925 -0.0290  0.4665
 4668TIP3    H135419   1.263   6.637   4.307  0.2965 -1.1600 -0.2638
 4668TIP3    H235420   1.399   6.573   4.328  0.6576  0.0864  1.4548
 4669TIP3   OH235421   5.742   4.964   4.654 -0.6011  0.1152 -0.6500
 4669TIP3    H135422   5.737   4.997   4.744 -0.0727  0.0331 -0.5883
 4669TIP3    H235423   5.706   5.035   4.600  0.6365  0.8588 -0.5314
 4670TIP3   OH235424   4.399   0.281   3.184 -0.0032  0.5512 -0.1106
 4670TIP3    H135425   4.402   0.342   3.110  2.5525  0.2193 -0.3901
 4670TIP3    H235426   4.377   0.197   3.146  0.6357  0.5124 -0.4004
 4671TIP3   OH235427   6.588   0.077  12.668 -0.4002 -0.2643  0.5185
 4671TIP3    H135428   6.658   0.072  12.603 -0.4121 -1.5080  0.5693
 4671TIP3    H235429   6.634   0.079  12.752 -0.3949 -1.7237  0.5825
 4672TIP3   OH235430   3.176   2.716  13.907  0.4961 -0.3149 -0.0524
 4672TIP3    H135431   3.097   2.769  13.901  1.0183  0.3444 -1.7761
 4672TIP3    H235432   3.166   2.650  13.838  2.0465  0.6814 -1.3110
 4673TIP3   OH235433   1.074   2.457  11.904 -0.2261 -0.0286  0.6383
 4673TIP3    H135434   0.991   2.414  11.923 -1.8245  2.7935  0.5397
 4673TIP3    H235435   1.055   2.551  11.909  2.1014  0.8249 -2.7766
 4674TIP3   OH235436   2.472   3.057  11.888  0.2161  0.5756  0.2780
 4674TIP3    H135437   2.384   3.019  11.881 -0.7544  2.3010  2.0713
 4674TIP3    H235438   2.491   3.089  11.800 -0.6344 -0.4438 -0.3011
 4675TIP3   OH235439   4.661   4.157   3.249 -0.4589 -0.2231 -0.4848
 4675TIP3    H135440   4.653   4.094   3.321  0.1471 -0.0474 -0.2573
 4675TIP3    H235441   4.755   4.162   3.231 -0.4444  0.9594 -0.1839
 4676TIP3   OH235442   2.415   5.591   5.125 -0.2102 -0.1139  0.3059
 4676TIP3    H135443   2.457   5.671   5.095 -0.5412  1.3005  3.2445
 4676TIP3    H235444   2.338   5.581   5.068  0.2932  1.1797 -0.6337
 4677TIP3   OH235445   6.505   2.545  13.503 -0.2611 -0.3115 -0.7848
 4677TIP3    H135446   6.515   2.483  13.575 -0.4512 -1.0718 -1.3933
 4677TIP3    H235447   6.430   2.599  13.528  0.7048  0.5687  0.3636
 4678TIP3   OH235448   0.463   2.900  12.020  0.3578  0.4411 -0.5405
 4678TIP3    H135449   0.402   2.829  12.038  0.4343  0.7063  0.9185
 4678TIP3    H235450   0.549   2.864  12.044  0.2591  1.3648  1.4346
 4679TIP3   OH235451   0.341   3.332  13.430 -0.3165 -0.0685 -0.1842
 4679TIP3    H135452   0.431   3.334  13.462  0.1163  1.8270 -1.3310
 4679TIP3    H235453   0.315   3.240  13.435  1.8982 -0.7558 -0.3889
 4680TIP3   OH235454   2.684   4.230  15.481  0.5367  0.2365  0.5692
 4680TIP3    H135455   2.610   4.290  15.488  0.8009  0.6755 -0.2930
 4680TIP3    H235456   2.658   4.166  15.414  0.7643  0.1342  0.5769
 4681TIP3   OH235457   2.621   3.830   1.582 -0.1953 -0.5503  0.4675
 4681TIP3    H135458   2.663   3.833   1.668  0.3125 -2.2060  0.3174
 4681TIP3    H235459   2.693   3.810   1.522 -0.8745 -1.4629 -0.0578
 4682TIP3   OH235460   3.821   3.929  12.991 -0.0747 -0.7585 -0.9704
 4682TIP3    H135461   3.757   3.997  13.014 -0.3701 -1.0462 -0.9262
 4682TIP3    H235462   3.850   3.952  12.903  0.7701  0.1330 -0.4798
 4683TIP3   OH235463   1.044   3.948  12.091 -0.0338  0.0642 -0.5764
 4683TIP3    H135464   0.980   4.000  12.043 -1.7814 -2.9176 -1.7820
 4683TIP3    H235465   1.123   3.952  12.037 -0.9058 -0.4293 -1.9625
 4684TIP3   OH235466   5.839   5.426  13.538 -0.3847 -0.4510  0.3700
 4684TIP3    H135467   5.826   5.502  13.481 -2.1131 -0.8463  0.1964
 4684TIP3    H235468   5.784   5.444  13.615  0.6960 -0.6509  1.2172
 4685TIP3   OH235469   4.075   0.510  16.842  0.1295  0.1424 -0.4075
 4685TIP3    H135470   4.106   0.419  16.835 -0.8781 -0.1547 -1.1682
 4685TIP3    H235471   4.155   0.562  16.839  0.5823 -0.5419 -3.3805
 4686TIP3   OH235472   5.403   2.356   1.116 -0.0253 -0.5575  0.3276
 4686TIP3    H135473   5.372   2.357   1.206 -3.4640 -1.5966 -0.7146
 4686TIP3    H235474   5.337   2.406   1.067  0.6587 -1.7030 -1.8925
 4687TIP3   OH235475   6.696   2.973   0.577  0.1409 -0.1703 -0.8145
 4687TIP3    H135476   6.692   3.011   0.665 -4.2898 -3.1154  0.5891
 4687TIP3    H235477   6.656   3.040   0.521  1.5649  1.0864 -0.4228
 4688TIP3   OH235478   0.037   2.029   5.610 -0.2869 -0.3983 -0.3160
 4688TIP3    H135479  -0.032   2.091   5.587 -2.7774 -3.1798 -1.0255
 4688TIP3    H235480   0.054   2.044   5.703 -1.1035  1.0291 -0.3841
 4689TIP3   OH235481   1.172   3.299  13.543 -0.0739  0.3179  0.5342
 4689TIP3    H135482   1.202   3.239  13.475  1.2331 -0.3091  1.6094
 4689TIP3    H235483   1.251   3.345  13.570 -0.4041  0.0109  2.1388
 4690TIP3   OH235484   5.921   1.642   5.175  0.0079  0.2914 -0.0442
 4690TIP3    H135485   5.864   1.624   5.100 -0.0545 -1.8211  0.4488
 4690TIP3    H235486   5.860   1.659   5.247 -0.1268 -2.7297  0.6660
 4691TIP3   OH235487   3.921   3.341   5.208 -0.4106  0.3098 -0.2783
 4691TIP3    H135488   3.993   3.308   5.155 -1.9325 -2.3362 -0.9090
 4691TIP3    H235489   3.867   3.393   5.147 -0.7504 -0.4950 -0.6791
 4692TIP3   OH235490   4.077   5.040  14.277 -0.1139  0.3309 -0.1482
 4692TIP3    H135491   4.171   5.057  14.285 -0.1834  1.4846 -1.4071
 4692TIP3    H235492   4.038   5.126  14.261 -1.0854 -0.4293 -2.1484
 4693TIP3   OH235493   1.881   1.832   5.171 -0.0169  0.0003 -0.0880
 4693TIP3    H135494   1.971   1.834   5.202  0.3060 -0.5116 -0.9565
 4693TIP3    H235495   1.847   1.747   5.200  0.0710 -0.1899 -0.5339
 4694TIP3   OH235496   1.347   3.516  11.686  0.1672 -0.0654  0.3383
 4694TIP3    H135497   1.284   3.449  11.659 -1.0948  1.2666 -0.2069
 4694TIP3    H235498   1.410   3.470  11.740 -0.8522 -1.6195  0.2684
 4695TIP3   OH235499   4.537   0.915   4.126  0.2968  0.2934  0.1817
 4695TIP3    H135500   4.457   0.916   4.075 -1.1703 -1.8655  2.2091
 4695TIP3    H235501   4.601   0.871   4.071 -0.5683  0.0441 -0.6385
 4696TIP3   OH235502   5.051   0.001   1.561  0.8056 -0.3452  0.0983
 4696TIP3    H135503   4.977  -0.037   1.514 -0.7068  0.9070  1.3703
 4696TIP3    H235504   5.121   0.005   1.496 -0.4372 -0.9522 -1.3335
 4697TIP3   OH235505   2.680   0.036  15.596  0.2600  0.1904  0.6376
 4697TIP3    H135506   2.753   0.060  15.653 -0.9334  2.1326  1.4682
 4697TIP3    H235507   2.620  -0.012  15.653  0.3218 -0.3184  0.2795
 4698TIP3   OH235508   1.680   5.406  13.872 -0.6054 -0.2428  0.0999
 4698TIP3    H135509   1.646   5.418  13.961 -1.5895 -1.1180 -0.1473
 4698TIP3    H235510   1.763   5.454  13.872 -0.0385 -1.1365  1.8345
 4699TIP3   OH235511   1.862   1.755  11.610  0.3208  0.5276 -0.9300
 4699TIP3    H135512   1.904   1.786  11.530  0.0284 -0.8512 -1.6549
 4699TIP3    H235513   1.898   1.667  11.623 -0.4873  0.2932 -0.1841
 4700TIP3   OH235514   5.539   5.890   4.557 -0.3680  0.0296  0.4367
 4700TIP3    H135515   5.471   5.829   4.529  0.1603 -0.0993 -0.6398
 4700TIP3    H235516   5.543   5.955   4.487 -1.0776  1.4587  1.6779
 4701TIP3   OH235517   2.067   4.700   0.944  0.3111 -0.0556  0.0166
 4701TIP3    H135518   2.132   4.650   0.994  0.0435 -0.0068  0.4223
 4701TIP3    H235519   2.038   4.768   1.005  1.8741  1.6576 -1.0459
 4702TIP3   OH235520   4.903   1.188  13.075  0.2611  0.0414  0.2397
 4702TIP3    H135521   4.941   1.118  13.128  2.2635  0.5841 -0.3847
 4702TIP3    H235522   4.825   1.149  13.036 -0.0473 -1.0425  1.8392
 4703TIP3   OH235523   6.305   1.666   2.466 -0.3148  0.5620  0.2452
 4703TIP3    H135524   6.307   1.579   2.506 -2.3331  0.0788 -0.5780
 4703TIP3    H235525   6.377   1.665   2.403 -0.4754 -0.6114  0.0671
 4704TIP3   OH235526   4.418   5.589   4.261  0.5015  0.4807  0.0106
 4704TIP3    H135527   4.423   5.606   4.356 -1.9255 -0.0984  0.3039
 4704TIP3    H235528   4.485   5.523   4.245  1.4456  1.1126  1.1649
 4705TIP3   OH235529   4.744   3.306  14.841 -0.6285  0.0081  0.1913
 4705TIP3    H135530   4.698   3.242  14.787 -1.0834  0.9544 -0.5644
 4705TIP3    H235531   4.747   3.386  14.788  0.6859  0.3809  0.7714
 4706TIP3   OH235532   1.305   1.887   0.666  0.3399  0.1345 -0.4263
 4706TIP3    H135533   1.327   1.948   0.736  0.0326  0.4017 -0.5583
 4706TIP3    H235534   1.352   1.920   0.589 -0.5560  0.7556 -0.7300
 4707TIP3   OH235535   1.541   1.439   3.099  0.6533  0.0786 -0.0249
 4707TIP3    H135536   1.458   1.458   3.055  1.7084  1.4530 -1.5535
 4707TIP3    H235537   1.583   1.525   3.109  1.9769 -0.5956  0.4932
 4708TIP3   OH235538   5.484   3.461   3.422  0.4110 -0.0594  0.2454
 4708TIP3    H135539   5.397   3.423   3.407  0.3749 -0.0345  0.3896
 4708TIP3    H235540   5.518   3.477   3.334 -0.6192  1.9925  0.1492
 4709TIP3   OH235541   1.347   4.471   2.319  0.4262 -0.0795 -0.0097
 4709TIP3    H135542   1.355   4.512   2.405 -0.4669 -1.0572  0.5560
 4709TIP3    H235543   1.253   4.458   2.306  0.4807  0.6971 -1.4676
 4710TIP3   OH235544   3.821   4.438  15.445  0.4769  0.1903  0.1849
 4710TIP3    H135545   3.791   4.494  15.517 -1.3733  0.4451 -0.7186
 4710TIP3    H235546   3.849   4.357  15.487  3.5916  1.8224  1.5707
 4711TIP3   OH235547   1.647   5.760   3.668 -0.7145 -0.3938  0.3954
 4711TIP3    H135548   1.601   5.828   3.618 -0.8141  0.5011  1.6677
 4711TIP3    H235549   1.739   5.786   3.666 -0.4990 -1.1561 -0.5314
 4712TIP3   OH235550   4.342   6.720   0.547 -0.2395  0.1912 -0.0442
 4712TIP3    H135551   4.300   6.806   0.544  0.8627  0.7340 -0.2525
 4712TIP3    H235552   4.373   6.711   0.637  1.9977  1.2021 -0.6424
 4713TIP3   OH235553   2.984   2.324  13.540  0.4606 -0.1389 -0.0058
 4713TIP3    H135554   3.031   2.381  13.478  0.9953 -0.6005 -0.0392
 4713TIP3    H235555   2.966   2.244  13.489  1.3236 -0.7133  0.5539
 4714TIP3   OH235556   4.926   5.416  12.842  0.1876 -0.3085  0.6505
 4714TIP3    H135557   4.837   5.445  12.820  0.1431 -1.6627 -1.1928
 4714TIP3    H235558   4.933   5.329  12.803  2.2576 -0.3158  0.9359
 4715TIP3   OH235559   4.941   5.863  14.384 -0.4597  0.2011 -0.0688
 4715TIP3    H135560   4.993   5.943  14.395 -0.2124 -0.0063  0.2802
 4715TIP3    H235561   4.998   5.793  14.415 -0.5839 -0.1432 -0.6121
 4716TIP3   OH235562   1.973   0.329   2.479 -0.0905 -0.3757  0.2130
 4716TIP3    H135563   1.967   0.264   2.549  0.2407 -1.6612 -0.9032
 4716TIP3    H235564   2.063   0.321   2.447 -0.0190  0.7117  0.1044
 4717TIP3   OH235565   3.452   2.346  11.356 -0.6240  0.1475  0.4128
 4717TIP3    H135566   3.480   2.393  11.277  0.0961 -1.8746 -0.6044
 4717TIP3    H235567   3.370   2.389  11.381  0.1832  2.1681 -0.2087
 4718TIP3   OH235568   6.548   3.425  11.900 -0.6208 -0.2270  0.2045
 4718TIP3    H135569   6.536   3.420  11.805  1.1718  0.7744 -0.1225
 4718TIP3    H235570   6.526   3.338  11.932 -3.1756 -0.0529 -0.8582
 4719TIP3   OH235571   2.927   2.486  11.132 -0.5538 -0.7300 -0.3440
 4719TIP3    H135572   2.923   2.481  11.036  0.7473 -1.1068 -0.3996
 4719TIP3    H235573   2.840   2.517  11.158 -0.9713 -0.7509 -1.6336
 4720TIP3   OH235574   3.559   3.716   2.973 -0.1848  0.0985  0.4535
 4720TIP3    H135575   3.625   3.726   2.905  0.9374 -0.0893  1.4680
 4720TIP3    H235576   3.516   3.633   2.955  0.9756 -0.5753  0.6708
 4721TIP3   OH235577   5.898   0.530  15.877 -1.0194 -0.7186 -0.2823
 4721TIP3    H135578   5.956   0.511  15.803  0.0628 -1.0659  0.6196
 4721TIP3    H235579   5.871   0.444  15.909  1.7757 -0.8324  2.1812
 4722TIP3   OH235580   3.329   0.797  12.558  0.1030  0.1830  0.0608
 4722TIP3    H135581   3.361   0.711  12.585  0.3609  0.6464  1.2969
 4722TIP3    H235582   3.245   0.780  12.515  0.7704 -0.7986 -0.9005
 4723TIP3   OH235583   2.357   4.559  15.296  0.4755 -0.4859  0.0174
 4723TIP3    H135584   2.323   4.470  15.300 -2.0310  0.4109 -0.0331
 4723TIP3    H235585   2.322   4.595  15.215 -0.4087  1.2418  1.1161
 4724TIP3   OH235586   6.695   1.547  16.643  0.0867  0.3901  0.0717
 4724TIP3    H135587   6.637   1.540  16.568 -0.5636  0.9052  0.5076
 4724TIP3    H235588   6.637   1.540  16.719  0.3011  2.7868  0.5329
 4725TIP3   OH235589   5.570   3.259  12.290 -0.0489 -0.3518 -0.3084
 4725TIP3    H135590   5.641   3.261  12.355 -0.4002  2.8426  0.1399
 4725TIP3    H235591   5.512   3.189  12.320  1.9523 -1.8506  0.3243
 4726TIP3   OH235592   0.399   5.565  11.554 -0.0190 -0.2520 -0.6785
 4726TIP3    H135593   0.393   5.641  11.612  0.9965  0.2047 -1.1534
 4726TIP3    H235594   0.308   5.537  11.542 -0.6542  2.1848 -2.1991
 4727TIP3   OH235595   6.796   4.354  15.663  0.1040  0.8977 -0.1451
 4727TIP3    H135596   6.750   4.356  15.747 -2.3196 -1.1232 -1.2835
 4727TIP3    H235597   6.788   4.263  15.633 -0.0198  1.7323 -2.9917
 4728TIP3   OH235598   2.254   5.536  16.964 -0.4733 -0.1900 -0.1706
 4728TIP3    H135599   2.315   5.487  16.908 -1.0042 -0.9146 -0.1400
 4728TIP3    H235600   2.228   5.473  17.031  0.3950  0.7583  1.1078
 4729TIP3   OH235601   1.598   6.328  12.034 -0.1496 -0.1481 -0.9145
 4729TIP3    H135602   1.667   6.369  12.086 -1.1044 -0.7667  0.9502
 4729TIP3    H235603   1.643   6.264  11.979  0.7328 -1.0415  0.7759
 4730TIP3   OH235604   6.218   2.125  11.913  0.3427  0.2042  0.7442
 4730TIP3    H135605   6.195   2.201  11.967  1.1381  0.3676  0.8719
 4730TIP3    H235606   6.175   2.052  11.957 -0.4301  0.5724  0.6224
 4731TIP3   OH235607   5.967   1.798  13.089 -0.4615  0.0810  0.5048
 4731TIP3    H135608   6.041   1.784  13.030 -1.4982 -2.9729 -0.2540
 4731TIP3    H235609   5.896   1.827  13.032 -0.5195  0.5249  0.8054
 4732TIP3   OH235610   1.639   5.970   5.018  0.3715  0.0637 -0.0711
 4732TIP3    H135611   1.637   5.880   5.049  0.6884  0.0315 -0.1476
 4732TIP3    H235612   1.571   5.974   4.950  0.7327 -0.2601 -0.4577
 4733TIP3   OH235613   6.536   3.560   5.357 -1.1003  0.1424 -0.4546
 4733TIP3    H135614   6.521   3.649   5.325  0.1169  0.5070 -0.0562
 4733TIP3    H235615   6.543   3.570   5.452 -0.2296 -0.2659 -0.4724
 4734TIP3   OH235616   2.883   0.450  14.912  0.2402 -0.1204  0.8144
 4734TIP3    H135617   2.900   0.507  14.987  0.0147 -0.0508  0.8126
 4734TIP3    H235618   2.852   0.508  14.843 -2.1794 -0.4688  1.5006
 4735TIP3   OH235619   0.803   6.250  16.137 -0.1833  0.1169 -0.6122
 4735TIP3    H135620   0.890   6.210  16.140 -0.0613  0.4216  0.1861
 4735TIP3    H235621   0.770   6.229  16.050  1.2193  1.1223 -1.4292
 4736TIP3   OH235622   0.976   2.149   0.149  0.3702  0.1226 -0.2938
 4736TIP3    H135623   0.976   2.195   0.065 -0.6773 -0.0585 -0.4066
 4736TIP3    H235624   0.910   2.081   0.139  2.1194 -1.6716 -0.2441
 4737TIP3   OH235625   5.253   5.957  15.775  0.1331 -0.4614 -0.6069
 4737TIP3    H135626   5.314   6.009  15.723  0.4740 -2.4259 -2.2729
 4737TIP3    H235627   5.307   5.919  15.844  0.0072  0.7804  0.2160
 4738TIP3   OH235628   2.750   6.596  12.705  0.2800 -0.3300  0.0206
 4738TIP3    H135629   2.770   6.664  12.641  1.6778 -1.4091 -0.7612
 4738TIP3    H235630   2.735   6.518  12.652 -0.4553 -0.8142  0.9308
 4739TIP3   OH235631   1.569   4.723   0.352 -0.2863  0.1110  0.1362
 4739TIP3    H135632   1.586   4.733   0.446 -1.6738 -0.4689  0.4752
 4739TIP3    H235633   1.639   4.773   0.310 -0.2366  1.2514  1.4972
 4740TIP3   OH235634   4.490   0.624  17.091 -0.5048 -0.2703  0.3509
 4740TIP3    H135635   4.549   0.665  17.028 -0.3540 -1.3244 -0.2348
 4740TIP3    H235636   4.464   0.542  17.049  0.0088 -1.2639  1.8767
 4741TIP3   OH235637   1.739   0.372   6.445  0.0733  0.1238  0.2841
 4741TIP3    H135638   1.682   0.421   6.505 -0.4667  1.5617 -1.3006
 4741TIP3    H235639   1.794   0.440   6.405  1.6859 -1.0277  0.4702
 4742TIP3   OH235640   5.374   2.942   5.884 -0.6324 -0.3975  0.6634
 4742TIP3    H135641   5.444   2.999   5.853 -0.6464 -0.2469  0.9069
 4742TIP3    H235642   5.378   2.948   5.980  0.0674 -1.6449  0.7381
 4743TIP3   OH235643   1.695   3.132   0.564  0.3348 -0.4809 -0.1822
 4743TIP3    H135644   1.760   3.171   0.506  1.5880  0.1688  1.5834
 4743TIP3    H235645   1.624   3.196   0.567  2.2774  1.7789  2.5271
 4744TIP3   OH235646   6.038   3.096   2.160 -0.1119 -0.0805 -0.1479
 4744TIP3    H135647   6.075   3.020   2.205  0.6085  0.5088  0.2715
 4744TIP3    H235648   6.089   3.171   2.192 -0.8160  0.5866 -0.5443
 4745TIP3   OH235649   5.789   0.530  10.757  0.6132  0.2218 -0.6181
 4745TIP3    H135650   5.752   0.617  10.766  0.0633  0.0860 -1.4358
 4745TIP3    H235651   5.872   0.533  10.805  0.5333  1.1487 -0.5347
 4746TIP3   OH235652   3.349   6.084   5.280  0.0209  0.1687 -0.3174
 4746TIP3    H135653   3.294   6.139   5.336  0.7009  0.5235  0.0083
 4746TIP3    H235654   3.409   6.146   5.238 -1.4445  0.1680 -2.6684
 4747TIP3   OH235655   3.236   6.175  16.517 -0.1605  0.1732 -0.0849
 4747TIP3    H135656   3.143   6.152  16.524 -0.5612  1.6968 -0.0966
 4747TIP3    H235657   3.237   6.259  16.473  1.3088 -0.2880 -0.9940
 4748TIP3   OH235658   3.580   0.115   5.268 -0.2018 -0.1675  0.3687
 4748TIP3    H135659   3.511   0.063   5.310  0.7088 -1.7311  0.0078
 4748TIP3    H235660   3.657   0.058   5.268  0.2403  0.3111 -2.1239
 4749TIP3   OH235661   1.421   5.427   1.120  0.3095 -0.1728 -0.1261
 4749TIP3    H135662   1.461   5.417   1.033  0.2671  0.9084 -0.2786
 4749TIP3    H235663   1.440   5.344   1.164  1.5038 -0.2233 -0.6945
 4750TIP3   OH235664   2.708   0.291   5.731 -0.0449  0.7470 -0.0571
 4750TIP3    H135665   2.753   0.226   5.785 -2.3372 -0.4558  0.4878
 4750TIP3    H235666   2.755   0.373   5.749  1.7519 -0.3634  0.6450
 4751TIP3   OH235667   3.728   0.186  11.199 -0.2254  0.2506 -0.2140
 4751TIP3    H135668   3.652   0.179  11.142  0.0334  0.6520 -0.6138
 4751TIP3    H235669   3.702   0.142  11.280 -0.5569 -0.4123 -0.6767
 4752TIP3   OH235670   1.012   6.268  12.048 -0.8347  0.0457 -0.5095
 4752TIP3    H135671   0.962   6.264  11.966 -0.5295 -0.7863 -0.6618
 4752TIP3    H235672   1.103   6.278  12.020 -0.8396  1.0096 -0.2382
 4753TIP3   OH235673   6.031   3.816   0.136  0.0473 -0.4658  0.0851
 4753TIP3    H135674   6.003   3.898   0.094  0.6357 -0.2783  0.0594
 4753TIP3    H235675   6.093   3.777   0.074 -0.7104 -1.2587 -0.2044
 4754TIP3   OH235676   4.264   4.889   4.289 -0.0573 -0.7913 -0.3381
 4754TIP3    H135677   4.208   4.955   4.248  0.2697 -1.2528 -1.5799
 4754TIP3    H235678   4.282   4.826   4.219  1.2560 -1.1358  0.2731
 4755TIP3   OH235679   3.193   5.568   5.164 -0.0590 -0.3271 -0.1966
 4755TIP3    H135680   3.117   5.576   5.223 -0.8701 -0.4068 -1.1947
 4755TIP3    H235681   3.220   5.658   5.148 -1.1804 -0.1738 -1.3653
 4756TIP3   OH235682   6.236   6.298  16.927 -0.0842 -0.0584 -0.3935
 4756TIP3    H135683   6.200   6.302  16.838 -0.9812  0.8599 -0.0078
 4756TIP3    H235684   6.303   6.367  16.929  0.1579 -0.2900 -0.4439
 4757TIP3   OH235685   3.972   0.242  11.332  0.3101 -0.4327 -0.2343
 4757TIP3    H135686   3.895   0.227  11.276 -0.5848  0.5645  0.6752
 4757TIP3    H235687   3.965   0.334  11.357  2.5117  0.0255 -1.1374
 4758TIP3   OH235688   1.958   6.292  11.992 -0.1889 -0.1900  0.4147
 4758TIP3    H135689   1.892   6.361  11.984 -1.1829 -1.0007  1.2161
 4758TIP3    H235690   1.944   6.236  11.916 -0.3311 -0.2720  0.4999
 4759TIP3   OH235691   0.473   0.309   1.809  0.2452  0.2470 -0.3410
 4759TIP3    H135692   0.476   0.377   1.877 -1.4412 -1.3307  1.4380
 4759TIP3    H235693   0.473   0.227   1.858 -1.2172 -0.9754 -2.2455
 4760TIP3   OH235694   2.846   1.066  12.199 -0.1630  0.0661  0.0825
 4760TIP3    H135695   2.907   0.992  12.195  1.1096  1.0799  0.0090
 4760TIP3    H235696   2.863   1.115  12.119 -0.7346  0.6360  0.3065
 4761TIP3   OH235697   5.292   6.769   3.924 -0.2383  0.5126 -0.0394
 4761TIP3    H135698   5.297   6.858   3.890 -0.0731  0.4598 -0.1559
 4761TIP3    H235699   5.381   6.750   3.954  0.2760 -0.3809 -1.9628
 4762TIP3   OH235700   0.177   6.430   0.869  0.4760 -0.2634  0.1202
 4762TIP3    H135701   0.267   6.411   0.844  0.2880 -1.5888  0.3647
 4762TIP3    H235702   0.125   6.400   0.796  0.2499  1.2541 -0.3796
 4763TIP3   OH235703   1.933   1.082  13.470 -0.1605 -0.1320  0.0594
 4763TIP3    H135704   1.856   1.137  13.456  0.1289  0.0539 -0.8338
 4763TIP3    H235705   1.917   1.004  13.418 -0.5750 -0.9292  1.3331
 4764TIP3   OH235706   3.383   5.066   4.463  0.1712 -0.3755  0.2607
 4764TIP3    H135707   3.429   4.985   4.445 -0.2704 -0.2799 -1.4726
 4764TIP3    H235708   3.425   5.101   4.541  1.1053 -1.7038  0.3781
 4765TIP3   OH235709   3.203   5.662   6.126  0.5371  1.2221 -0.2422
 4765TIP3    H135710   3.288   5.660   6.083  0.3422 -0.4592 -0.5924
 4765TIP3    H235711   3.219   5.623   6.212  0.1899  1.2151 -0.1798
 4766TIP3   OH235712   3.350   4.282   1.293 -0.0354  0.7641 -0.8194
 4766TIP3    H135713   3.440   4.279   1.260 -0.3635  2.3444 -1.9864
 4766TIP3    H235714   3.359   4.289   1.388  1.0196 -0.6305 -0.7874
 4767TIP3   OH235715   3.403   3.672  15.571 -0.1100 -0.5513  0.0021
 4767TIP3    H135716   3.478   3.641  15.519  0.0340  0.5835 -0.4944
 4767TIP3    H235717   3.347   3.595  15.581  0.1709 -0.9404 -1.2939
 4768TIP3   OH235718   1.447   0.494  11.916 -0.1750  0.3808  0.1711
 4768TIP3    H135719   1.380   0.426  11.914 -1.3403  1.4949 -1.9088
 4768TIP3    H235720   1.507   0.471  11.845  0.0777  0.8714  0.2204
 4769TIP3   OH235721   1.790   4.932   1.572  0.2745  0.5823  0.4886
 4769TIP3    H135722   1.849   4.957   1.643  0.3395 -1.0655  1.0374
 4769TIP3    H235723   1.710   4.983   1.588  0.2696  0.1924  1.7826
 4770TIP3   OH235724   4.305   4.219   2.862  0.0822  0.5996 -0.0569
 4770TIP3    H135725   4.347   4.228   2.947  0.1339 -0.2833  0.0136
 4770TIP3    H235726   4.304   4.125   2.845  0.1150  0.7715 -1.0555
 4771TIP3   OH235727   5.342   2.376  12.574  0.4739  0.1326 -0.4436
 4771TIP3    H135728   5.313   2.287  12.551  0.8456  0.2380 -1.3466
 4771TIP3    H235729   5.322   2.429  12.497  2.2970  0.3751 -0.7995
 4772TIP3   OH235730   2.419   4.102  13.978  0.1263  0.4145 -0.1364
 4772TIP3    H135731   2.387   4.021  14.017  1.2208 -0.0862 -0.2644
 4772TIP3    H235732   2.511   4.085  13.957  0.2002  1.4702 -0.7543
 4773TIP3   OH235733   2.356   5.918   1.794 -0.3981 -0.0578  0.1846
 4773TIP3    H135734   2.272   5.941   1.753 -0.8931 -2.3893 -0.2837
 4773TIP3    H235735   2.336   5.841   1.847  1.5869 -1.1772 -0.5966
 4774TIP3   OH235736   6.007   1.074  11.447 -0.6513  0.2131  0.1306
 4774TIP3    H135737   6.007   1.027  11.530 -1.3369 -1.1274 -0.5863
 4774TIP3    H235738   6.099   1.076  11.421 -0.4644  0.4022  0.7927
 4775TIP3   OH235739   3.659   6.446  12.201  0.2052  0.2719 -0.1164
 4775TIP3    H135740   3.668   6.524  12.255  0.4524 -0.9153  1.6484
 4775TIP3    H235741   3.642   6.375  12.263 -0.7540 -0.9846 -1.7001
 4776TIP3   OH235742   6.682   1.586   0.372 -0.1369 -0.0204  0.6728
 4776TIP3    H135743   6.711   1.559   0.284 -0.5785  1.5169  0.0233
 4776TIP3    H235744   6.712   1.516   0.429  0.0240 -1.1468 -0.7263
 4777TIP3   OH235745   1.325   0.552  16.495 -0.2999 -0.1451 -0.5616
 4777TIP3    H135746   1.365   0.595  16.571  0.0379  0.3132 -0.9887
 4777TIP3    H235747   1.382   0.576  16.421 -1.0035 -0.0148 -1.0781
 4778TIP3   OH235748   1.542   1.320  12.727 -0.1242  0.4787 -0.2011
 4778TIP3    H135749   1.517   1.306  12.818  1.2344  2.1774  0.4742
 4778TIP3    H235750   1.516   1.410  12.708  1.2121  0.7360 -0.9140
 4779TIP3   OH235751   1.859   5.302   3.339  0.3511  0.5612 -0.3060
 4779TIP3    H135752   1.799   5.279   3.410  0.8673 -0.7290 -0.2709
 4779TIP3    H235753   1.887   5.391   3.359  0.2071  0.3460  0.9070
 4780TIP3   OH235754   5.742   5.438  14.350 -0.0641 -0.0091 -0.4410
 4780TIP3    H135755   5.832   5.462  14.327  0.5133 -0.5377  1.1530
 4780TIP3    H235756   5.688   5.489  14.290  1.2673  1.2794 -0.6042
 4781TIP3   OH235757   4.395   1.490  13.290 -0.0276 -0.0372  0.2205
 4781TIP3    H135758   4.390   1.436  13.211 -0.3648 -0.5421  0.5774
 4781TIP3    H235759   4.398   1.580  13.258  0.2066 -0.2511 -0.3770
 4782TIP3   OH235760   1.210   2.210  13.081 -0.2841 -0.0759  0.1481
 4782TIP3    H135761   1.237   2.299  13.058  2.0441 -0.8149 -0.2158
 4782TIP3    H235762   1.285   2.156  13.060 -0.2364 -1.7045  3.7416
 4783TIP3   OH235763   4.077   2.657  12.385 -0.3587  0.0689 -0.3479
 4783TIP3    H135764   4.118   2.720  12.325  2.3508 -2.8023 -1.8214
 4783TIP3    H235765   3.983   2.666  12.368 -0.1060  3.3059 -0.7423
 4784TIP3   OH235766   0.801   2.357  11.185 -0.1056  0.5791  0.7133
 4784TIP3    H135767   0.790   2.318  11.098 -1.8750  0.5612  0.8967
 4784TIP3    H235768   0.839   2.443  11.169  1.8373 -0.3333  0.1385
 4785TIP3   OH235769   3.862   2.698   0.531  0.6393  0.0126 -0.1645
 4785TIP3    H135770   3.956   2.681   0.530  0.7364  0.5026  0.1271
 4785TIP3    H235771   3.827   2.641   0.600  0.7511 -0.0401 -0.1524
 4786TIP3   OH235772   3.780   1.384  14.646 -0.6516 -0.6267 -0.7592
 4786TIP3    H135773   3.727   1.321  14.694 -0.5653  0.0219  0.2191
 4786TIP3    H235774   3.746   1.470  14.673  0.0539 -0.2322 -1.0973
 4787TIP3   OH235775   1.103   5.699   4.827 -0.0587  0.5763 -0.3263
 4787TIP3    H135776   1.008   5.693   4.830  0.0393 -1.6392 -0.2539
 4787TIP3    H235777   1.124   5.717   4.736 -0.4865 -0.7711 -0.6992
 4788TIP3   OH235778   4.408   6.193  16.063  0.6115 -0.0690 -0.7526
 4788TIP3    H135779   4.339   6.260  16.062 -0.0803 -0.7666 -0.4740
 4788TIP3    H235780   4.444   6.198  16.152  1.6541  1.0142 -1.2103
 4789TIP3   OH235781   1.881   3.464  13.202  0.0452 -0.1555 -0.4303
 4789TIP3    H135782   1.874   3.394  13.267 -1.0866 -0.5201 -0.9257
 4789TIP3    H235783   1.823   3.533  13.235  0.8508  0.4144 -0.1488
 4790TIP3   OH235784   0.735   3.868  11.284 -0.3885 -0.2574 -0.3898
 4790TIP3    H135785   0.641   3.848  11.290 -0.3951 -0.2831 -0.5686
 4790TIP3    H235786   0.742   3.925  11.207 -0.0451 -1.6079 -1.3936
 4791TIP3   OH235787   3.295   3.774   5.272 -0.4418  1.1310  0.6612
 4791TIP3    H135788   3.239   3.825   5.213 -0.8390 -0.8342 -0.7850
 4791TIP3    H235789   3.235   3.709   5.309  0.1976  1.2096  1.8444
 4792TIP3   OH235790   3.086   1.416   0.499 -0.0285  0.3309  0.2771
 4792TIP3    H135791   3.029   1.341   0.517 -0.0637  0.1390 -0.6122
 4792TIP3    H235792   3.153   1.411   0.568  1.2907 -1.8627 -1.0517
 4793TIP3   OH235793   6.493   1.752   5.899  0.5389  0.2100 -0.1918
 4793TIP3    H135794   6.508   1.719   5.988 -0.0319  1.0354  0.2173
 4793TIP3    H235795   6.563   1.713   5.847  0.7104 -0.5084  0.5642
 4794TIP3   OH235796   4.931   0.591   2.693  0.1567 -0.0053  0.1272
 4794TIP3    H135797   4.850   0.579   2.643 -0.0549 -0.4439  0.5658
 4794TIP3    H235798   4.996   0.614   2.627 -0.6894  2.1610 -0.0512
 4795TIP3   OH235799   4.399   2.247   6.053 -0.3990  0.4237  0.4064
 4795TIP3    H135800   4.341   2.208   6.118 -0.8830  0.9227  0.2900
 4795TIP3    H235801   4.485   2.246   6.093 -0.4885 -0.3232  0.5882
 4796TIP3   OH235802   3.661   6.046   0.149  0.2262 -0.1804 -0.0008
 4796TIP3    H135803   3.646   6.093   0.231 -0.4493 -0.1755 -0.1208
 4796TIP3    H235804   3.581   6.060   0.098  0.8775  0.3359 -0.9187
 4797TIP3   OH235805   4.945   2.919   5.653 -0.6877 -0.0302  0.8493
 4797TIP3    H135806   5.005   2.981   5.611 -0.8106 -0.9549 -0.7772
 4797TIP3    H235807   4.989   2.894   5.734  1.3804 -1.0179 -0.4955
 4798TIP3   OH235808   4.750   2.403   0.630 -0.3819  0.3426  0.3464
 4798TIP3    H135809   4.669   2.402   0.681  0.5611  0.1045  1.9182
 4798TIP3    H235810   4.808   2.463   0.677 -0.1613  1.7824 -1.6487
 4799TIP3   OH235811   0.262   3.470   4.838  0.1890  0.0794  0.3607
 4799TIP3    H135812   0.172   3.478   4.807  0.8388  1.8769 -1.3036
 4799TIP3    H235813   0.314   3.460   4.758  1.5200 -0.3189  1.2496
 4800TIP3   OH235814   3.230   5.957   6.376  0.3561 -0.0133 -0.4106
 4800TIP3    H135815   3.147   5.972   6.330 -1.1216 -2.2511  1.3440
 4800TIP3    H235816   3.289   6.024   6.340 -2.5537  2.6061 -0.7582
 4801TIP3   OH235817   0.988   4.626  11.875  0.4227 -0.0661  0.1604
 4801TIP3    H135818   0.964   4.615  11.967  1.3025 -0.8589  0.3146
 4801TIP3    H235819   0.968   4.542  11.835  3.3050 -0.9969  0.4200
 4802TIP3   OH235820   0.613   1.838  14.171  0.4397  0.0779 -0.0792
 4802TIP3    H135821   0.611   1.883  14.087 -0.9362  0.7420  0.2829
 4802TIP3    H235822   0.700   1.857  14.206  1.3667 -0.9367 -1.7035
 4803TIP3   OH235823   3.842   3.215  15.188  0.0585  0.1216 -0.5029
 4803TIP3    H135824   3.891   3.229  15.269 -0.0587  1.7687 -0.6650
 4803TIP3    H235825   3.810   3.303  15.165  0.2020 -0.2811 -2.3888
 4804TIP3   OH235826   2.788   3.644   1.141 -0.1652  0.3456  0.1764
 4804TIP3    H135827   2.847   3.626   1.068  1.3317  0.2034  1.3727
 4804TIP3    H235828   2.724   3.706   1.106  0.7321  0.5586 -1.1517
 4805TIP3   OH235829   1.747   3.305  15.469 -0.1677 -0.0929 -0.2704
 4805TIP3    H135830   1.793   3.273  15.392 -1.6891  0.6041 -1.5423
 4805TIP3    H235831   1.695   3.379  15.436 -0.9738  0.1232  1.3940
 4806TIP3   OH235832   5.498   1.217   1.366 -0.3650 -1.2364 -0.1237
 4806TIP3    H135833   5.563   1.284   1.384 -0.7281 -0.7739 -0.5064
 4806TIP3    H235834   5.461   1.195   1.451 -1.4037  0.2501 -0.1426
 4807TIP3   OH235835   5.279   1.381   3.751  0.1309 -0.4580 -0.1523
 4807TIP3    H135836   5.331   1.376   3.831 -0.6772  0.4139  0.4512
 4807TIP3    H235837   5.342   1.401   3.682  1.1427 -3.1302 -0.1053
 4808TIP3   OH235838   1.310   4.041  12.724  0.3675  0.5181  0.5080
 4808TIP3    H135839   1.342   4.059  12.635  0.3088  0.0312  0.3835
 4808TIP3    H235840   1.269   4.122  12.752  2.6521  1.5699  1.0840
 4809TIP3   OH235841   1.328   5.131   4.513 -0.6316 -0.1473  0.0857
 4809TIP3    H135842   1.334   5.085   4.596 -1.0566 -0.9443 -0.3174
 4809TIP3    H235843   1.310   5.063   4.448 -0.0774  0.4302 -0.6997
 4810TIP3   OH235844   3.974   1.265   4.057 -0.5092 -1.1110 -0.5737
 4810TIP3    H135845   4.026   1.186   4.039 -0.3507 -1.1494  0.0259
 4810TIP3    H235846   3.897   1.233   4.104  0.5439 -0.7233  1.5317
 4811TIP3   OH235847   0.243   1.648   0.105  0.8515 -0.5279 -1.0240
 4811TIP3    H135848   0.211   1.697   0.181 -0.9333 -0.9512 -1.4493
 4811TIP3    H235849   0.335   1.674   0.096  0.9326 -0.0218  0.9012
 4812TIP3   OH235850   2.424   0.752   5.096  0.1863  0.0598  0.3180
 4812TIP3    H135851   2.477   0.679   5.128  0.1958 -0.1616 -0.1870
 4812TIP3    H235852   2.370   0.713   5.027 -2.8182 -0.4525  2.7308
 4813TIP3   OH235853   5.291   6.375   4.095  0.4169  0.2151  0.9358
 4813TIP3    H135854   5.267   6.395   4.004  1.0054 -2.1585  0.1738
 4813TIP3    H235855   5.210   6.342   4.134  0.6597 -0.8743  0.5627
 4814TIP3   OH235856   2.503   5.989   0.617  0.0413  0.0142  0.3662
 4814TIP3    H135857   2.577   5.970   0.674 -0.7817  0.5419  1.6755
 4814TIP3    H235858   2.499   6.085   0.615 -0.6408 -0.0064  0.3913
 4815TIP3   OH235859   0.539   4.240   5.386  0.3577 -0.1733 -0.1794
 4815TIP3    H135860   0.583   4.187   5.319  2.3644 -0.2924  1.1557
 4815TIP3    H235861   0.581   4.325   5.381 -1.6584  0.8312 -1.1238
 4816TIP3   OH235862   6.653   0.746  10.607  0.1789  0.0416 -0.0646
 4816TIP3    H135863   6.559   0.742  10.624  0.2895 -0.5852  0.4238
 4816TIP3    H235864   6.692   0.689  10.673  0.8651 -0.1008 -0.5822
 4817TIP3   OH235865   5.276   4.601  15.694  0.0083  0.1970 -0.4544
 4817TIP3    H135866   5.313   4.679  15.653  0.8139 -1.0243 -2.1622
 4817TIP3    H235867   5.351   4.556  15.734 -0.5269  0.5213  0.9903
 4818TIP3   OH235868   6.020   2.024  11.320  0.1738 -0.5670 -0.2649
 4818TIP3    H135869   6.047   2.088  11.385 -2.0324 -0.6660  0.8214
 4818TIP3    H235870   6.055   2.058  11.237  1.6858  0.3663  0.7061
 4819TIP3   OH235871   4.001   5.467   3.636  0.3775  0.4417  0.0865
 4819TIP3    H135872   4.035   5.387   3.597 -1.2429  0.2641 -1.0351
 4819TIP3    H235873   4.040   5.538   3.584 -1.7283  0.2087 -1.9374
 4820TIP3   OH235874   0.733   2.873  12.347 -0.3949 -0.4953 -0.3730
 4820TIP3    H135875   0.774   2.944  12.398 -2.1621  0.3719 -0.0729
 4820TIP3    H235876   0.677   2.828  12.411  0.8354 -2.3321 -0.5164
 4821TIP3   OH235877   4.409   5.853   0.483 -0.0238  0.6484  0.1501
 4821TIP3    H135878   4.401   5.761   0.508 -0.5426  0.1764 -1.5709
 4821TIP3    H235879   4.380   5.855   0.392 -2.0374  2.8532  0.7280
 4822TIP3   OH235880   1.982   6.505  15.285  0.2987  0.5558  0.2261
 4822TIP3    H135881   1.961   6.589  15.326  2.5453  0.4640  1.7009
 4822TIP3    H235882   2.072   6.487  15.311  0.4817 -1.4691 -1.5506
 4823TIP3   OH235883   5.782   2.852  12.805  0.3733  0.7035 -0.6181
 4823TIP3    H135884   5.808   2.760  12.810 -0.9880  0.3534  1.0360
 4823TIP3    H235885   5.686   2.850  12.809  0.3356  2.2010  0.0930
 4824TIP3   OH235886   1.457   0.398   3.187 -0.1354 -0.1541 -0.0006
 4824TIP3    H135887   1.542   0.355   3.199 -1.6560 -3.5218 -0.1297
 4824TIP3    H235888   1.409   0.379   3.267 -1.0636  1.0185 -0.2520
 4825TIP3   OH235889   5.138   2.178   2.984 -0.4464  0.0352 -0.1410
 4825TIP3    H135890   5.221   2.141   2.952 -0.4014  0.8155 -0.9553
 4825TIP3    H235891   5.164   2.255   3.034 -0.6719  0.1568 -0.2134
 4826TIP3   OH235892   2.146   6.133   5.121 -0.4948 -0.0926  0.2793
 4826TIP3    H135893   2.108   6.054   5.160 -1.1900  0.5392  0.9295
 4826TIP3    H235894   2.088   6.204   5.150  0.9474  0.8613  0.9749
 4827TIP3   OH235895   4.645   1.384  11.010  0.0537  0.3948  0.2656
 4827TIP3    H135896   4.717   1.425  11.059  0.7121  0.5736 -0.8362
 4827TIP3    H235897   4.688   1.326  10.947 -0.8408 -1.1792  1.0463
 4828TIP3   OH235898   2.910   6.418   0.681  0.1383  0.8758 -0.3089
 4828TIP3    H135899   2.893   6.500   0.635  2.0603  1.0841 -0.7173
 4828TIP3    H235900   3.002   6.398   0.662 -0.3783 -1.5789 -0.5469
 4829TIP3   OH235901   6.649   6.490   5.761 -0.0279  0.4186 -0.0377
 4829TIP3    H135902   6.686   6.448   5.839 -1.6665 -0.1709  0.4725
 4829TIP3    H235903   6.617   6.575   5.793 -0.0892  0.4692 -0.2330
 4830TIP3   OH235904   6.761   2.024  11.160 -0.2036  0.3977  0.3007
 4830TIP3    H135905   6.678   1.991  11.123 -0.7728  3.0186 -0.9741
 4830TIP3    H235906   6.741   2.040  11.252 -1.1303  0.9167  0.0267
 4831TIP3   OH235907   3.268   5.489  15.368  0.1259  0.3292 -0.2040
 4831TIP3    H135908   3.278   5.525  15.279 -0.4942  0.4760 -0.2204
 4831TIP3    H235909   3.309   5.403  15.363  2.7772  1.4872  0.1727
 4832TIP3   OH235910   2.478   0.314  11.099 -0.0394 -0.4549 -0.2459
 4832TIP3    H135911   2.545   0.362  11.050 -0.5563 -0.8418 -1.3741
 4832TIP3    H235912   2.521   0.234  11.127 -0.8199 -2.3750 -3.8921
 4833TIP3   OH235913   6.672   1.754   3.048  0.0488  0.0826  0.0485
 4833TIP3    H135914   6.578   1.741   3.055 -0.1319  1.8460  1.4517
 4833TIP3    H235915   6.710   1.679   3.095 -0.7530  0.8063  1.9356
 4834TIP3   OH235916   5.557   3.830  12.145  0.2920  0.4283 -0.2052
 4834TIP3    H135917   5.488   3.821  12.211  0.1705 -0.5482 -0.4449
 4834TIP3    H235918   5.638   3.813  12.193  0.1685 -0.7290 -0.3780
 4835TIP3   OH235919   2.683   2.178  13.555  0.3879 -0.2988 -0.4136
 4835TIP3    H135920   2.627   2.185  13.478  0.4376 -0.4406 -0.4623
 4835TIP3    H235921   2.753   2.118  13.530 -2.3510 -4.7100  1.3868
 4836TIP3   OH235922   0.280   2.088  13.482 -0.3872 -0.2122  0.2832
 4836TIP3    H135923   0.359   2.113  13.433 -0.3615  0.3343  0.5940
 4836TIP3    H235924   0.287   1.993  13.491  0.1697 -0.1856  0.1916
 4837TIP3   OH235925   4.869   4.961  13.845 -0.1335 -0.3564  0.0802
 4837TIP3    H135926   4.905   5.045  13.874 -0.9378 -0.0209  0.1277
 4837TIP3    H235927   4.923   4.937  13.768  1.3979 -0.7991  1.2322
 4838TIP3   OH235928   2.454   6.546  16.017 -0.1704  0.4247  0.0898
 4838TIP3    H135929   2.389   6.477  16.001 -0.0001  0.4512 -0.8037
 4838TIP3    H235930   2.422   6.593  16.094 -0.1599 -0.8024  0.8674
 4839TIP3   OH235931   0.433   3.546  15.029  0.6827  0.2095 -0.1663
 4839TIP3    H135932   0.380   3.466  15.029  0.6600  0.2042 -1.2075
 4839TIP3    H235933   0.384   3.607  15.084  0.4298 -0.3209  0.2052
 4840TIP3   OH235934   3.124   2.224   1.860  0.3310 -0.2112 -0.3289
 4840TIP3    H135935   3.152   2.242   1.771 -0.9974 -1.1696 -0.9643
 4840TIP3    H235936   3.047   2.167   1.851 -1.0833  1.2791  1.3286
 4841TIP3   OH235937   4.502   0.235  16.229 -0.1737 -0.0585 -0.9335
 4841TIP3    H135938   4.515   0.218  16.136  1.1781  1.5187 -1.0784
 4841TIP3    H235939   4.588   0.217  16.269 -0.0163  1.6765 -0.4085
 4842TIP3   OH235940   2.441   2.487  16.432  0.2947 -0.1129  0.1988
 4842TIP3    H135941   2.410   2.461  16.345  2.5767  0.7075 -0.9270
 4842TIP3    H235942   2.536   2.488  16.425  0.5204  1.2960  2.3391
 4843TIP3   OH235943   1.772   3.327   3.069 -0.0448  0.0273  0.3854
 4843TIP3    H135944   1.677   3.338   3.073 -0.2146 -1.3548  0.7224
 4843TIP3    H235945   1.804   3.410   3.035 -1.5686 -0.3608 -2.3027
 4844TIP3   OH235946   4.862   2.224   3.886 -0.6256  0.5493  0.1114
 4844TIP3    H135947   4.866   2.157   3.954  1.0023  1.9088  1.4593
 4844TIP3    H235948   4.920   2.190   3.817  0.5846  0.7218  0.9939
 4845TIP3   OH235949   0.201   5.611  13.025 -0.0749 -0.2982  0.5550
 4845TIP3    H135950   0.285   5.656  13.015  0.0711 -0.2745  1.7655
 4845TIP3    H235951   0.136   5.681  13.031 -0.1856 -0.3156 -0.3134
 4846TIP3   OH235952   0.248   2.345   5.278  0.6904  0.1615  0.2842
 4846TIP3    H135953   0.323   2.357   5.336  0.8797  0.0457  0.0614
 4846TIP3    H235954   0.191   2.419   5.298  1.7790  1.3941 -0.9488
 4847TIP3   OH235955   1.365   0.749   0.849  0.0965 -0.6851 -0.1848
 4847TIP3    H135956   1.384   0.710   0.935 -1.9442  0.2698  0.7656
 4847TIP3    H235957   1.336   0.675   0.795 -2.4682 -0.7929  1.2057
 4848TIP3   OH235958   0.153   3.388   3.555 -0.2279  0.6435  0.1110
 4848TIP3    H135959   0.184   3.475   3.583 -1.1461  1.4353 -1.2097
 4848TIP3    H235960   0.219   3.359   3.492  0.5149 -0.0095  1.1673
 4849TIP3   OH235961   1.625   0.830   1.832  0.3281  0.3222 -0.0432
 4849TIP3    H135962   1.699   0.863   1.781  1.3935 -0.1639  1.1086
 4849TIP3    H235963   1.596   0.751   1.786  0.1425  0.8294 -0.8119
 4850TIP3   OH235964   1.281   5.413  16.929  0.1042 -0.4563  0.1169
 4850TIP3    H135965   1.280   5.453  16.842  0.4029 -1.3953 -0.3300
 4850TIP3    H235966   1.255   5.484  16.988 -2.7920 -0.4859 -0.9813
 4851TIP3   OH235967   3.782   2.366  16.881  0.3178  0.0944 -0.0101
 4851TIP3    H135968   3.773   2.345  16.974 -1.6279  1.0915  0.0896
 4851TIP3    H235969   3.711   2.317  16.839  3.2043 -3.1336 -1.5723
 4852TIP3   OH235970   4.960   0.407  16.064 -0.4855  0.1235  0.6949
 4852TIP3    H135971   4.923   0.325  16.097  1.7994 -1.3043 -0.0804
 4852TIP3    H235972   5.031   0.427  16.124  3.1019 -1.9798 -2.4271
 4853TIP3   OH235973   3.074   4.656   3.648 -0.3756 -0.2420 -0.3009
 4853TIP3    H135974   2.983   4.676   3.624 -1.0336 -0.2620  1.9874
 4853TIP3    H235975   3.084   4.562   3.632 -1.4090 -0.6500  1.2883
 4854TIP3   OH235976   0.059   4.994  15.451  0.4799  0.0783 -0.0662
 4854TIP3    H135977   0.028   5.084  15.459 -0.5975 -0.2617 -0.1780
 4854TIP3    H235978   0.154   5.001  15.447  0.6429  1.0034  2.9287
 4855TIP3   OH235979   3.956   1.501  15.210  0.6187  0.2490  0.1722
 4855TIP3    H135980   3.992   1.584  15.240  0.5969  0.0574  0.7356
 4855TIP3    H235981   3.979   1.497  15.117  0.8837  0.7431  0.2151
 4856TIP3   OH235982   6.563   4.373   0.802 -0.3317 -0.0961 -0.0335
 4856TIP3    H135983   6.523   4.459   0.807  1.1897  0.5811  1.7434
 4856TIP3    H235984   6.654   4.390   0.778 -0.5742 -1.4401 -2.1429
 4857TIP3   OH235985   2.374   3.986  11.831  0.0802 -0.8916  0.4874
 4857TIP3    H135986   2.442   3.943  11.779  0.5589  1.3767 -0.9054
 4857TIP3    H235987   2.309   3.917  11.847  1.6347 -2.5544 -0.0368
 4858TIP3   OH235988   2.963   4.484  14.284 -0.1150  0.2006  1.0242
 4858TIP3    H135989   2.884   4.460  14.334 -1.0168 -0.6235 -0.7063
 4858TIP3    H235990   2.931   4.545  14.217  0.9374  0.7353  0.9890
 4859TIP3   OH235991   4.052   3.654  13.218  0.0100 -0.0886 -0.0931
 4859TIP3    H135992   4.091   3.741  13.228 -0.0191 -0.1416  0.5370
 4859TIP3    H235993   4.118   3.594  13.254  0.6937 -0.4850 -1.9356
 4860TIP3   OH235994   4.162   0.212  13.425  0.2696 -0.3779 -0.0031
 4860TIP3    H135995   4.227   0.280  13.413  0.4304 -0.5954 -0.3736
 4860TIP3    H235996   4.211   0.137  13.458  0.5836 -1.2101 -2.1684
 4861TIP3   OH235997   1.100   0.258   1.093 -0.4961  0.2429 -0.0249
 4861TIP3    H135998   1.006   0.265   1.078 -0.6560 -0.8731  0.3979
 4861TIP3    H235999   1.132   0.201   1.023  0.0565  1.4623 -0.8033
 4862TIP3   OH236000   3.115   6.124   2.864  0.1274  0.1885 -0.2521
 4862TIP3    H136001   3.165   6.175   2.801 -0.0622  0.3915 -0.2411
 4862TIP3    H236002   3.129   6.168   2.948 -0.7904  0.7864 -0.3997
 4863TIP3   OH236003   5.431   6.227   2.032 -0.0529  0.1815 -0.2411
 4863TIP3    H136004   5.517   6.263   2.054 -0.6039  0.5999  1.3867
 4863TIP3    H236005   5.437   6.135   2.057 -0.4332  0.4843  1.0491
 4864TIP3   OH236006   4.426   1.650   5.610 -0.1596 -0.2450  0.2741
 4864TIP3    H136007   4.356   1.670   5.548 -0.9872 -0.3855  1.1501
 4864TIP3    H236008   4.495   1.712   5.589 -0.5616 -0.0662 -0.5633
 4865TIP3   OH236009   1.573   0.345   2.783 -0.2598 -0.0888  0.2438
 4865TIP3    H136010   1.650   0.384   2.742 -1.9449  0.3228 -2.9092
 4865TIP3    H236011   1.533   0.417   2.832  1.5191 -0.4452  2.3629
 4866TIP3   OH236012   1.243   4.459   5.839 -0.1736 -0.1667  0.4404
 4866TIP3    H136013   1.319   4.498   5.882 -0.7559 -0.4003  1.7249
 4866TIP3    H236014   1.171   4.519   5.857 -0.5247 -0.4933  0.1579
 4867TIP3   OH236015   6.274   0.072   3.319  0.0590 -0.1044 -0.4035
 4867TIP3    H136016   6.327   0.104   3.247 -1.1476 -0.8602 -1.6728
 4867TIP3    H236017   6.254  -0.019   3.295 -0.7704 -0.2138  0.6404
 4868TIP3   OH236018   6.272   4.743   5.336 -0.0168 -0.1670  0.3368
 4868TIP3    H136019   6.331   4.788   5.275  0.8155 -2.0623 -0.3391
 4868TIP3    H236020   6.291   4.650   5.323 -2.9289 -0.8561  0.3793
 4869TIP3   OH236021   5.753   6.100   1.727  0.5133 -0.0581  0.2284
 4869TIP3    H136022   5.795   6.065   1.648  2.9836 -2.0224  2.2508
 4869TIP3    H236023   5.826   6.116   1.787 -1.1618  2.5744  1.7380
 4870TIP3   OH236024   2.319   4.375  12.152  0.4390  0.1382  0.1292
 4870TIP3    H136025   2.377   4.331  12.089  1.8817  0.7198  0.9981
 4870TIP3    H236026   2.258   4.425  12.098  0.9409 -0.2438 -0.8183
 4871TIP3   OH236027   3.021   0.165   5.738 -0.4877  0.6421  0.1915
 4871TIP3    H136028   2.981   0.120   5.813  1.0598  0.7431  1.1200
 4871TIP3    H236029   3.110   0.130   5.733  0.0927  2.0972 -0.3459
 4872TIP3   OH236030   2.089   4.321  17.071 -0.0298 -0.5060  0.2659
 4872TIP3    H136031   2.181   4.325  17.045  0.0958 -0.9924  0.6153
 4872TIP3    H236032   2.042   4.362  16.999  0.4567 -0.3025  0.0589
 4873TIP3   OH236033   1.841   3.266   5.079 -0.5011 -0.5008 -0.3623
 4873TIP3    H136034   1.880   3.235   5.161 -0.1082 -0.0464 -0.3799
 4873TIP3    H236035   1.914   3.302   5.029 -1.1621  2.0249  0.3486
 4874TIP3   OH236036   2.000   4.702   0.394 -0.0356  0.1199  0.0895
 4874TIP3    H136037   1.980   4.726   0.304  2.3958  0.8494 -0.3403
 4874TIP3    H236038   1.933   4.744   0.446 -0.3211  1.4015 -1.2500
 4875TIP3   OH236039   0.067   3.812   3.544  0.4972  0.6173 -0.0363
 4875TIP3    H136040   0.075   3.857   3.629 -1.4207 -0.1431  0.5910
 4875TIP3    H236041   0.103   3.875   3.481  1.9040  1.2299  1.2958
 4876TIP3   OH236042   2.500   6.226   4.257 -0.3249  0.2116 -0.2768
 4876TIP3    H136043   2.583   6.258   4.222  0.1705 -2.4542 -1.8510
 4876TIP3    H236044   2.518   6.208   4.350  0.7746 -0.0117 -0.5179
 4877TIP3   OH236045   3.027   4.183   3.148 -0.6840 -0.3038 -0.2177
 4877TIP3    H136046   2.942   4.223   3.166 -0.8644 -0.6383 -0.3177
 4877TIP3    H236047   3.049   4.214   3.060  0.3751  1.6375  0.6827
 4878TIP3   OH236048   3.300   4.200  15.404  0.2688  0.1202  0.0457
 4878TIP3    H136049   3.389   4.234  15.399  0.8957 -1.4498 -0.1315
 4878TIP3    H236050   3.310   4.110  15.435 -1.2566 -0.0808  0.0495
 4879TIP3   OH236051   5.009   1.165  11.500 -0.4919 -0.0808 -0.0612
 4879TIP3    H136052   5.031   1.180  11.409  0.3779  2.4179  0.4817
 4879TIP3    H236053   5.076   1.213  11.549 -1.8168 -0.0601  1.8423
 4880TIP3   OH236054   3.189   3.091   5.421 -0.3231 -0.0984 -0.2517
 4880TIP3    H136055   3.148   3.011   5.390  0.8203 -0.3199 -1.2381
 4880TIP3    H236056   3.132   3.161   5.389 -2.3100 -0.4943  2.0788
 4881TIP3   OH236057   4.941   1.291   4.835  0.0775 -0.4849  0.1850
 4881TIP3    H136058   5.007   1.361   4.830 -1.4750  0.9890 -1.1342
 4881TIP3    H236059   4.930   1.276   4.929  0.1482  1.3937  0.5475
 4882TIP3   OH236060   2.649   1.653   4.880  0.3963  0.4457  0.2363
 4882TIP3    H136061   2.741   1.627   4.883  0.6703  1.1589 -1.1805
 4882TIP3    H236062   2.616   1.618   4.797 -0.0664  1.8230 -0.1921
 4883TIP3   OH236063   3.122   4.680  16.491 -0.1819 -0.0453  0.5075
 4883TIP3    H136064   3.028   4.675  16.510 -0.2967  1.1461  0.3356
 4883TIP3    H236065   3.163   4.691  16.577 -0.2554  0.0989  0.5235
 4884TIP3   OH236066   1.407   3.640  13.444 -0.0526 -0.3363 -0.0327
 4884TIP3    H136067   1.403   3.733  13.467  0.4323 -0.0638 -1.0314
 4884TIP3    H236068   1.379   3.595  13.524 -0.4502  0.6676  0.4079
 4885TIP3   OH236069   4.154   3.522   2.475 -0.3338 -0.0145  0.3901
 4885TIP3    H136070   4.214   3.468   2.526 -0.1682 -0.0868  0.1183
 4885TIP3    H236071   4.079   3.534   2.533 -0.4074 -0.5963  0.4261
 4886TIP3   OH236072   0.694   0.709  17.112 -0.2935 -0.7913 -0.0113
 4886TIP3    H136073   0.615   0.657  17.132 -0.9875  0.4324  0.5365
 4886TIP3    H236074   0.673   0.797  17.144  1.9262 -0.7927  1.6866
 4887TIP3   OH236075   4.828   1.651   1.967 -0.0852 -0.3927  0.3355
 4887TIP3    H136076   4.894   1.668   1.900 -0.1233 -0.1494  0.3561
 4887TIP3    H236077   4.853   1.709   2.039  0.2782 -1.0590  0.7529
 4888TIP3   OH236078   1.000   4.671  12.994  0.4860 -0.1628  0.0727
 4888TIP3    H136079   1.007   4.644  13.085 -0.6083 -0.6474  0.0309
 4888TIP3    H236080   0.961   4.595  12.950 -0.5639  0.6732 -0.4767
 4889TIP3   OH236081   1.689   6.176  16.103 -0.0354  0.0157  0.2673
 4889TIP3    H136082   1.640   6.215  16.031  0.0645  0.2085  0.3038
 4889TIP3    H236083   1.640   6.202  16.182 -0.9534 -1.3758  0.1893
 4890TIP3   OH236084   2.521   2.527   1.248 -0.2021  0.8755 -0.2276
 4890TIP3    H136085   2.488   2.505   1.161  0.8622  2.1917 -1.0190
 4890TIP3    H236086   2.453   2.583   1.286 -2.6572 -2.9670  1.5778
 4891TIP3   OH236087   5.218   5.815  16.397  0.4797  0.1575  0.2319
 4891TIP3    H136088   5.211   5.910  16.406  1.3647  0.2664 -0.0759
 4891TIP3    H236089   5.130   5.786  16.374  0.4529  1.0455 -0.8799
 4892TIP3   OH236090   6.747   1.305  15.993 -0.2967 -0.7610 -0.3017
 4892TIP3    H136091   6.660   1.332  15.966 -0.0880 -0.9152 -1.1544
 4892TIP3    H236092   6.750   1.325  16.087 -1.2780 -0.8573 -0.2410
 4893TIP3   OH236093   6.202   3.746   1.326  0.2154 -0.3610 -1.0157
 4893TIP3    H136094   6.130   3.802   1.356  1.5979  1.3553 -0.7167
 4893TIP3    H236095   6.216   3.685   1.398  1.2444  1.5279  0.5111
 4894TIP3   OH236096   4.089   6.261   5.302  0.0281 -0.0250 -0.1605
 4894TIP3    H136097   4.068   6.226   5.216  0.0379  0.3719 -0.3245
 4894TIP3    H236098   4.119   6.350   5.286  0.0742  0.0376  0.2479
 4895TIP3   OH236099   4.570   6.090  12.727 -0.4964  0.4894  0.2938
 4895TIP3    H136100   4.591   5.999  12.751  2.3996  0.3337 -2.1789
 4895TIP3    H236101   4.480   6.102  12.757 -1.1962 -3.3499  0.3409
 4896TIP3   OH236102   5.658   3.228  16.706 -0.2237 -0.3578 -0.7317
 4896TIP3    H136103   5.698   3.170  16.641  0.0680 -0.8120 -0.1542
 4896TIP3    H236104   5.708   3.213  16.786 -1.7312 -1.1902  0.1092
 4897TIP3   OH236105   2.328   4.982   4.962  0.2595  0.3226 -0.0154
 4897TIP3    H136106   2.334   4.897   5.006 -0.7361  1.6440  2.9519
 4897TIP3    H236107   2.398   4.981   4.897  1.8201 -1.8660  1.5644
 4898TIP3   OH236108   6.780   2.288  14.189 -0.2399  0.1779 -0.4050
 4898TIP3    H136109   6.726   2.254  14.260  0.6499 -1.2005 -0.3586
 4898TIP3    H236110   6.870   2.286  14.224  0.3970 -1.8121 -1.9809
 4899TIP3   OH236111   5.064   3.156   5.521  0.5456  0.0793 -0.2954
 4899TIP3    H136112   5.022   3.215   5.583 -0.7618  0.5753 -1.5782
 4899TIP3    H236113   5.001   3.148   5.449  1.2690 -1.8429 -0.7679
 4900TIP3   OH236114   2.175   1.783   5.218  0.5026 -0.0327  0.6440
 4900TIP3    H136115   2.137   1.806   5.302  1.5011 -0.1330  1.1353
 4900TIP3    H236116   2.197   1.691   5.226 -1.0191 -0.5240 -0.3727
 4901TIP3   OH236117   5.729   0.981   1.738 -0.2883  0.3272 -0.2206
 4901TIP3    H136118   5.695   1.044   1.801 -0.1941  0.3589 -0.2010
 4901TIP3    H236119   5.778   1.034   1.675 -0.3192  0.2877 -0.2793
 4902TIP3   OH236120   6.682   0.397   1.030  0.0793 -0.5580 -0.8320
 4902TIP3    H136121   6.652   0.322   1.082 -1.3710 -0.7416 -1.8514
 4902TIP3    H236122   6.766   0.369   0.993 -0.0326 -1.3463 -0.5162
 4903TIP3   OH236123   1.876   3.503   2.262  0.5858 -0.0756 -0.3586
 4903TIP3    H136124   1.919   3.523   2.345  0.2665 -1.3703  0.1328
 4903TIP3    H236125   1.826   3.423   2.279 -1.0663  0.7076 -1.2354
 4904TIP3   OH236126   1.799   5.969  16.620 -0.1896  0.9093 -0.7320
 4904TIP3    H136127   1.739   5.910  16.575 -0.1389 -0.1643  0.5689
 4904TIP3    H236128   1.749   6.049  16.632 -0.6048  0.8015 -1.6061
 4905TIP3   OH236129   2.707   6.198   0.243 -0.4308 -0.1617  0.3660
 4905TIP3    H136130   2.755   6.180   0.162  1.0278  2.4148  0.5436
 4905TIP3    H236131   2.705   6.114   0.289 -0.2685 -1.4213 -1.7759
 4906TIP3   OH236132   1.792   1.632  14.870 -0.2255 -0.4037  0.1221
 4906TIP3    H136133   1.734   1.675  14.807 -1.1095  0.1536  1.2786
 4906TIP3    H236134   1.876   1.677  14.860 -0.9135  1.0710  0.7291
 4907TIP3   OH236135   3.694   3.259  14.516 -0.6801 -0.0432 -0.4877
 4907TIP3    H136136   3.770   3.207  14.541 -1.0192 -0.3972 -0.1826
 4907TIP3    H236137   3.730   3.342  14.485 -0.1258 -0.5072 -1.1123
 4908TIP3   OH236138   4.336   5.659  11.837  0.4182 -0.5352 -0.1976
 4908TIP3    H136139   4.296   5.618  11.914  0.4788 -1.2743 -0.5490
 4908TIP3    H236140   4.266   5.664  11.773  0.6635 -1.0339 -0.5110
 4909TIP3   OH236141   3.951   5.412  16.608  0.5981  0.2365  0.1595
 4909TIP3    H136142   4.016   5.459  16.659  0.0493  0.7786  0.3716
 4909TIP3    H236143   3.987   5.324  16.597  0.0040 -0.4445  2.9691
 4910TIP3   OH236144   4.980   3.316   1.130 -0.3870  0.5159  0.4764
 4910TIP3    H136145   4.921   3.391   1.120 -0.8815  0.0096 -0.4706
 4910TIP3    H236146   4.966   3.287   1.220 -0.3490  1.4215  0.7898
 4911TIP3   OH236147   6.320   2.145   6.156  0.2663  0.4604 -0.0491
 4911TIP3    H136148   6.351   2.227   6.119  2.0691  0.0260  0.4196
 4911TIP3    H236149   6.391   2.083   6.140  0.0568 -0.3491  1.9625
 4912TIP3   OH236150   1.835   4.706   1.788 -0.1390  0.0830  0.4712
 4912TIP3    H136151   1.923   4.733   1.763  0.2456 -0.5541  1.1031
 4912TIP3    H236152   1.836   4.610   1.784 -0.2205 -0.0295  2.2949
 4913TIP3   OH236153   1.650   6.495   0.474  0.4726  0.0866  0.1029
 4913TIP3    H136154   1.675   6.586   0.488 -1.0100  0.5398 -0.0436
 4913TIP3    H236155   1.685   6.474   0.388 -0.0995  0.8833 -0.3448
 4914TIP3   OH236156   2.015   0.758  14.026  0.3840  0.2893 -0.0724
 4914TIP3    H136157   2.055   0.845  14.029  1.0443  0.0068 -0.4325
 4914TIP3    H236158   1.950   0.763  13.956 -1.2335  1.1612  1.4150
 4915TIP3   OH236159   5.863   4.977   4.064  0.3575 -0.1786  0.7477
 4915TIP3    H136160   5.930   5.034   4.027 -0.4526  0.5199  0.3015
 4915TIP3    H236161   5.856   5.003   4.156 -1.5303  2.0405  0.0673
 4916TIP3   OH236162   3.089   0.260   2.038 -0.5006 -0.2703 -0.4109
 4916TIP3    H136163   3.149   0.329   2.068 -1.1203  0.2175 -0.2713
 4916TIP3    H236164   3.137   0.179   2.053  0.7349  0.1791 -1.6941
 4917TIP3   OH236165   0.997   4.142  15.483 -0.1760 -0.1590  0.1600
 4917TIP3    H136166   0.997   4.215  15.420 -1.2502 -0.2535  0.0238
 4917TIP3    H236167   1.067   4.164  15.545 -0.6767  1.1697  0.3026
 4918TIP3   OH236168   0.826   0.191   6.558  0.0400  0.2808 -0.6275
 4918TIP3    H136169   0.732   0.178   6.568  0.4524 -2.0096  0.8121
 4918TIP3    H236170   0.837   0.287   6.557 -2.2782  0.5961 -0.9880
 4919TIP3   OH236171   5.595   1.294  16.123  0.5589 -0.2434 -0.2883
 4919TIP3    H136172   5.609   1.200  16.128 -0.3870 -0.3477  1.0007
 4919TIP3    H236173   5.506   1.304  16.088 -0.0562  0.0969  1.3012
 4920TIP3   OH236174   5.626   4.511   1.649  0.0175  0.0292 -0.0125
 4920TIP3    H136175   5.677   4.587   1.619 -1.7021  1.5208  0.6487
 4920TIP3    H236176   5.643   4.508   1.744 -2.5021  1.7653  0.5894
 4921TIP3   OH236177   1.018   4.731  16.059  0.2691  0.2666 -0.3376
 4921TIP3    H136178   0.971   4.653  16.029  0.0339  0.3568 -0.2021
 4921TIP3    H236179   0.957   4.775  16.119  0.7096  0.1327  0.2076
 4922TIP3   OH236180   0.301   6.408   3.911 -0.1687 -0.5430  0.4707
 4922TIP3    H136181   0.224   6.430   3.858 -0.1703  0.3507  0.8083
 4922TIP3    H236182   0.367   6.473   3.885  0.0724 -0.5627  1.0166
 4923TIP3   OH236183   5.634   5.554  15.562  0.3391 -0.1023  0.1065
 4923TIP3    H136184   5.643   5.632  15.617 -1.3931  0.8752 -0.8882
 4923TIP3    H236185   5.617   5.588  15.474  1.6935 -1.6251 -0.8030
 4924TIP3   OH236186   2.511   5.522   5.495 -0.0775  0.2754 -0.1325
 4924TIP3    H136187   2.484   5.505   5.585  0.6182 -1.9127 -0.2701
 4924TIP3    H236188   2.498   5.616   5.483  1.1200  0.8962  2.6604
 4925TIP3   OH236189   1.790   1.183   4.551  0.6707 -0.2578  0.2779
 4925TIP3    H136190   1.728   1.140   4.492  0.4456  0.6950 -0.1905
 4925TIP3    H236191   1.764   1.152   4.638  0.7927 -1.4033 -0.0672
 4926TIP3   OH236192   0.417   3.489  14.057 -0.6162 -0.0690  1.0058
 4926TIP3    H136193   0.458   3.510  13.973 -0.0749  0.1128  1.3032
 4926TIP3    H236194   0.405   3.574  14.100 -1.2927 -0.1228  0.9351
 4927TIP3   OH236195   3.747   0.930   4.702  0.5768 -1.0088 -0.0943
 4927TIP3    H136196   3.807   1.005   4.703 -0.7955  0.1216 -0.1066
 4927TIP3    H236197   3.660   0.968   4.715  0.1278 -2.9250  3.7751
 4928TIP3   OH236198   2.170   2.203  16.469  0.6637 -0.5417  0.8526
 4928TIP3    H136199   2.175   2.133  16.404  1.5993 -0.6969  1.0767
 4928TIP3    H236200   2.197   2.281  16.422 -1.3944 -0.0916  0.3165
 4929TIP3   OH236201   2.607   4.046  11.977 -0.9062 -0.1995 -0.2784
 4929TIP3    H136202   2.583   4.100  12.052 -1.5541 -2.3888  1.1729
 4929TIP3    H236203   2.524   4.017  11.939 -0.5888  0.7255 -1.7884
 4930TIP3   OH236204   4.379   4.587  15.995 -0.5235 -0.2227  0.7949
 4930TIP3    H136205   4.359   4.509  15.944  1.1407 -1.5730  2.1152
 4930TIP3    H236206   4.395   4.655  15.929 -0.1141 -1.4577 -0.4275
 4931TIP3   OH236207   0.285   0.916   0.103  1.1321 -0.0525 -0.3007
 4931TIP3    H136208   0.334   0.960   0.173 -0.4170 -0.1601  0.9046
 4931TIP3    H236209   0.267   0.985   0.039  0.1887  0.7158  0.7622
 4932TIP3   OH236210   5.676   1.767  13.997 -0.0972 -0.0970  0.4101
 4932TIP3    H136211   5.732   1.814  14.059 -0.9533 -0.0041  1.1371
 4932TIP3    H236212   5.684   1.675  14.023  1.5427 -0.3957 -0.9824
 4933TIP3   OH236213   5.774   3.122  14.475  0.2740  0.0021  0.0451
 4933TIP3    H136214   5.786   3.027  14.483  2.2642  0.1698 -0.5997
 4933TIP3    H236215   5.688   3.131  14.435 -0.8371 -1.4405  1.8813
 4934TIP3   OH236216   0.294   3.452   3.918 -0.1166  0.1426 -0.2378
 4934TIP3    H136217   0.230   3.393   3.959  0.1393 -0.1748 -0.2992
 4934TIP3    H236218   0.356   3.472   3.988 -2.3137  3.4592  0.9844
 4935TIP3   OH236219   0.802   3.816  14.918 -0.0083  0.0955  0.1692
 4935TIP3    H136220   0.881   3.794  14.869 -0.8926  1.9624 -2.3093
 4935TIP3    H236221   0.826   3.895  14.967 -0.1291  0.2106  0.0410
 4936TIP3   OH236222   5.837   0.595   2.888 -0.9935 -0.3299 -0.5093
 4936TIP3    H136223   5.776   0.631   2.824 -1.8165  0.3554  0.6228
 4936TIP3    H236224   5.862   0.510   2.852 -2.6997 -0.6822 -0.9573
 4937TIP3   OH236225   6.656   0.189   0.810 -0.5793  0.3062  0.0732
 4937TIP3    H136226   6.608   0.133   0.749 -0.9540  0.1439  0.5150
 4937TIP3    H236227   6.608   0.272   0.809 -2.5377 -0.6724  2.5372
 4938TIP3   OH236228   3.677   3.685  11.377  0.0827 -0.0318 -0.0340
 4938TIP3    H136229   3.761   3.641  11.387  0.1401  0.3633  1.3591
 4938TIP3    H236230   3.616   3.633  11.429  0.4737  2.3299  3.0684
 4939TIP3   OH236231   4.508   0.927   1.970 -0.8100 -0.1242  0.2241
 4939TIP3    H136232   4.475   1.016   1.984 -0.1480  0.3312 -0.9365
 4939TIP3    H236233   4.592   0.940   1.926 -0.6773 -1.3283  0.0960
 4940TIP3   OH236234   3.920   6.579   5.101  0.2297  0.5035  0.2275
 4940TIP3    H136235   3.996   6.528   5.130  0.1023  0.1976  0.0338
 4940TIP3    H236236   3.859   6.575   5.174  0.8501  1.6984  0.8313
 4941TIP3   OH236237   5.216   1.761   2.892 -0.1458  0.4375  0.1439
 4941TIP3    H136238   5.160   1.684   2.879 -1.2479  0.9011  1.8121
 4941TIP3    H236239   5.230   1.796   2.804  0.7809 -1.9112 -0.7140
 4942TIP3   OH236240   0.714   5.157  12.244  0.0683 -0.4643 -0.2384
 4942TIP3    H136241   0.660   5.084  12.273 -1.3744  0.6716  0.0277
 4942TIP3    H236242   0.748   5.196  12.324 -0.3086 -0.0117 -0.2915
 4943TIP3   OH236243   0.010   6.140   1.775  0.1429  0.5023 -0.2684
 4943TIP3    H136244  -0.001   6.059   1.725  0.4069 -0.1337  0.6820
 4943TIP3    H236245   0.102   6.163   1.765  0.3048  0.1078  0.3298
 4944TIP3   OH236246   4.905   3.213  12.908  0.2803 -0.2459 -0.3229
 4944TIP3    H136247   4.909   3.281  12.976 -2.3358  0.0737 -0.3730
 4944TIP3    H236248   4.972   3.238  12.845  1.2196  0.7385  1.0117
 4945TIP3   OH236249   3.271   6.446  14.858 -0.2327 -0.5331 -0.5115
 4945TIP3    H136250   3.281   6.402  14.943 -0.9293 -1.1330 -0.7213
 4945TIP3    H236251   3.192   6.407  14.821  0.3430 -0.6490 -1.6639
 4946TIP3   OH236252   1.906   3.593   1.627  0.2566  0.6937  0.3273
 4946TIP3    H136253   1.918   3.570   1.535 -0.6271 -1.5657  0.6956
 4946TIP3    H236254   1.979   3.551   1.673  0.7552  1.8947  0.6631
 4947TIP3   OH236255   3.178   4.272   0.294 -0.5755  0.2874 -0.3461
 4947TIP3    H136256   3.193   4.317   0.378 -3.5114  1.1855 -0.1945
 4947TIP3    H236257   3.259   4.287   0.245  1.1574 -0.0476  2.1695
 4948TIP3   OH236258   6.406   6.437  13.417 -0.7185 -0.7472 -0.0360
 4948TIP3    H136259   6.361   6.386  13.349  0.3548 -0.3777 -1.0698
 4948TIP3    H236260   6.374   6.526  13.405 -2.2139 -1.0503  1.4414
 4949TIP3   OH236261   0.473   0.682  14.501 -0.2596 -0.5946 -0.6567
 4949TIP3    H136262   0.410   0.665  14.571 -0.5323 -1.3304 -1.0685
 4949TIP3    H236263   0.426   0.659  14.420  0.1760 -0.1151 -1.0555
 4950TIP3   OH236264   6.660   2.463  10.044 -0.0735  0.6472 -0.1040
 4950TIP3    H136265   6.684   2.458  10.137  1.9811  0.7281 -0.5713
 4950TIP3    H236266   6.679   2.553  10.020  1.1378  0.1789 -0.9977
 4951TIP3   OH236267   4.397   1.481   4.508  0.1168 -0.2556 -0.5664
 4951TIP3    H136268   4.485   1.494   4.542  0.4605 -0.8202 -1.2204
 4951TIP3    H236269   4.344   1.460   4.585  0.6215 -0.2299 -0.2109
 4952TIP3   OH236270   2.839   5.447  11.520  0.0112  0.3334 -0.6201
 4952TIP3    H136271   2.934   5.445  11.511  0.1124 -0.5601  0.4704
 4952TIP3    H236272   2.819   5.373  11.577 -1.1892  1.5200  0.5445
 4953TIP3   OH236273   2.928   5.523  14.310  0.3501  0.7772  0.3896
 4953TIP3    H136274   2.991   5.590  14.282 -1.4981  4.0594  3.2414
 4953TIP3    H236275   2.967   5.485  14.388  1.0158 -1.0470 -0.7650
 4954TIP3   OH236276   3.272   2.697   4.034  0.3538 -0.0460  0.4167
 4954TIP3    H136277   3.289   2.606   4.008  0.1769 -0.1955  0.8265
 4954TIP3    H236278   3.334   2.713   4.105  0.1038  0.0255  0.6183
 4955TIP3   OH236279   3.987   0.406  11.011  0.3564 -0.0527  0.0856
 4955TIP3    H136280   3.978   0.352  10.933  0.2215 -1.0921  0.7995
 4955TIP3    H236281   4.052   0.361  11.065 -0.0582  0.2737  0.8757
 4956TIP3   OH236282   6.314   5.799   5.582  0.2090  0.5819 -0.5041
 4956TIP3    H136283   6.282   5.882   5.618 -0.8024  0.2667 -0.6652
 4956TIP3    H236284   6.398   5.785   5.626  0.6557  1.9530 -0.8684
 4957TIP3   OH236285   5.451   2.107   2.450 -0.2274  0.0228 -0.7614
 4957TIP3    H136286   5.387   2.062   2.505 -1.0108  0.5173 -1.2529
 4957TIP3    H236287   5.508   2.038   2.417  0.8392 -0.2101  1.3796
 4958TIP3   OH236288   1.412   4.722   1.366 -0.0880 -0.3424 -0.2630
 4958TIP3    H136289   1.477   4.682   1.424  0.3870 -1.4644 -1.5229
 4958TIP3    H236290   1.420   4.675   1.284 -2.2536 -0.2741 -0.5886
 4959TIP3   OH236291   4.474   1.912   3.044  0.2343  0.3528 -0.7919
 4959TIP3    H136292   4.408   1.952   3.101  1.1699  1.1494 -0.2406
 4959TIP3    H236293   4.534   1.867   3.104  0.3360 -0.1599 -1.2690
 4960TIP3   OH236294   3.191   4.182   2.708 -0.0754  0.3262 -0.4382
 4960TIP3    H136295   3.231   4.206   2.625 -1.4536  0.9025 -0.9600
 4960TIP3    H236296   3.179   4.265   2.754  1.4877 -0.0648  0.7491
 4961TIP3   OH236297   1.960   2.581  10.348  0.2451 -0.1418  0.7046
 4961TIP3    H136298   1.976   2.656  10.406 -1.2497  1.6840 -1.0870
 4961TIP3    H236299   1.866   2.585  10.330 -0.0182 -2.9137  1.0865
 4962TIP3   OH236300   1.702   4.757   1.311 -0.1560 -0.0939  0.4750
 4962TIP3    H136301   1.679   4.701   1.385  0.3687  0.6022  1.1860
 4962TIP3    H236302   1.763   4.821   1.347  0.6951 -0.1784 -0.7301
 4963TIP3   OH236303   4.995   3.750   0.597 -0.2081 -0.1631 -0.1912
 4963TIP3    H136304   5.083   3.714   0.590 -0.2323 -0.1029 -0.8585
 4963TIP3    H236305   5.001   3.836   0.555 -0.9482 -0.8178 -1.7139
 4964TIP3   OH236306   6.167   6.757  14.571  0.0963  0.3127  0.0458
 4964TIP3    H136307   6.159   6.824  14.502  0.3860 -0.1571 -0.4513
 4964TIP3    H236308   6.085   6.763  14.619 -1.3053 -1.1450 -1.9714
 4965TIP3   OH236309   5.664   4.093   5.366  0.1529 -0.8591 -0.5495
 4965TIP3    H136310   5.639   4.092   5.458 -0.4416 -0.1311 -0.6925
 4965TIP3    H236311   5.726   4.166   5.359  0.2702 -0.9745 -0.7005
 4966TIP3   OH236312   2.496   6.719  11.896 -0.7648  0.1634  0.3318
 4966TIP3    H136313   2.546   6.639  11.881 -0.3348  0.6583 -0.9741
 4966TIP3    H236314   2.433   6.695  11.964 -0.1240 -1.0554  0.5189
 4967TIP3   OH236315   4.726   6.381  16.263  0.0675  0.2990 -0.1698
 4967TIP3    H136316   4.694   6.298  16.298  0.9037  0.4938  1.1294
 4967TIP3    H236317   4.710   6.375  16.169 -1.0180 -0.8129  0.0539
 4968TIP3   OH236318   0.541   6.671   5.929  0.1923 -0.1302  0.0807
 4968TIP3    H136319   0.490   6.720   5.993 -0.6567 -1.4227  0.4237
 4968TIP3    H236320   0.486   6.670   5.850 -0.7512 -2.2112  0.6961
 4969TIP3   OH236321   5.588   1.168   3.044 -0.1389  0.2941 -0.0173
 4969TIP3    H136322   5.509   1.181   2.991  0.0635 -0.6480 -0.5735
 4969TIP3    H236323   5.590   1.073   3.059  1.0764  0.2656 -0.3184
 4970TIP3   OH236324   6.058   3.705  12.111 -0.1802 -0.1296 -0.6247
 4970TIP3    H136325   6.005   3.779  12.141  1.4877  0.3031  1.4671
 4970TIP3    H236326   6.031   3.632  12.166  0.8359 -0.0976 -0.0711
 4971TIP3   OH236327   5.911   5.271  15.589  0.4541 -0.6040  0.1653
 4971TIP3    H136328   5.969   5.294  15.517  1.9999 -2.0843  0.8404
 4971TIP3    H236329   5.921   5.176  15.597  0.3497 -0.4826  2.2938
 4972TIP3   OH236330   1.067   1.840  16.095 -0.1606 -0.3202 -1.1725
 4972TIP3    H136331   1.045   1.920  16.048 -1.3271 -1.3163 -2.4269
 4972TIP3    H236332   1.148   1.809  16.054  0.0697  0.0127 -0.9661
 4973TIP3   OH236333   3.118   5.586  15.601 -0.7140  0.2450  0.5207
 4973TIP3    H136334   3.031   5.624  15.585 -0.4769  0.3040 -0.7778
 4973TIP3    H236335   3.141   5.543  15.518  0.1744 -0.4251  1.0940
 4974TIP3   OH236336   0.909   3.326  12.857 -0.4299  0.0949  0.2991
 4974TIP3    H136337   0.996   3.365  12.864 -0.7077  0.8826 -0.3875
 4974TIP3    H236338   0.925   3.232  12.852  0.3192  0.1687  1.1011
 4975TIP3   OH236339   1.336   0.193  15.366 -0.7280 -0.3049  0.3806
 4975TIP3    H136340   1.416   0.151  15.338  0.8983  1.2946  2.2994
 4975TIP3    H236341   1.277   0.186  15.291  0.4057 -3.3516 -0.3586
 4976TIP3   OH236342   2.284   3.107  12.279 -0.3985 -0.3717  0.1413
 4976TIP3    H136343   2.265   3.183  12.224 -1.0647 -0.9643 -0.4590
 4976TIP3    H236344   2.206   3.096  12.333 -0.2990 -0.6289  0.2355
 4977TIP3   OH236345   1.762   0.615  14.231  0.1069 -0.1224  0.7002
 4977TIP3    H136346   1.730   0.525  14.223  0.8644 -0.3581  0.3176
 4977TIP3    H236347   1.682   0.667  14.241 -0.3644 -0.7756  0.4111
 4978TIP3   OH236348   5.842   2.833  16.257 -0.1670 -0.5724  0.0380
 4978TIP3    H136349   5.775   2.783  16.303 -0.1032 -0.3490  0.3768
 4978TIP3    H236350   5.802   2.854  16.172 -0.8834  0.3195  0.5721
 4979TIP3   OH236351   2.313   2.889   2.183  0.0468 -0.7272  0.1623
 4979TIP3    H136352   2.395   2.909   2.137 -0.1581 -0.4259 -0.0717
 4979TIP3    H236353   2.296   2.797   2.162  0.6641 -0.9827  0.7385
 4980TIP3   OH236354   2.330   3.657   2.764 -0.6823  0.3799 -0.2108
 4980TIP3    H136355   2.399   3.591   2.772 -2.7165 -1.6874  1.9344
 4980TIP3    H236356   2.355   3.726   2.825 -0.2544 -0.1083  0.1779
 4981TIP3   OH236357   0.663   3.558  16.953  0.1585 -0.4787 -0.4030
 4981TIP3    H136358   0.757   3.572  16.942  0.1032 -0.5448 -1.0046
 4981TIP3    H236359   0.639   3.612  17.028  0.5230  0.1768 -0.7535
 4982TIP3   OH236360   5.763   4.372   2.883  0.4074  0.2994  0.2163
 4982TIP3    H136361   5.763   4.292   2.831 -1.0298  0.4253 -0.0296
 4982TIP3    H236362   5.770   4.341   2.974 -0.6754 -0.1663  0.1637
 4983TIP3   OH236363   3.332   0.702   3.870 -0.3683 -0.0176 -0.1564
 4983TIP3    H136364   3.327   0.692   3.965  0.7917  1.4458  0.0912
 4983TIP3    H236365   3.304   0.617   3.836 -1.6125 -0.3183  1.4530
 4984TIP3   OH236366   6.483   2.349  12.530  0.6029 -0.0683  0.1893
 4984TIP3    H136367   6.397   2.337  12.572  0.5168  1.3331  0.4621
 4984TIP3    H236368   6.545   2.309  12.591  0.1401 -1.3671 -0.1527
 4985TIP3   OH236369   1.840   6.509   2.339  0.1836 -0.0048  0.4015
 4985TIP3    H136370   1.821   6.603   2.331 -0.2496 -0.1811 -0.9610
 4985TIP3    H236371   1.782   6.468   2.274  1.0135 -1.1301  0.3438
 4986TIP3   OH236372   5.255   0.388   5.289 -0.3646 -0.6423  0.1126
 4986TIP3    H136373   5.310   0.460   5.258  0.2601 -1.1015  0.1354
 4986TIP3    H236374   5.315   0.314   5.298 -0.7705 -0.8606  1.2053
 4987TIP3   OH236375   3.484   4.331  10.909 -0.4353  0.6755  0.0337
 4987TIP3    H136376   3.435   4.413  10.919 -1.0245  0.6357 -2.0280
 4987TIP3    H236377   3.563   4.357  10.861 -1.2600 -0.0952 -1.8504
 4988TIP3   OH236378   0.661   6.277  13.492 -0.1482 -0.4959 -0.0566
 4988TIP3    H136379   0.566   6.277  13.482 -0.4344  1.1493  1.9448
 4988TIP3    H236380   0.688   6.364  13.461  0.6664 -0.7893 -0.2041
 4989TIP3   OH236381   0.019   2.584  13.715  0.3015  0.3930 -0.7928
 4989TIP3    H136382  -0.011   2.623  13.633 -0.8706 -2.3216 -1.7673
 4989TIP3    H236383  -0.052   2.525  13.741  0.5967  1.2135  2.2729
 4990TIP3   OH236384   1.340   1.415  14.057  0.4860 -0.4295  0.4552
 4990TIP3    H136385   1.331   1.338  14.113 -0.8551  0.1287  1.0542
 4990TIP3    H236386   1.310   1.488  14.111  2.8006  0.7281  0.3013
 4991TIP3   OH236387   2.161   3.390   0.102 -0.1761 -0.4899  0.3157
 4991TIP3    H136388   2.215   3.348   0.169 -0.6961 -0.2805  0.8726
 4991TIP3    H236389   2.104   3.320   0.070  1.1774 -0.9998 -1.0896
 4992TIP3   OH236390   4.110   6.075  13.540 -0.2285 -0.2244 -0.1562
 4992TIP3    H136391   4.110   6.035  13.626  0.1245  3.0469  1.5454
 4992TIP3    H236392   4.202   6.079  13.514 -0.3868 -1.8350 -1.0760
 4993TIP3   OH236393   3.336   6.667   0.197  0.4348  0.0923 -0.1839
 4993TIP3    H136394   3.312   6.709   0.279  0.4497  0.5640 -0.4172
 4993TIP3    H236395   3.281   6.710   0.131 -0.0113 -0.6929 -0.3386
 4994TIP3   OH236396   3.921   5.936   2.959 -0.3499 -0.2987 -0.1912
 4994TIP3    H136397   4.009   5.973   2.945 -0.3860  0.3869  1.2510
 4994TIP3    H236398   3.863   6.012   2.954 -0.8264 -0.6941 -0.7340
 4995TIP3   OH236399   4.260   5.340   4.977 -0.2105 -0.1912 -0.0917
 4995TIP3    H136400   4.251   5.424   5.021  0.4687 -0.6294  0.9381
 4995TIP3    H236401   4.283   5.279   5.047 -2.0422 -1.5327 -0.5716
 4996TIP3   OH236402   4.555   6.626  14.000  0.2539  0.2543  0.2526
 4996TIP3    H136403   4.561   6.540  13.958 -0.3685 -0.8521  2.2819
 4996TIP3    H236404   4.464   6.631  14.032  0.3477  1.5694  0.3938
 4997TIP3   OH236405   4.944   4.991  14.879  0.1521 -0.0330  0.3314
 4997TIP3    H136406   4.928   4.915  14.824 -2.5082  0.1367  0.7475
 4997TIP3    H236407   4.943   4.956  14.968 -0.1684  0.3336  0.4751
 4998TIP3   OH236408   6.743   2.038   0.232 -0.0960  0.1182 -0.1188
 4998TIP3    H136409   6.809   2.104   0.213  0.7418 -0.9099 -0.8626
 4998TIP3    H236410   6.770   2.000   0.316  1.4519 -1.6800 -1.3575
 4999TIP3   OH236411   5.993   0.001   3.043 -0.2695 -0.2073 -0.2951
 4999TIP3    H136412   5.968  -0.060   3.113  0.1674 -1.7184 -1.4175
 4999TIP3    H236413   6.068  -0.041   3.001  0.1288  1.1956 -1.0164
 5000TIP3   OH236414   3.992   6.197  13.268 -0.2736  0.2473 -0.2062
 5000TIP3    H136415   3.905   6.194  13.227  0.1472 -0.0604 -1.1099
 5000TIP3    H236416   4.051   6.219  13.196  0.4595 -0.0929  0.2845
 5001TIP3   OH236417   4.304   5.050  12.574  0.0683  0.0910 -0.3433
 5001TIP3    H136418   4.382   5.017  12.531 -0.0563 -0.0326 -0.4772
 5001TIP3    H236419   4.315   5.024  12.666  1.8069  3.0135  0.4191
 5002TIP3   OH236420   3.167   6.041  13.053  0.1931 -0.0091 -0.3494
 5002TIP3    H136421   3.183   6.134  13.040 -0.3579  0.2762  0.8594
 5002TIP3    H236422   3.247   5.998  13.021  1.6808  1.0794  1.6671
 5003TIP3   OH236423   3.552   5.681  16.750 -0.6761 -0.2800 -0.0497
 5003TIP3    H136424   3.478   5.694  16.808  1.2454 -2.7391  3.3160
 5003TIP3    H236425   3.555   5.587  16.734  2.0203 -0.3997  0.5535
 5004TIP3   OH236426   3.433   2.305  13.288 -0.1605  0.5356 -0.2916
 5004TIP3    H136427   3.457   2.370  13.222 -0.4166  0.0081 -0.9171
 5004TIP3    H236428   3.341   2.323  13.308 -0.6720 -0.5268 -1.5474
 5005TIP3   OH236429   5.708   2.141   1.741 -0.1410 -0.1228  0.7624
 5005TIP3    H136430   5.624   2.186   1.739 -0.5246 -0.8491 -1.0721
 5005TIP3    H236431   5.721   2.119   1.833 -1.1619  1.4146  1.3177
 5006TIP3   OH236432   4.179   2.273   4.395  0.3643  0.2266 -0.4163
 5006TIP3    H136433   4.188   2.363   4.426 -2.0301  0.7093 -0.9271
 5006TIP3    H236434   4.219   2.273   4.308  1.6438  0.3828  0.1384
 5007TIP3   OH236435   3.922   2.748   3.021 -0.2091  0.3048  0.4365
 5007TIP3    H136436   4.002   2.732   3.071 -0.1812  1.6019  0.8431
 5007TIP3    H236437   3.954   2.782   2.937 -0.1676 -3.3307 -1.2184
 5008TIP3   OH236438   5.417   6.543   3.812  0.7541  0.3855  0.0282
 5008TIP3    H136439   5.379   6.457   3.792  2.2028 -0.1523 -0.5292
 5008TIP3    H236440   5.350   6.606   3.787 -0.5481 -0.5954  0.9434
 5009TIP3   OH236441   3.683   0.723  12.952  0.0133 -0.6793  0.3447
 5009TIP3    H136442   3.608   0.764  12.995 -0.2282 -1.2457  0.4807
 5009TIP3    H236443   3.671   0.742  12.859 -0.4211 -0.9444  0.3426
 5010TIP3   OH236444   4.344   3.010  16.307  0.0543  0.1736  0.0778
 5010TIP3    H136445   4.367   3.102  16.313  0.4952  0.0157  1.0461
 5010TIP3    H236446   4.379   2.971  16.387 -1.9353 -0.4356  0.7277
 5011TIP3   OH236447   3.442   4.938   5.660 -0.2797 -0.2250  0.0960
 5011TIP3    H136448   3.530   4.960   5.690 -0.4382  3.0906 -1.3968
 5011TIP3    H236449   3.452   4.917   5.568 -0.9970 -0.0774 -0.0219
 5012TIP3   OH236450   5.152   2.530   0.665 -0.2601 -0.4825  0.0679
 5012TIP3    H136451   5.243   2.500   0.677 -0.2733 -0.7824 -0.5582
 5012TIP3    H236452   5.135   2.517   0.572 -0.4667  0.9516 -0.1104
 5013TIP3   OH236453   5.325   4.475  10.793  0.1328 -0.4564 -0.0750
 5013TIP3    H136454   5.232   4.466  10.813  0.2281 -0.3109  0.4287
 5013TIP3    H236455   5.333   4.439  10.704 -0.3294 -0.8586  0.0387
 5014TIP3   OH236456   6.502   5.094  10.855  0.3176  0.2218  0.5165
 5014TIP3    H136457   6.517   5.164  10.918  0.2471  0.0251  0.7580
 5014TIP3    H236458   6.528   5.130  10.771  0.8518  0.3350  0.7245
 5015TIP3   OH236459   6.288   3.039  11.473  0.3181 -0.6211 -0.2052
 5015TIP3    H136460   6.261   2.998  11.555  1.6314  1.8899  1.6307
 5015TIP3    H236461   6.221   3.105  11.456  0.9926  0.1088 -0.1098
 5016TIP3   OH236462   4.749   4.366   3.767  0.4615 -0.6500  0.7895
 5016TIP3    H136463   4.737   4.372   3.861  2.2721 -0.8986  1.0732
 5016TIP3    H236464   4.749   4.457   3.737 -1.6067 -0.6034  0.7611
 5017TIP3   OH236465   3.829   6.507  14.491 -0.7426 -0.1118 -0.0747
 5017TIP3    H136466   3.847   6.551  14.408 -0.6151  2.9661  1.4364
 5017TIP3    H236467   3.849   6.415  14.474  0.0168  0.5077 -3.2075
 5018TIP3   OH236468   4.024   0.770  11.260 -0.0842 -0.0738  0.4192
 5018TIP3    H136469   3.999   0.857  11.228 -0.2485 -0.3322 -0.1600
 5018TIP3    H236470   4.084   0.736  11.194 -0.4323 -0.6168  0.3805
 5019TIP3   OH236471   4.330   0.854   3.906  0.2589 -0.0054  0.1252
 5019TIP3    H136472   4.352   0.768   3.869  0.6236 -0.7825  2.0048
 5019TIP3    H236473   4.236   0.862   3.893  0.0499 -1.1545  0.7892
 5020TIP3   OH236474   4.896   1.442   0.849  0.0893  0.3932 -0.1534
 5020TIP3    H136475   4.886   1.534   0.870 -0.4573  0.6665 -1.5217
 5020TIP3    H236476   4.976   1.415   0.893  0.7568  1.7564 -0.5082
 5021TIP3   OH236477   2.923   0.386  15.930  0.9322  0.3048 -0.8041
 5021TIP3    H136478   2.918   0.344  15.844  1.3251 -1.5768  0.0226
 5021TIP3    H236479   3.013   0.370  15.958  0.5328 -0.0106  0.3563
 5022TIP3   OH236480   1.128   1.315  12.471  0.2497 -0.1512  0.0782
 5022TIP3    H136481   1.171   1.397  12.496 -0.2099  0.1768 -0.1772
 5022TIP3    H236482   1.137   1.259  12.547  1.9859 -0.4576 -0.3118
 5023TIP3   OH236483   0.010   1.344   5.154  0.3511 -0.0670 -0.1833
 5023TIP3    H136484   0.004   1.269   5.095 -0.7932  0.2790 -0.5268
 5023TIP3    H236485   0.102   1.367   5.154  0.5711 -0.8950 -0.7948
 5024TIP3   OH236486   4.627   4.492   3.153 -0.5016  0.5730  0.3752
 5024TIP3    H136487   4.620   4.404   3.116  0.0249  1.0937 -1.0328
 5024TIP3    H236488   4.697   4.534   3.102 -1.3440  2.1002  0.4084
 5025TIP3   OH236489   1.932   1.829  11.363  0.1278  0.1736 -0.0002
 5025TIP3    H136490   2.019   1.811  11.328 -0.7467  0.5690 -2.6130
 5025TIP3    H236491   1.890   1.882  11.295 -2.2888 -0.3283  1.0107
 5026TIP3   OH236492   6.263   4.194  14.633 -0.3239 -0.1504  0.6973
 5026TIP3    H136493   6.236   4.285  14.618 -0.2652 -0.3453 -0.7655
 5026TIP3    H236494   6.218   4.145  14.565  0.0303 -1.1534  1.1784
 5027TIP3   OH236495   0.149   3.609  13.779  0.2612 -0.0376  0.9575
 5027TIP3    H136496   0.126   3.700  13.758 -1.5344 -0.6137  0.2511
 5027TIP3    H236497   0.229   3.594  13.729 -1.7387 -0.1001 -2.5748
 5028TIP3   OH236498   3.366   1.330   0.963 -0.1475 -0.2971 -0.1651
 5028TIP3    H136499   3.406   1.380   1.033  0.2474 -1.1386  0.2339
 5028TIP3    H236500   3.316   1.261   1.007 -0.7875 -0.1826 -0.6886
 5029TIP3   OH236501   0.661   2.043   1.494  0.1825 -0.9061 -0.4873
 5029TIP3    H136502   0.742   2.059   1.446  0.8177 -1.1640  0.4611
 5029TIP3    H236503   0.641   1.951   1.480  0.8261 -1.1911  0.4012
 5030TIP3   OH236504   6.471   1.492   5.548 -0.1717  0.0811  0.0407
 5030TIP3    H136505   6.553   1.487   5.498  0.4754  1.4302  0.9090
 5030TIP3    H236506   6.497   1.474   5.638 -0.7927  0.7475  0.3570
 5031TIP3   OH236507   5.732   0.903   2.029  0.1959  0.2529  0.3337
 5031TIP3    H136508   5.757   0.860   1.947 -1.5698  0.6179 -0.4406
 5031TIP3    H236509   5.785   0.860   2.096  2.1486  0.3631 -1.0506
 5032TIP3   OH236510   0.000   6.743   3.886  0.0089  0.2071 -0.4237
 5032TIP3    H136511   0.040   6.665   3.925 -0.0838 -0.0174 -0.7697
 5032TIP3    H236512   0.050   6.816   3.922  0.1856 -0.0204 -0.2018
 5033TIP3   OH236513   6.743   2.327   2.365 -0.2154  0.1848  0.6561
 5033TIP3    H136514   6.762   2.241   2.403 -1.3635 -0.2035  0.3666
 5033TIP3    H236515   6.698   2.308   2.283  0.9699  1.0516 -0.2393
 5034TIP3   OH236516   3.660   3.107   5.012 -0.2027  0.3488  0.1949
 5034TIP3    H136517   3.724   3.152   4.957 -0.5696  1.0812  0.3497
 5034TIP3    H236518   3.644   3.168   5.085 -0.1569 -0.3523  0.8023
 5035TIP3   OH236519   0.787   6.784   6.192  0.3854  0.3434  0.1140
 5035TIP3    H136520   0.827   6.777   6.105 -0.0084 -0.9041  0.0168
 5035TIP3    H236521   0.839   6.852   6.236 -0.1901  1.9298 -1.4996
 5036TIP3   OH236522   5.029   3.535   2.006  0.1791  0.1606  0.1845
 5036TIP3    H136523   5.057   3.587   2.081 -0.1968 -0.2616  0.6255
 5036TIP3    H236524   5.099   3.547   1.941  0.2716  0.9165  0.4112
 5037TIP3   OH236525   3.002   4.389   6.144 -0.0390  0.1645 -0.0950
 5037TIP3    H136526   3.064   4.424   6.080 -0.2768 -0.7946 -0.8747
 5037TIP3    H236527   3.055   4.374   6.223  0.3179  1.0748 -0.1455
 5038TIP3   OH236528   4.848   1.679   4.926 -0.2336 -0.4801 -0.3832
 5038TIP3    H136529   4.818   1.599   4.969  0.5214 -0.3021  0.5013
 5038TIP3    H236530   4.868   1.651   4.836 -0.9236 -1.0597 -0.3674
 5039TIP3   OH236531   3.362   0.672   4.138 -0.3340 -0.3092 -0.2584
 5039TIP3    H136532   3.447   0.630   4.133 -0.0837  0.1796 -0.0994
 5039TIP3    H236533   3.320   0.635   4.216 -0.9309 -1.7693 -1.2302
 5040TIP3   OH236534   3.087   3.407  13.355 -0.3970  0.2287 -0.2667
 5040TIP3    H136535   2.998   3.436  13.336 -0.2381 -0.0772 -1.6363
 5040TIP3    H236536   3.076   3.316  13.384 -0.3770 -1.3447 -4.3702
 5041TIP3   OH236537   4.767   0.647   1.979 -0.2063  0.6567 -0.4539
 5041TIP3    H136538   4.785   0.649   2.072 -0.8190  0.7819 -0.3330
 5041TIP3    H236539   4.807   0.726   1.944  2.7227 -0.8604 -0.8283
 5042TIP3   OH236540   4.155   4.278   0.853 -0.4808  0.2485 -0.1350
 5042TIP3    H136541   4.177   4.355   0.801  0.5669 -1.2781 -2.1249
 5042TIP3    H236542   4.193   4.205   0.804 -0.7191 -1.4708  2.0710
 5043TIP3   OH236543   1.481   5.119   3.317 -0.1104 -0.0845 -0.3102
 5043TIP3    H136544   1.517   5.150   3.234  0.7592 -0.7376 -0.1905
 5043TIP3    H236545   1.475   5.024   3.306 -1.4513 -0.0248 -0.1841
 5044TIP3   OH236546   4.664   1.327  12.805 -0.0981 -0.2160 -0.1819
 5044TIP3    H136547   4.753   1.322  12.770 -0.8779  0.1744 -2.4136
 5044TIP3    H236548   4.656   1.252  12.864  1.4686 -0.6673 -0.5209
 5045TIP3   OH236549   5.768   1.502   6.501  0.0789 -0.3183 -0.6413
 5045TIP3    H136550   5.858   1.481   6.475 -0.4283 -0.2213 -2.6036
 5045TIP3    H236551   5.747   1.584   6.456 -0.4250  0.6053  1.1953
 5046TIP3   OH236552   1.577   1.224  15.323 -0.7177  0.0709 -0.1018
 5046TIP3    H136553   1.492   1.231  15.366 -0.9096  1.7645 -0.7021
 5046TIP3    H236554   1.640   1.241  15.393 -0.7843 -1.9671  0.5238
 5047TIP3   OH236555   1.206   3.513   1.966 -0.2496  0.5414  0.6016
 5047TIP3    H136556   1.301   3.507   1.978 -0.0122  1.4651 -0.6897
 5047TIP3    H236557   1.171   3.506   2.055  0.8928 -1.5352  0.9609
 5048TIP3   OH236558   6.402   3.714   3.796 -0.5172 -0.1966 -0.2536
 5048TIP3    H136559   6.329   3.776   3.793  0.3312  0.9462  1.3100
 5048TIP3    H236560   6.470   3.752   3.740 -0.2938 -0.1283  0.0620
 5049TIP3   OH236561   4.733   6.098   2.042 -0.4500  0.1832 -0.3156
 5049TIP3    H136562   4.697   6.018   2.003 -0.0200 -0.9128  1.4071
 5049TIP3    H236563   4.827   6.091   2.028 -0.3083 -0.1399  0.7270
 5050TIP3   OH236564   4.020   1.098   2.767  0.0109 -0.1422 -0.4517
 5050TIP3    H136565   3.997   1.094   2.675  0.4104  0.3801 -0.5825
 5050TIP3    H236566   3.948   1.146   2.808  0.4181  0.7116 -0.7086
 5051TIP3   OH236567   0.778   3.593  16.281  0.2141 -0.1933  0.5763
 5051TIP3    H136568   0.712   3.656  16.253  1.4274  1.4151  1.1784
 5051TIP3    H236569   0.851   3.606  16.220  0.5110 -0.9873  0.7503
 5052TIP3   OH236570   0.393   1.710  11.433 -0.0171  0.7982 -0.2503
 5052TIP3    H136571   0.481   1.687  11.404 -0.2722  0.1495 -0.5319
 5052TIP3    H236572   0.337   1.639  11.400 -0.5591  0.9092  0.3993
 5053TIP3   OH236573   1.262   1.375  11.720 -0.7673  0.3048 -0.3825
 5053TIP3    H136574   1.239   1.403  11.632  0.0526  0.6476 -0.4945
 5053TIP3    H236575   1.357   1.377  11.722 -0.7992  1.5330  0.9070
 5054TIP3   OH236576   3.659   4.598  13.116 -0.6743 -0.0278  0.6701
 5054TIP3    H136577   3.687   4.689  13.104  0.5128 -0.4513  0.1347
 5054TIP3    H236578   3.740   4.548  13.121 -1.3065 -1.0298  1.3277
 5055TIP3   OH236579   5.946   2.757  17.049  0.2242 -0.8407 -0.4811
 5055TIP3    H136580   5.850   2.762  17.057  0.2535  2.6652 -0.6655
 5055TIP3    H236581   5.974   2.715  17.130 -1.3128  3.3682  2.6096
 5056TIP3   OH236582   1.495   5.957   4.522  0.2743  0.0512  0.2247
 5056TIP3    H136583   1.485   5.969   4.616  0.4234 -0.4273  0.3042
 5056TIP3    H236584   1.590   5.964   4.507  0.3517 -0.7853  0.2480
 5057TIP3   OH236585   6.231   1.177  16.811 -0.3695 -0.0935  0.1039
 5057TIP3    H136586   6.247   1.117  16.738  1.8712 -0.3173  0.7062
 5057TIP3    H236587   6.274   1.136  16.886 -2.0396  0.4677  1.4241
 5058TIP3   OH236588   5.206   5.608  12.548  0.3300  0.3840  0.5525
 5058TIP3    H136589   5.173   5.523  12.518 -1.5077  0.7730  1.2865
 5058TIP3    H236590   5.183   5.669  12.478  0.9320  0.3958  0.3675
 5059TIP3   OH236591   4.643   3.283   5.587  0.1771 -0.7388 -0.1903
 5059TIP3    H136592   4.579   3.256   5.520 -1.2551 -0.4239  0.9967
 5059TIP3    H236593   4.600   3.263   5.670  2.0999 -1.5307  0.6675
 5060TIP3   OH236594   0.953   3.802   4.075 -0.3409  0.1515 -0.4519
 5060TIP3    H136595   0.921   3.713   4.092 -1.6666  0.5164 -0.8939
 5060TIP3    H236596   1.036   3.790   4.030 -0.5410 -0.8735 -0.5631
 5061TIP3   OH236597   3.050   0.110  15.109  0.3116  0.1572 -0.6803
 5061TIP3    H136598   3.033   0.188  15.163  1.5017 -0.4057  0.5867
 5061TIP3    H236599   3.145   0.103  15.107  0.2452 -0.6759 -1.6837
 5062TIP3   OH236600   1.898   4.444   0.563 -0.0596  0.1746 -0.3236
 5062TIP3    H136601   1.992   4.454   0.551  0.2883 -0.4840  1.6114
 5062TIP3    H236602   1.871   4.521   0.613 -0.3844 -0.0754 -0.1092
 5063TIP3   OH236603   5.157   6.229   4.846  0.3704  0.1795 -0.1247
 5063TIP3    H136604   5.252   6.220   4.851  0.1752 -1.7683  1.0030
 5063TIP3    H236605   5.134   6.282   4.922  0.4356 -0.7939  0.5954
 5064TIP3   OH236606   4.229   4.798   2.976 -0.5461  0.5076  0.1549
 5064TIP3    H136607   4.293   4.800   2.905  0.5096 -0.8894  1.0244
 5064TIP3    H236608   4.263   4.858   3.041  0.7943 -1.3944  1.3066
 5065TIP3   OH236609   4.969   1.211  15.693  0.2502  0.3361  0.1813
 5065TIP3    H136610   5.034   1.228  15.762 -1.7223 -0.8424  2.4703
 5065TIP3    H236611   4.965   1.116  15.686  0.2047  0.4251 -1.4360
 5066TIP3   OH236612   3.580   4.453   4.603  0.8821  0.3404  0.0302
 5066TIP3    H136613   3.623   4.411   4.528  1.4000  0.2547  0.3697
 5066TIP3    H236614   3.502   4.494   4.566  0.9321 -0.0258 -0.4903
 5067TIP3   OH236615   4.169   3.285   1.536 -0.7132 -0.1339  0.1240
 5067TIP3    H136616   4.228   3.320   1.469  0.8394 -0.9248  1.0245
 5067TIP3    H236617   4.130   3.208   1.495  0.6729 -0.9540  0.2889
 5068TIP3   OH236618   5.369   5.380   5.060  0.4038  0.4596 -0.6179
 5068TIP3    H136619   5.383   5.299   5.109 -1.0267  0.2872 -0.4323
 5068TIP3    H236620   5.279   5.373   5.028 -0.7183  3.0620  1.5663
 5069TIP3   OH236621   4.485   2.377  15.880 -0.1703 -0.4683 -0.0469
 5069TIP3    H136622   4.519   2.301  15.833 -0.6164  0.4799 -1.9710
 5069TIP3    H236623   4.553   2.398  15.944  1.6317 -0.2921 -1.9439
 5070TIP3   OH236624   6.253   3.017  13.257  0.2183 -0.0779  0.0404
 5070TIP3    H136625   6.251   3.092  13.198 -1.3090 -0.2372 -0.1535
 5070TIP3    H236626   6.177   3.028  13.313  0.9392 -0.6019  1.1591
 5071TIP3   OH236627   4.773   1.039  12.637 -0.0692 -0.4494 -0.2721
 5071TIP3    H136628   4.720   1.110  12.600 -1.5216 -1.4841 -0.2880
 5071TIP3    H236629   4.861   1.077  12.647 -0.4876  0.9335 -1.4698
 5072TIP3   OH236630   4.607   3.479  12.613 -0.7720 -0.1541 -0.1473
 5072TIP3    H136631   4.542   3.412  12.633 -0.1587 -0.3452  1.3543
 5072TIP3    H236632   4.680   3.431  12.575 -1.0462 -0.0842 -0.7776
 5073TIP3   OH236633   1.016   1.597   2.781  0.3888  0.4022 -0.1135
 5073TIP3    H136634   1.076   1.662   2.816  2.7998 -2.8612  2.5696
 5073TIP3    H236635   1.052   1.573   2.696 -0.0844  1.9081 -0.7655
 5074TIP3   OH236636   0.644   6.307  14.937 -0.0125 -0.3909  0.5100
 5074TIP3    H136637   0.553   6.298  14.908  1.3059 -0.7568 -4.3185
 5074TIP3    H236638   0.676   6.218  14.945  1.1631 -0.4780 -3.2158
 5075TIP3   OH236639   1.951   1.822   5.794  0.8340  0.0393 -0.1734
 5075TIP3    H136640   2.006   1.888   5.752 -1.1747  1.1521 -1.1775
 5075TIP3    H236641   1.890   1.794   5.725  0.1047 -1.1156  0.9018
 5076TIP3   OH236642   5.277   0.960  13.795  0.1707  0.4980  0.1567
 5076TIP3    H136643   5.261   0.881  13.846 -1.2858  1.1115  0.7246
 5076TIP3    H236644   5.327   1.017  13.853 -1.4222  1.1669  0.9321
 5077TIP3   OH236645   4.021   4.219   1.103 -0.0790 -0.7100  0.6484
 5077TIP3    H136646   4.055   4.238   1.016 -1.2730 -0.1542  0.2761
 5077TIP3    H236647   4.095   4.180   1.150  1.3212  1.2172  0.1784
 5078TIP3   OH236648   1.137   3.116  11.943  0.6529 -0.2221 -0.2137
 5078TIP3    H136649   1.084   3.098  12.020 -0.8606  0.9801 -0.9010
 5078TIP3    H236650   1.222   3.144  11.977 -0.1431  0.7529  1.0425
 5079TIP3   OH236651   3.673   1.288   3.844 -0.3513  0.0122 -0.4417
 5079TIP3    H136652   3.583   1.299   3.812  0.8621  1.8088 -3.6949
 5079TIP3    H236653   3.692   1.368   3.892 -1.3136 -1.6169  2.9564
 5080TIP3   OH236654   3.210   5.460  14.314  0.2673  0.2798  0.0854
 5080TIP3    H136655   3.266   5.475  14.391  1.3958 -1.5209 -0.3275
 5080TIP3    H236656   3.166   5.377  14.332 -0.5728  0.5626 -0.6061
 5081TIP3   OH236657   3.834   4.073  11.676  0.2146 -0.3309 -0.1723
 5081TIP3    H136658   3.894   4.036  11.741  0.5567 -0.0024 -0.3009
 5081TIP3    H236659   3.888   4.086  11.598 -0.4262 -1.7064 -0.8738
 5082TIP3   OH236660   5.404   1.751   2.546 -0.5419  0.2561  0.3270
 5082TIP3    H136661   5.420   1.777   2.455 -0.9917  1.4849  0.5807
 5082TIP3    H236662   5.309   1.746   2.553 -0.5547  1.2124  0.9947
 5083TIP3   OH236663   2.066   4.655   2.236  0.0556  0.8898  0.2064
 5083TIP3    H136664   2.023   4.728   2.280 -0.9862 -0.2820  1.2304
 5083TIP3    H236665   1.998   4.588   2.228  0.8267  0.2067 -1.1911
 5084TIP3   OH236666   6.715   5.513  16.998 -0.6302 -0.1060 -0.0015
 5084TIP3    H136667   6.754   5.445  16.943 -0.0457 -0.0000  0.2699
 5084TIP3    H236668   6.659   5.563  16.938 -1.2591 -0.9630 -0.1483
 5085TIP3   OH236669   4.080   6.497  13.883  0.0410 -0.3836 -0.2437
 5085TIP3    H136670   4.076   6.448  13.965  0.5807 -0.5447 -0.3103
 5085TIP3    H236671   4.162   6.545  13.887 -0.1116 -0.0905 -0.5247
 5086TIP3   OH236672   2.573   5.867   2.348  0.0306 -0.2630 -0.1678
 5086TIP3    H136673   2.623   5.798   2.392  1.0076 -0.0159 -0.8765
 5086TIP3    H236674   2.630   5.944   2.352 -0.5208  0.1668 -0.5147
 5087TIP3   OH236675   1.188   2.044   3.332 -0.3816  0.1462 -0.3302
 5087TIP3    H136676   1.162   2.049   3.240 -0.3782  0.6221 -0.3104
 5087TIP3    H236677   1.282   2.028   3.330 -0.1429  1.3977 -0.4334
 5088TIP3   OH236678   1.244   3.475  13.156 -0.8016 -0.0824 -0.3031
 5088TIP3    H136679   1.316   3.411  13.158 -1.5282 -0.8969  1.4383
 5088TIP3    H236680   1.285   3.558  13.181 -0.2621 -0.2962 -0.4634
 5089TIP3   OH236681   4.214   0.482   4.791 -0.8722 -0.0169 -0.4851
 5089TIP3    H136682   4.210   0.386   4.796  0.4019 -0.0914 -0.4122
 5089TIP3    H236683   4.185   0.503   4.702 -0.1408 -0.5640 -0.8652
 5090TIP3   OH236684   3.397   3.813  13.903 -0.9267 -0.0260  0.0062
 5090TIP3    H136685   3.389   3.898  13.946 -1.3352  0.4054 -0.8904
 5090TIP3    H236686   3.331   3.758  13.944  1.5117 -1.0087  2.9938
 5091TIP3   OH236687   5.680   0.583   3.754 -0.0482 -0.2192 -0.3101
 5091TIP3    H136688   5.704   0.575   3.662 -0.3544 -0.2804 -0.3855
 5091TIP3    H236689   5.763   0.587   3.801  0.1265 -2.1998 -0.4046
 5092TIP3   OH236690   5.052   6.255  13.910 -0.0998 -0.1731 -0.4612
 5092TIP3    H136691   4.993   6.233  13.982  1.6194  1.7818  1.6852
 5092TIP3    H236692   5.099   6.173  13.892  1.1416 -0.1927  2.3742
 5093TIP3   OH236693   0.529   0.886   0.706 -0.1403  1.0352 -0.2535
 5093TIP3    H136694   0.561   0.822   0.768 -2.3697  0.9357  0.9050
 5093TIP3    H236695   0.555   0.853   0.620  0.6166 -0.2610  0.4599
 5094TIP3   OH236696   3.922   5.278   3.332  0.6028  0.0433  0.3837
 5094TIP3    H136697   4.011   5.293   3.365  0.1930  3.3066  0.2856
 5094TIP3    H236698   3.929   5.198   3.281  3.4366  0.0628  0.5805
 5095TIP3   OH236699   6.449   6.416  14.935  0.5210  0.3670  0.7531
 5095TIP3    H136700   6.397   6.336  14.935  0.3927  0.4221  2.0816
 5095TIP3    H236701   6.423   6.461  15.016  2.0498  0.7740  1.0459
 5096TIP3   OH236702   5.312   2.059   1.336 -0.2419  0.1489  0.3219
 5096TIP3    H136703   5.225   2.024   1.314 -0.4502  0.6950  0.2479
 5096TIP3    H236704   5.302   2.154   1.324  0.3747  0.2082  0.2899
 5097TIP3   OH236705   0.446   1.061   3.400 -0.0851 -0.2632 -0.0928
 5097TIP3    H136706   0.356   1.034   3.383 -0.4432  1.7260 -1.7132
 5097TIP3    H236707   0.498   1.020   3.330  0.0341 -0.1539 -0.0691
 5098TIP3   OH236708   5.694   2.650  14.092 -0.2440 -0.2352  0.3734
 5098TIP3    H136709   5.675   2.592  14.166  2.5033  0.1942  1.5357
 5098TIP3    H236710   5.685   2.739  14.128 -1.0318  0.0455 -0.4577
 5099TIP3   OH236711   2.990   1.689   6.206 -0.3595  0.0951  0.3292
 5099TIP3    H136712   3.019   1.705   6.296 -2.1296  1.1613  0.7514
 5099TIP3    H236713   3.049   1.621   6.174  2.5880  2.1245  1.0815
 5100TIP3   OH236714   2.840   6.720   2.566  0.6271  0.0038 -0.1201
 5100TIP3    H136715   2.844   6.682   2.478 -0.1559 -1.1497  0.3120
 5100TIP3    H236716   2.920   6.772   2.574  1.1544 -0.6100 -1.1822
 5101TIP3   OH236717   3.787   0.772  11.380 -0.1465 -0.0787 -0.0020
 5101TIP3    H136718   3.726   0.817  11.322  1.2781  1.4215 -0.4315
 5101TIP3    H236719   3.869   0.768  11.330  0.1994 -1.8265  0.6343
 5102TIP3   OH236720   5.352   1.704   3.718 -0.5683  0.2540 -0.1998
 5102TIP3    H136721   5.289   1.717   3.647  0.4963 -0.1857 -1.2704
 5102TIP3    H236722   5.421   1.650   3.679 -0.8647 -1.6534  1.7042
 5103TIP3   OH236723   6.630   2.292   1.524 -0.4981 -0.9866  0.3244
 5103TIP3    H136724   6.719   2.262   1.543 -0.3793 -0.3268  0.8514
 5103TIP3    H236725   6.584   2.284   1.607 -0.0247  1.7792  0.9687
 5104TIP3   OH236726   1.263   3.243   6.229  0.5186  0.4036 -0.0111
 5104TIP3    H136727   1.269   3.315   6.292  2.2123  0.0959  0.2253
 5104TIP3    H236728   1.235   3.168   6.282 -2.0643  1.0058 -0.4028
 5105TIP3   OH236729   4.487   0.093  13.905 -0.5457 -0.3533 -0.6871
 5105TIP3    H136730   4.535   0.024  13.951 -1.3511 -0.8641 -0.5939
 5105TIP3    H236731   4.507   0.079  13.813  2.2103  1.5153 -0.5166
 5106TIP3   OH236732   6.427   5.495  15.799 -0.5376 -0.6386 -0.1414
 5106TIP3    H136733   6.515   5.482  15.763 -1.2401 -1.1675 -1.7832
 5106TIP3    H236734   6.422   5.434  15.872  1.3523  1.3133  1.7846
 5107TIP3   OH236735   3.992   5.593  13.616  0.0015  0.4533 -0.1246
 5107TIP3    H136736   3.912   5.643  13.603  0.2475  1.1215  0.8745
 5107TIP3    H236737   4.038   5.599  13.532 -1.3736 -0.6756 -1.0050
 5108TIP3   OH236738   4.047   1.530  11.051  0.5046 -0.4406 -0.7393
 5108TIP3    H136739   4.102   1.561  11.122 -1.1721  0.7954  0.1033
 5108TIP3    H236740   4.059   1.435  11.050 -1.3898 -0.9169  3.0702
 5109TIP3   OH236741   5.987   3.830   1.480  0.1622  0.1636 -0.5697
 5109TIP3    H136742   6.046   3.850   1.553  0.9350 -0.7453 -0.9275
 5109TIP3    H236743   5.899   3.841   1.516  0.5302 -0.3618  0.5145
 5110TIP3   OH236744   6.792   5.554   5.184 -0.2209 -0.5011 -0.2582
 5110TIP3    H136745   6.835   5.557   5.270  0.4713 -0.0128 -0.6112
 5110TIP3    H236746   6.700   5.540   5.204  0.3728 -4.5251  0.4287
 5111TIP3   OH236747   0.261   0.756   3.537  0.0278 -0.2044 -0.1933
 5111TIP3    H136748   0.315   0.811   3.594 -1.2756  0.9463 -0.0297
 5111TIP3    H236749   0.220   0.694   3.597  0.7364 -0.7452 -0.2522
 5112TIP3   OH236750   3.089   2.588   0.851 -0.0285 -0.1971 -0.1402
 5112TIP3    H136751   3.079   2.525   0.780  0.3379 -0.0378 -0.3347
 5112TIP3    H236752   2.999   2.613   0.874 -0.1328  0.0682 -0.8263
 5113TIP3   OH236753   4.666   1.869   3.824 -0.1068  0.0834  0.5056
 5113TIP3    H136754   4.676   1.775   3.808 -4.9253 -0.5970  0.1469
 5113TIP3    H236755   4.662   1.877   3.919 -0.7145 -0.2719  0.5166
 5114TIP3   OH236756   3.092   1.473   5.107  0.1966  0.0800 -0.3030
 5114TIP3    H136757   3.168   1.521   5.074 -0.4628  0.8318 -0.7734
 5114TIP3    H236758   3.127   1.389   5.136  1.5040  1.0417  1.0864
 5115TIP3   OH236759   3.574   2.714  14.097  0.1282  0.4695 -0.0385
 5115TIP3    H136760   3.574   2.654  14.022  1.5962  1.8799 -1.2543
 5115TIP3    H236761   3.484   2.747  14.101 -0.1710 -0.2449 -0.6596
 5116TIP3   OH236762   5.367   3.387   4.928 -0.3057 -0.3136 -0.0063
 5116TIP3    H136763   5.363   3.390   5.023 -1.9474  0.3769 -0.0531
 5116TIP3    H236764   5.439   3.446   4.905 -0.5603  0.3358  0.7977
 5117TIP3   OH236765   3.913   3.990   5.919  0.4754 -0.4419  0.2834
 5117TIP3    H136766   3.827   3.982   5.961  0.4868 -1.9704  0.0476
 5117TIP3    H236767   3.918   3.916   5.859  1.6141  0.1301 -0.3662
 5118TIP3   OH236768   1.891   3.957  15.410  0.0633 -0.1028  0.2634
 5118TIP3    H136769   1.877   3.881  15.467  1.2498  0.1686  0.9630
 5118TIP3    H236770   1.905   3.920  15.323 -0.8531 -0.5852  0.3125
 5119TIP3   OH236771   3.190   5.444  16.857  0.1701 -0.1155 -0.1359
 5119TIP3    H136772   3.201   5.350  16.870  1.7953 -0.1026 -1.1542
 5119TIP3    H236773   3.104   5.464  16.894  0.1410 -1.8524  0.8114
 5120TIP3   OH236774   3.672   2.514   4.072 -0.1763 -0.2538 -0.6044
 5120TIP3    H136775   3.694   2.436   4.022 -0.9730 -1.1641  0.3999
 5120TIP3    H236776   3.577   2.514   4.076 -0.1467 -0.2241  0.8764
 5121TIP3   OH236777   4.800   3.668   2.834 -0.1238  0.4524 -0.0617
 5121TIP3    H136778   4.822   3.657   2.742 -2.3321  1.0049 -0.7083
 5121TIP3    H236779   4.717   3.715   2.834 -0.1013  0.6243  2.2274
 5122TIP3   OH236780   3.999   6.717   2.894 -0.3811 -0.4006  0.0374
 5122TIP3    H136781   3.944   6.723   2.972 -1.8073  1.2032 -1.0041
 5122TIP3    H236782   3.936   6.709   2.822  0.8806 -1.3222 -1.0042
 5123TIP3   OH236783   2.359   2.049  11.202 -0.5031  0.1219  0.0781
 5123TIP3    H136784   2.453   2.031  11.198 -0.5260  0.1448 -0.9451
 5123TIP3    H236785   2.352   2.144  11.195 -0.5234  0.3146  2.2752
 5124TIP3   OH236786   5.834   0.561   3.530  0.5170  0.4956 -0.0289
 5124TIP3    H136787   5.918   0.605   3.541  1.0425 -0.4846  0.0281
 5124TIP3    H236788   5.855   0.480   3.483 -0.7078  1.2736 -2.0817
 5125TIP3   OH236789   5.832   0.800   4.985  0.1429 -0.6561 -0.3613
 5125TIP3    H136790   5.781   0.811   5.066  0.0608  1.4808 -0.6637
 5125TIP3    H236791   5.897   0.733   5.007  0.4212  0.1954  1.6333
 5126TIP3   OH236792   6.478   5.330   6.158  0.6205  0.1878  0.2129
 5126TIP3    H136793   6.571   5.342   6.139  0.3496  1.1552 -0.6407
 5126TIP3    H236794   6.474   5.248   6.206  2.0916  0.9742  1.7841
 5127TIP3   OH236795   6.004   4.492   3.532 -0.1952  0.1796  0.6801
 5127TIP3    H136796   6.010   4.397   3.533 -1.1899  0.1061  0.7896
 5127TIP3    H236797   5.910   4.510   3.531 -0.0464  1.1325 -1.2561
 5128TIP3   OH236798   3.512   6.703  13.409 -0.3742  0.2252  0.0413
 5128TIP3    H136799   3.440   6.738  13.461 -0.0605  0.5051  0.2862
 5128TIP3    H236800   3.584   6.763  13.423 -0.1589  0.0768 -0.3903
 5129TIP3   OH236801   0.360   4.096   0.231  0.0618  0.3597 -0.0052
 5129TIP3    H136802   0.429   4.122   0.291  1.8975  1.8304 -2.5825
 5129TIP3    H236803   0.316   4.023   0.276  0.9108  1.7003  3.2871
 5130TIP3   OH236804   1.180   2.178  13.626 -0.4445  0.0423  0.0648
 5130TIP3    H136805   1.189   2.219  13.540 -0.8553  0.5601  0.2647
 5130TIP3    H236806   1.256   2.120  13.633 -1.0543 -0.9245 -1.1419
 5131TIP3   OH236807   4.133   0.681  14.837  0.2323  0.0929 -0.1232
 5131TIP3    H136808   4.146   0.709  14.747 -0.8285  0.2548 -0.2364
 5131TIP3    H236809   4.111   0.761  14.885 -0.8560 -0.2282 -0.0615
 5132TIP3   OH236810   0.101   2.901  11.819 -0.0727 -0.0250  0.3465
 5132TIP3    H136811   0.189   2.918  11.854 -0.1200 -0.9813  0.9578
 5132TIP3    H236812   0.061   2.988  11.815  0.4331  0.2809  1.3446
 5133TIP3   OH236813   4.954   3.160  11.843 -0.1004 -0.5805  0.1068
 5133TIP3    H136814   5.035   3.211  11.834  1.0729 -2.0836  1.5338
 5133TIP3    H236815   4.895   3.218  11.890  0.6695  0.0242  0.3568
 5134TIP3   OH236816   2.141   3.497   2.059 -0.2202 -0.3455  0.1860
 5134TIP3    H136817   2.119   3.568   1.999 -0.9310 -0.5437  0.2078
 5134TIP3    H236818   2.084   3.512   2.135  0.4260 -0.2937  0.6764
 5135TIP3   OH236819   4.321   5.122  15.512  0.3984  0.3811  0.1447
 5135TIP3    H136820   4.351   5.031  15.508 -0.0891  0.2453 -0.5766
 5135TIP3    H236821   4.233   5.116  15.550  0.1617  0.5039 -0.3890
 5136TIP3   OH236822   0.514   4.944   5.870 -0.1988  0.4815  0.2509
 5136TIP3    H136823   0.535   4.902   5.786  1.1339 -0.9606  1.2407
 5136TIP3    H236824   0.581   5.011   5.881  0.7893 -0.5806  0.9750
 5137TIP3   OH236825   2.928   4.078  16.301  0.0638 -0.0109 -0.3060
 5137TIP3    H136826   2.877   4.033  16.234 -0.9995 -0.0124  0.4827
 5137TIP3    H236827   3.009   4.026  16.308 -0.5359 -0.9900 -0.4149
 5138TIP3   OH236828   0.992   5.431  16.069 -0.1098  0.1926  0.2691
 5138TIP3    H136829   1.027   5.432  16.158 -2.5135  0.8954  1.2876
 5138TIP3    H236830   0.988   5.338  16.047  2.9560  0.0786 -0.2312
 5139TIP3   OH236831   4.625   3.363   0.161  0.1725 -0.7546  0.4276
 5139TIP3    H136832   4.617   3.458   0.152 -0.4581 -1.0124 -3.1747
 5139TIP3    H236833   4.537   3.330   0.142  0.3227 -2.0915  1.8751
 5140TIP3   OH236834   4.152   3.875   4.144 -0.1368  0.2543  0.6713
 5140TIP3    H136835   4.063   3.861   4.175 -0.4670  0.5264 -0.1304
 5140TIP3    H236836   4.160   3.970   4.132 -0.3557  0.1010 -0.9779
 5141TIP3   OH236837   2.561   2.998  10.581 -0.3272  0.0304  0.1001
 5141TIP3    H136838   2.466   3.001  10.569 -0.3751 -0.5924  0.2742
 5141TIP3    H236839   2.592   2.948  10.506 -0.2471 -0.6762  0.5972
 5142TIP3   OH236840   0.321   1.954   5.880 -0.0013  0.2081 -0.1210
 5142TIP3    H136841   0.314   1.956   5.976  1.2829  0.0602 -0.0103
 5142TIP3    H236842   0.305   2.045   5.853 -2.1240 -0.0475  0.0554
 5143TIP3   OH236843   6.709   3.442   5.160 -0.0388  0.8414 -0.2713
 5143TIP3    H136844   6.753   3.380   5.218 -1.4240 -1.3783 -1.4272
 5143TIP3    H236845   6.643   3.484   5.216  0.2347  0.5067  0.3137
 5144TIP3   OH236846   1.842   6.050  13.108  0.6552 -0.0675 -0.0289
 5144TIP3    H136847   1.818   5.966  13.067 -1.8380  0.0775  0.9316
 5144TIP3    H236848   1.890   6.097  13.040 -0.2399 -1.2405 -1.5455
 5145TIP3   OH236849   5.944   0.647   2.569 -0.5901  0.4842 -0.0899
 5145TIP3    H136850   5.929   0.596   2.490  0.9748  0.0160 -0.1146
 5145TIP3    H236851   5.859   0.649   2.613 -1.7255  1.5191 -2.1922
 5146TIP3   OH236852   5.876   3.415   6.655 -0.1508  0.2286 -0.2233
 5146TIP3    H136853   5.808   3.382   6.596  0.4951  0.1074 -0.9085
 5146TIP3    H236854   5.898   3.501   6.620  0.8386 -0.1971 -0.6824
 5147TIP3   OH236855   5.876   1.111  16.108 -0.0602 -0.3633 -0.3935
 5147TIP3    H136856   5.811   1.076  16.169  0.7346 -2.0511 -0.4462
 5147TIP3    H236857   5.906   1.192  16.149  0.0503 -1.1704  1.2049
 5148TIP3   OH236858   3.976   4.027  13.333  0.0062 -0.4197 -0.3171
 5148TIP3    H136859   3.960   4.122  13.338  0.1810 -0.4455  1.4047
 5148TIP3    H236860   4.031   4.016  13.256  2.2428  1.2512  0.9358
 5149TIP3   OH236861   4.388   4.203   3.406 -0.0541  0.1707 -0.2614
 5149TIP3    H136862   4.467   4.148   3.409  0.1625  0.4551 -0.6623
 5149TIP3    H236863   4.420   4.290   3.383 -0.4823  0.2924 -0.4081
 5150TIP3   OH236864   5.147   4.991   3.148 -0.1512 -0.1180  0.3957
 5150TIP3    H136865   5.186   4.906   3.128 -1.6639 -0.8072  0.1967
 5150TIP3    H236866   5.076   4.970   3.209 -1.6064  0.7653 -0.9373
 5151TIP3   OH236867   0.231   6.387   4.519  0.1587  0.1348 -0.0390
 5151TIP3    H136868   0.143   6.413   4.493  0.2825 -0.0166 -0.6113
 5151TIP3    H236869   0.223   6.364   4.612 -0.2616  0.7775  0.0912
 5152TIP3   OH236870   2.532   1.820   3.820 -0.0532  0.2737 -0.4673
 5152TIP3    H136871   2.519   1.748   3.758 -0.8306 -0.3044  0.3590
 5152TIP3    H236872   2.446   1.834   3.859  0.2686  1.1426 -0.0572
 5153TIP3   OH236873   3.621   0.494   1.858  0.4026 -0.0378 -0.1674
 5153TIP3    H136874   3.583   0.461   1.776 -1.0971  0.7003  0.1938
 5153TIP3    H236875   3.655   0.580   1.835 -2.2801  1.2964  0.4620
 5154TIP3   OH236876   1.526   3.729   0.259  0.0913  0.1566 -0.3189
 5154TIP3    H136877   1.451   3.754   0.204 -1.2222 -0.4318  1.1326
 5154TIP3    H236878   1.548   3.640   0.229  0.4935  0.4878 -1.0292
 5155TIP3   OH236879   4.539   3.798   0.345 -0.2175  0.0213 -0.1291
 5155TIP3    H136880   4.545   3.704   0.324  2.4028  0.0291  0.2556
 5155TIP3    H236881   4.591   3.808   0.425  1.1248  2.0444 -1.1616
 5156TIP3   OH236882   6.621   0.627  14.483  0.3059 -0.0843  0.1083
 5156TIP3    H136883   6.578   0.553  14.525 -0.0827  0.3626  0.5002
 5156TIP3    H236884   6.574   0.638  14.400 -0.0785  0.1556  0.3589
 5157TIP3   OH236885   1.197   0.346  11.821  0.0050 -0.3881 -0.2949
 5157TIP3    H136886   1.241   0.287  11.882  0.1444  0.9842  0.9938
 5157TIP3    H236887   1.221   0.313  11.734  0.2882 -2.0430  0.3620
 5158TIP3   OH236888   5.498   6.114  10.785 -0.0909 -0.3804  0.0381
 5158TIP3    H136889   5.411   6.076  10.794 -0.4581  0.2971 -0.5504
 5158TIP3    H236890   5.533   6.075  10.705  0.0197 -0.4112  0.1010
 5159TIP3   OH236891   3.640   6.175   0.407 -0.3293 -0.5905  0.6624
 5159TIP3    H136892   3.571   6.195   0.470 -1.3204 -1.5500 -0.0928
 5159TIP3    H236893   3.708   6.132   0.458 -0.4280  0.0372  1.3446
 5160TIP3   OH236894   4.462   4.894   4.486  0.4025 -0.1413  0.6866
 5160TIP3    H136895   4.427   4.918   4.572  0.7211  0.1744  0.7287
 5160TIP3    H236896   4.386   4.899   4.428  0.0649 -0.9159  1.0526
 5161TIP3   OH236897   3.729   0.062   6.361 -0.4159 -0.1892 -0.0820
 5161TIP3    H136898   3.753   0.130   6.297  0.7076 -0.5989 -0.1235
 5161TIP3    H236899   3.813   0.029   6.392 -0.9226  0.0987  1.7243
 5162TIP3   OH236900   3.288   2.604  16.041  0.0471  0.0556 -0.0182
 5162TIP3    H136901   3.378   2.582  16.018  0.8013  0.3744  2.3494
 5162TIP3    H236902   3.239   2.592  15.960  1.5881 -3.3937 -0.5918
 5163TIP3   OH236903   0.464   2.976  10.633  0.4167  0.0077  0.4825
 5163TIP3    H136904   0.430   2.894  10.669  2.4118 -0.4779  1.3864
 5163TIP3    H236905   0.507   2.950  10.551 -1.2769  0.6235 -0.6733
 5164TIP3   OH236906   1.479   2.365  11.474 -0.5752 -0.5720  0.0177
 5164TIP3    H136907   1.568   2.330  11.483 -0.3889 -0.7214 -1.9929
 5164TIP3    H236908   1.489   2.444  11.421 -1.6518 -0.7696 -0.5229
 5165TIP3   OH236909   1.481   0.686  16.297  0.2898  0.5084 -0.4508
 5165TIP3    H136910   1.473   0.781  16.308 -0.6203  0.5243 -1.1219
 5165TIP3    H236911   1.478   0.673  16.202 -0.9440 -0.2929 -0.3209
 5166TIP3   OH236912   0.503   2.869  14.107 -0.3754  0.4868 -0.3790
 5166TIP3    H136913   0.561   2.796  14.130 -0.5194  0.1197 -1.1625
 5166TIP3    H236914   0.424   2.853  14.157  0.0062  0.7227  0.3166
 5167TIP3   OH236915   2.520   2.237  14.048  0.0363 -0.1250  0.3260
 5167TIP3    H136916   2.481   2.234  13.961 -1.1488  0.6934  0.7901
 5167TIP3    H236917   2.587   2.304  14.042 -1.3163  1.2964  0.4926
 5168TIP3   OH236918   4.472   2.485  17.162  0.2796 -0.6790  0.0127
 5168TIP3    H136919   4.491   2.514  17.251 -1.0528  0.4980 -0.0370
 5168TIP3    H236920   4.487   2.391  17.163 -0.5412 -0.8320  1.7481
 5169TIP3   OH236921   3.478   2.332  14.480 -0.4143 -0.3241 -0.0254
 5169TIP3    H136922   3.436   2.364  14.400 -1.1029  1.2357  0.9139
 5169TIP3    H236923   3.462   2.238  14.480  1.0451 -0.6689 -2.5468
 5170TIP3   OH236924   4.207   4.035   2.326 -0.0675 -0.1682 -0.1835
 5170TIP3    H136925   4.127   4.085   2.311 -0.5646 -0.8769  0.0824
 5170TIP3    H236926   4.261   4.092   2.380  0.5467  1.2312 -2.1678
 5171TIP3   OH236927   1.386   0.971  13.258 -0.7898  0.7727 -0.2690
 5171TIP3    H136928   1.452   0.985  13.189 -1.7441  2.9909 -0.8384
 5171TIP3    H236929   1.302   0.979  13.213 -1.5145 -1.5671  0.5246
 5172TIP3   OH236930   0.941   3.491  13.327  0.9025  0.0129 -0.1337
 5172TIP3    H136931   0.981   3.451  13.404 -2.4700 -0.1607  1.7490
 5172TIP3    H236932   0.918   3.417  13.270  0.2928 -0.2078  0.3850
 5173TIP3   OH236933   2.176   3.596  13.897 -0.3062  0.4931  0.0220
 5173TIP3    H136934   2.155   3.594  13.803 -0.4332  1.4232  0.0224
 5173TIP3    H236935   2.097   3.563  13.940  0.1517 -1.0287 -0.2396
 5174TIP3   OH236936   5.947   3.387  13.173 -0.1215 -0.1564 -0.2175
 5174TIP3    H136937   6.020   3.328  13.190  1.5063  0.4297 -4.1045
 5174TIP3    H236938   5.876   3.330  13.143 -0.5347 -0.5223  1.3671
 5175TIP3   OH236939   5.606   5.200  10.789 -0.1525 -0.0791  0.2724
 5175TIP3    H136940   5.618   5.113  10.825 -1.3291  0.1612  1.3137
 5175TIP3    H236941   5.682   5.250  10.821 -0.3234 -0.3033  1.0531
 5176TIP3   OH236942   3.572   2.576   2.839 -0.3011  0.0314 -0.0442
 5176TIP3    H136943   3.561   2.664   2.874  1.0713 -0.2779  1.2929
 5176TIP3    H236944   3.667   2.562   2.837 -0.4687 -1.1591 -0.9002
 5177TIP3   OH236945   1.659   2.685  12.388  0.2136 -0.5735 -0.2276
 5177TIP3    H136946   1.652   2.600  12.346  0.9011 -0.8881  0.2681
 5177TIP3    H236947   1.706   2.668  12.470 -1.0224  0.0262  0.6482
 5178TIP3   OH236948   1.858   3.094   5.312 -0.6871  0.4881 -0.1247
 5178TIP3    H136949   1.825   3.048   5.390 -1.8135  0.8756 -0.3498
 5178TIP3    H236950   1.863   3.027   5.245 -3.0045  0.7698 -0.6506
 5179TIP3   OH236951   5.120   2.064   5.982  0.3193 -0.0572 -0.6560
 5179TIP3    H136952   5.204   2.092   6.020  1.2779 -1.4505 -1.6220
 5179TIP3    H236953   5.099   1.983   6.028 -1.8223  1.4809  1.2973
 5180TIP3   OH236954   4.292   6.717   3.887 -0.0007 -0.3236  0.5115
 5180TIP3    H136955   4.218   6.776   3.869 -0.1453 -0.6066  0.1662
 5180TIP3    H236956   4.365   6.756   3.839 -0.2217 -0.7006 -0.1563
 5181TIP3   OH236957   3.253   1.362  14.049  0.1158  0.3536  0.1339
 5181TIP3    H136958   3.280   1.321  13.967 -0.1394 -0.2823  0.3549
 5181TIP3    H236959   3.234   1.453  14.026  0.3195  0.2527 -0.4508
 5182TIP3   OH236960   4.418   3.972   0.156  0.8700  0.1799  0.4688
 5182TIP3    H136961   4.497   3.974   0.100 -0.3189 -0.4952 -1.3268
 5182TIP3    H236962   4.445   3.921   0.232  2.4791  0.8666  0.4058
 5183TIP3   OH236963   0.844   1.348  13.039 -0.0713  0.2052  0.2239
 5183TIP3    H136964   0.929   1.331  13.081  0.1875 -1.5808 -0.8984
 5183TIP3    H236965   0.782   1.296  13.091 -0.0412 -0.5234 -0.4426
 5184TIP3   OH236966   3.116   5.360  16.041 -0.6157  0.3516 -0.3345
 5184TIP3    H136967   3.129   5.265  16.035 -0.0409  0.3962  0.1337
 5184TIP3    H236968   3.021   5.370  16.049 -1.0385 -0.0017 -3.5816
 5185TIP3   OH236969   0.830   4.460  15.609 -0.4675  0.3492 -0.9196
 5185TIP3    H136970   0.804   4.371  15.634 -1.3023  0.0746 -2.6398
 5185TIP3    H236971   0.899   4.447  15.544 -0.2605  0.9708 -0.8268
 5186TIP3   OH236972   5.914   4.717   0.063  0.7512  0.5816 -0.6039
 5186TIP3    H136973   5.998   4.671   0.065  0.5622  0.2171 -0.8845
 5186TIP3    H236974   5.895   4.727  -0.031 -0.0328 -0.3008 -0.5572
 5187TIP3   OH236975   0.686   2.313  10.649  0.5391 -0.4466 -0.3558
 5187TIP3    H136976   0.650   2.401  10.643  1.8417  0.1681  0.5859
 5187TIP3    H236977   0.766   2.316  10.598  0.1417 -1.3528 -1.0653
 5188TIP3   OH236978   4.108   6.276   0.310  0.3330  0.1343  0.1713
 5188TIP3    H136979   4.014   6.294   0.318  0.1871 -0.5486  0.0808
 5188TIP3    H236980   4.150   6.361   0.321 -0.3121  0.4882 -0.0455
 5189TIP3   OH236981   1.241   3.459   6.420  0.3174 -0.2770  0.2584
 5189TIP3    H136982   1.246   3.542   6.468  0.2251 -0.1013 -0.0337
 5189TIP3    H236983   1.150   3.432   6.430  0.5040 -0.6892  0.9250
 5190TIP3   OH236984   1.036   3.639  15.650  0.5101  0.1276  0.5417
 5190TIP3    H136985   1.123   3.655  15.614 -0.9236 -0.5639 -3.7784
 5190TIP3    H236986   0.978   3.695  15.599 -1.8632 -1.2286  1.5838
 5191TIP3   OH236987   6.592   5.210   5.301 -0.5466 -0.1251  0.5977
 5191TIP3    H136988   6.682   5.181   5.316  0.1962  1.7062  0.0042
 5191TIP3    H236989   6.569   5.257   5.381 -0.5259  0.4415  0.2730
 5192TIP3   OH236990   0.441   5.802   5.303  0.6635 -0.8927  0.5109
 5192TIP3    H136991   0.482   5.725   5.264  1.3057 -1.0489  1.4788
 5192TIP3    H236992   0.495   5.823   5.379  1.0769  1.1126 -0.2802
 5193TIP3   OH236993   4.383   6.031  15.186  0.4358  0.1070 -0.2186
 5193TIP3    H136994   4.387   6.093  15.259 -2.2398 -0.1806  0.3038
 5193TIP3    H236995   4.474   6.008  15.168  1.2186 -0.1019  3.3033
 5194TIP3   OH236996   1.267   5.407  15.087 -0.0760 -0.1135  0.1728
 5194TIP3    H136997   1.333   5.396  15.019 -0.8425  2.1738 -1.0337
 5194TIP3    H236998   1.297   5.352  15.159  1.7098 -1.1990 -1.3320
 5195TIP3   OH236999   5.161   4.204  15.754  0.1290  0.8521  0.2366
 5195TIP3    H137000   5.075   4.211  15.712  0.2731  0.6263 -0.0986
 5195TIP3    H237001   5.215   4.270  15.711  0.4895  0.1142 -0.4615
 5196TIP3   OH237002   0.752   2.301  15.522  0.4492 -0.0259 -0.5525
 5196TIP3    H137003   0.720   2.362  15.457  0.3095  0.3252 -0.1608
 5196TIP3    H237004   0.780   2.356  15.595  1.8784 -0.3290 -0.8523
 5197TIP3   OH237005   0.922   6.092   5.494 -0.0036  0.3485 -0.2152
 5197TIP3    H137006   0.901   6.164   5.553 -0.4143 -0.2903  0.4350
 5197TIP3    H237007   1.017   6.095   5.485 -0.0045  0.8985 -0.1118
 5198TIP3   OH237008   1.430   3.130  13.626 -0.3486  0.4792  0.0194
 5198TIP3    H137009   1.468   3.196  13.685  0.0037 -0.2819  0.6606
 5198TIP3    H237010   1.503   3.106  13.569 -0.1686 -0.1472  0.5038
 5199TIP3   OH237011   1.996   1.617   6.645 -0.2050  0.2206  0.0727
 5199TIP3    H137012   1.962   1.567   6.720  0.7658 -0.7830 -0.1278
 5199TIP3    H237013   1.996   1.708   6.675  2.4346 -0.3589  2.2687
 5200TIP3   OH237014   1.478   0.776   1.201  0.0386 -0.3759 -0.2629
 5200TIP3    H137015   1.522   0.790   1.285 -1.2413 -0.8670  0.5124
 5200TIP3    H237016   1.473   0.863   1.162 -2.4384  0.5229  1.7762
 5201TIP3   OH237017   5.647   0.114   2.605 -0.1888  0.2466  0.4112
 5201TIP3    H137018   5.661   0.052   2.533 -0.6927 -1.3019  1.5890
 5201TIP3    H237019   5.729   0.112   2.654 -0.3279  0.2556  0.6451
 5202TIP3   OH237020   6.502   4.657  11.505 -0.0008 -0.3175  0.3729
 5202TIP3    H137021   6.514   4.669  11.410 -1.1706  1.4396  0.3808
 5202TIP3    H237022   6.420   4.609  11.512 -0.8315  1.0455  0.4664
 5203TIP3   OH237023   5.812   1.602  12.015 -0.0635 -0.2002  0.1362
 5203TIP3    H137024   5.851   1.647  11.940  1.9775 -1.2639  0.4876
 5203TIP3    H237025   5.866   1.628  12.090 -0.7536 -0.8167  0.8692
 5204TIP3   OH237026   3.151   1.032   6.098  0.4818 -0.1573 -0.2259
 5204TIP3    H137027   3.131   0.962   6.160  1.3235  0.4853  0.7983
 5204TIP3    H237028   3.231   1.004   6.054  2.0213  1.0555  1.6713
 5205TIP3   OH237029   5.081   5.969   4.778 -0.2857 -0.0107  0.2765
 5205TIP3    H137030   5.106   6.051   4.819 -2.0425  0.9838 -0.4945
 5205TIP3    H237031   5.019   5.995   4.709 -2.1099 -2.0800  1.0205
 5206TIP3   OH237032   4.745   2.648  16.921 -0.2728 -0.1890  0.2031
 5206TIP3    H137033   4.760   2.572  16.977 -0.8359 -2.8734 -2.9687
 5206TIP3    H237034   4.650   2.655  16.915 -0.2210 -0.0940 -0.5577
 5207TIP3   OH237035   2.809   2.517  12.884 -0.6915  0.1140 -0.4196
 5207TIP3    H137036   2.788   2.426  12.866 -0.3415 -0.5404  2.0850
 5207TIP3    H237037   2.890   2.534  12.836  1.5583 -2.2261  2.2379
 5208TIP3   OH237038   2.129   1.138   1.213  0.2207  0.5067 -0.3886
 5208TIP3    H137039   2.139   1.080   1.137 -1.4022 -1.4530  0.8060
 5208TIP3    H237040   2.200   1.201   1.204  1.8965 -1.4734 -1.9265
 5209TIP3   OH237041   4.749   3.154   5.922  0.3575 -0.3909 -0.2004
 5209TIP3    H137042   4.658   3.163   5.951 -0.0278 -0.8032 -1.2408
 5209TIP3    H237043   4.801   3.179   5.999 -0.6176  1.0535  0.0358
 5210TIP3   OH237044   5.514   3.362  13.251  0.1623  0.1790  0.4705
 5210TIP3    H137045   5.441   3.339  13.193 -2.7062 -1.7798  4.3716
 5210TIP3    H237046   5.552   3.278  13.276 -0.0290  0.7245  2.8426
 5211TIP3   OH237047   5.376   1.377  15.141  0.2838  0.0223  0.2960
 5211TIP3    H137048   5.430   1.456  15.142 -0.0074  0.3733 -2.4186
 5211TIP3    H237049   5.311   1.392  15.209  1.4297  1.2091  1.1963
 5212TIP3   OH237050   6.340   5.188   5.184  0.4531 -0.2958  0.0422
 5212TIP3    H137051   6.349   5.227   5.097  0.0581  1.1533  0.6182
 5212TIP3    H237052   6.425   5.205   5.226  0.2608  0.0246  0.3122
 5213TIP3   OH237053   6.496   1.650   2.251 -0.1385  0.2537  0.2505
 5213TIP3    H137054   6.559   1.597   2.299 -0.8611  0.6371  1.6790
 5213TIP3    H237055   6.445   1.586   2.200  0.3069 -0.2140  0.3811
 5214TIP3   OH237056   0.258   2.397  13.420  0.2591 -0.9625 -0.3450
 5214TIP3    H137057   0.204   2.361  13.489  1.3439 -0.8887  0.5766
 5214TIP3    H237058   0.319   2.327  13.397  0.6532 -0.6089 -0.4087
 5215TIP3   OH237059   1.003   0.089  13.261 -0.0866 -0.2111  0.2845
 5215TIP3    H137060   1.047   0.006  13.278 -0.7348 -0.7683 -0.6878
 5215TIP3    H237061   1.074   0.153  13.256  0.7122 -1.1486 -1.6086
 5216TIP3   OH237062   6.044   2.204  13.429  0.6101 -0.3485 -0.1019
 5216TIP3    H137063   5.956   2.243  13.426  0.3258 -1.0078 -0.6726
 5216TIP3    H237064   6.028   2.110  13.414  1.5028 -0.3414 -1.1551
 5217TIP3   OH237065   3.467   2.808   3.681 -0.2332  0.0841 -0.0450
 5217TIP3    H137066   3.540   2.768   3.635 -1.0555 -3.1256  1.1898
 5217TIP3    H237067   3.480   2.902   3.669  1.8889 -0.4492 -3.1341
 5218TIP3   OH237068   6.267   4.257  12.819  0.2813  0.3353 -0.8960
 5218TIP3    H137069   6.329   4.238  12.748 -0.1007  0.1407 -1.1810
 5218TIP3    H237070   6.235   4.171  12.846  0.8470  0.3614 -0.0938
 5219TIP3   OH237071   5.501   4.517   3.480 -0.1081 -0.3586  0.5805
 5219TIP3    H137072   5.508   4.600   3.433 -1.0466 -1.2929 -1.3191
 5219TIP3    H237073   5.592   4.489   3.491  0.1584 -0.0465 -0.6285
 5220TIP3   OH237074   0.587   5.199   1.841 -0.1507 -0.1030 -0.3143
 5220TIP3    H137075   0.569   5.173   1.931  0.2692  0.8134  0.0459
 5220TIP3    H237076   0.557   5.125   1.788 -0.6450 -0.5366  0.5561
 5221TIP3   OH237077   1.882   5.222  16.889  0.3244  0.6798 -0.3387
 5221TIP3    H137078   1.862   5.138  16.848  1.1577  1.0546 -1.5544
 5221TIP3    H237079   1.813   5.281  16.858  1.9266  1.4289 -2.8036
 5222TIP3   OH237080   5.666   1.195   0.112 -0.2909  0.1494 -0.2622
 5222TIP3    H137081   5.572   1.180   0.110 -0.3652  0.5782 -2.3442
 5222TIP3    H237082   5.699   1.134   0.178 -1.9391 -0.5049 -0.0111
 5223TIP3   OH237083   6.042   0.565   5.049  0.1938  0.1283 -0.0722
 5223TIP3    H137084   6.077   0.535   5.133 -0.4179  0.3387  0.2672
 5223TIP3    H237085   6.052   0.490   4.991 -0.5071 -0.4510  0.5280
 5224TIP3   OH237086   0.365   1.954  13.163  0.5764  0.1290  0.0634
 5224TIP3    H137087   0.416   2.035  13.163 -0.7081  0.9769  0.1152
 5224TIP3    H237088   0.374   1.921  13.253  1.3819  0.0166 -0.0484
 5225TIP3   OH237089   2.314   0.829   1.528  0.3697  0.4254 -0.2968
 5225TIP3    H137090   2.315   0.902   1.466 -0.4240  0.3092 -0.4578
 5225TIP3    H237091   2.355   0.864   1.607  0.6116  0.8368 -0.6048
 5226TIP3   OH237092   1.850   0.259  14.851  0.2075  0.3098 -0.0404
 5226TIP3    H137093   1.886   0.283  14.766  1.6432  0.1235  0.4848
 5226TIP3    H237094   1.816   0.341  14.887 -2.0687  0.0991 -1.4914
 5227TIP3   OH237095   5.319   1.964  12.224  0.1395 -0.1093 -0.1479
 5227TIP3    H137096   5.381   1.919  12.166  0.0792 -0.4604  0.0590
 5227TIP3    H237097   5.352   1.947  12.312 -0.3476 -0.4490 -0.0296
 5228TIP3   OH237098   0.446   3.003   1.534 -0.0632  0.3956  0.1361
 5228TIP3    H137099   0.419   2.931   1.591  1.7492  0.6795  1.4425
 5228TIP3    H237100   0.377   3.068   1.542 -1.2060 -0.7287 -0.2282
 5229TIP3   OH237101   5.892   1.324  11.927  0.2532  0.0759  0.2279
 5229TIP3    H137102   5.850   1.324  12.013  2.6171 -0.4736  1.4800
 5229TIP3    H237103   5.896   1.232  11.902 -1.4082  0.3122 -1.0426
 5230TIP3   OH237104   5.732   2.942  11.452  0.0976  0.5513  0.0013
 5230TIP3    H137105   5.670   2.882  11.409  1.0705 -1.1082  0.8190
 5230TIP3    H237106   5.774   2.988  11.379 -1.3961  1.0131 -0.6033
 5231TIP3   OH237107   6.657   0.255  13.612 -0.4697  0.5228 -0.0108
 5231TIP3    H137108   6.699   0.188  13.559 -2.8865 -0.6518 -0.5889
 5231TIP3    H237109   6.707   0.256  13.694  0.6636 -0.7320 -0.6566
 5232TIP3   OH237110   6.193   4.401   2.241  0.3002  0.3026 -0.5340
 5232TIP3    H137111   6.234   4.375   2.158  0.6302  1.4641 -0.7460
 5232TIP3    H237112   6.255   4.373   2.308  0.2192 -0.2792 -0.6964
 5233TIP3   OH237113   6.621   5.687  13.212  0.2406 -0.5320  0.0079
 5233TIP3    H137114   6.640   5.621  13.279  0.4838  0.1872  0.6665
 5233TIP3    H237115   6.698   5.687  13.155  0.9316  0.2327  0.8968
 5234TIP3   OH237116   4.912   5.414   2.806  0.5520  0.9631 -0.3280
 5234TIP3    H137117   4.969   5.423   2.882  1.6020  0.9805 -1.0944
 5234TIP3    H237118   4.968   5.377   2.738 -1.2616 -2.8056 -0.0370
 5235TIP3   OH237119   0.288   0.838  16.529 -0.1705 -0.2802 -0.1114
 5235TIP3    H137120   0.270   0.869  16.440 -0.1787  0.0744  0.0122
 5235TIP3    H237121   0.339   0.909  16.569  0.2037 -0.6210  0.0265
 5236TIP3   OH237122   6.680   4.045   1.299  0.0037 -0.4695  0.3725
 5236TIP3    H137123   6.601   3.990   1.297  0.6228 -1.3479 -0.4177
 5236TIP3    H237124   6.646   4.134   1.291 -0.9076 -0.8441 -0.1368
 5237TIP3   OH237125   1.957   6.794   5.814 -0.3164  0.2009 -0.6623
 5237TIP3    H137126   2.035   6.740   5.803  0.3433  0.7484  0.9884
 5237TIP3    H237127   1.885   6.735   5.792  0.5040 -0.5959 -1.3168
 5238TIP3   OH237128   5.361   0.878  13.259  0.0312  0.3801  0.2736
 5238TIP3    H137129   5.447   0.854  13.225 -0.0837 -1.5510  1.2321
 5238TIP3    H237130   5.380   0.934  13.335  0.3593  1.5433 -0.6306
 5239TIP3   OH237131   1.274   5.903   2.021 -0.0295  0.0926 -0.0864
 5239TIP3    H137132   1.324   5.879   2.098  0.6326  0.1615 -0.4862
 5239TIP3    H237133   1.231   5.821   1.994 -0.8364  0.2275  0.7547
 5240TIP3   OH237134   2.101   2.592  11.564  0.1997 -0.2529 -0.1129
 5240TIP3    H137135   2.101   2.504  11.602 -0.2551  0.3752  1.4246
 5240TIP3    H237136   2.174   2.591  11.502  0.5515 -1.5328  0.2870
 5241TIP3   OH237137   0.325   2.830  14.834  0.1500  0.1948  0.3247
 5241TIP3    H137138   0.290   2.745  14.863 -1.6151  0.3135 -1.2706
 5241TIP3    H237139   0.296   2.838  14.743 -0.4721  2.8915  0.6809
 5242TIP3   OH237140   5.957   3.110  12.244 -0.0806 -0.3932  0.1613
 5242TIP3    H137141   5.908   3.028  12.241 -1.4224  0.3873 -0.2218
 5242TIP3    H237142   5.892   3.177  12.224  1.2459  0.6700 -0.7635
 5243TIP3   OH237143   4.469   0.547  15.883  0.2148 -0.1864 -0.1051
 5243TIP3    H137144   4.559   0.539  15.852 -0.3211 -0.6093 -1.6441
 5243TIP3    H237145   4.447   0.639  15.869  0.5941  0.0686  0.8779
 5244TIP3   OH237146   4.489   2.088   5.807 -0.1246 -0.1985 -0.2698
 5244TIP3    H137147   4.465   2.108   5.898  0.8729  0.9095 -0.2168
 5244TIP3    H237148   4.406   2.074   5.763 -0.8446  2.0898  0.1998
 5245TIP3   OH237149   6.303   4.110   5.192 -0.6008 -0.4118 -0.6583
 5245TIP3    H137150   6.230   4.158   5.153  0.9414  0.7393 -2.2881
 5245TIP3    H237151   6.381   4.158   5.165  0.8035 -1.6404  0.9507
 5246TIP3   OH237152   5.234   1.257   6.421  0.1646 -0.1050  0.1759
 5246TIP3    H137153   5.219   1.243   6.514 -0.9565 -1.0056 -0.1121
 5246TIP3    H237154   5.266   1.347   6.415 -1.4942  0.6111  1.2665
 5247TIP3   OH237155   2.816   4.719   2.791  0.1173 -0.5683 -0.0705
 5247TIP3    H137156   2.810   4.691   2.882  1.3697 -2.0098 -0.3936
 5247TIP3    H237157   2.886   4.665   2.753 -0.2294  0.1325 -1.8312
 5248TIP3   OH237158   0.421   4.122  10.955  0.2190 -0.2069 -0.2707
 5248TIP3    H137159   0.401   4.189  10.889  0.7698  1.2656  0.9997
 5248TIP3    H237160   0.335   4.086  10.979 -0.4512  2.0277  1.0006
 5249TIP3   OH237161   2.640   5.053   4.155  0.1461 -0.0369 -0.0459
 5249TIP3    H137162   2.730   5.084   4.161  0.3000 -0.5826  0.4853
 5249TIP3    H237163   2.648   4.961   4.130 -0.1155 -1.0938  3.3251
 5250TIP3   OH237164   2.529   0.270  15.544  0.7173  0.4323  0.0200
 5250TIP3    H137165   2.470   0.253  15.617 -1.4432  0.9271 -1.5167
 5250TIP3    H237166   2.607   0.217  15.563 -1.0227 -1.9018  1.1509
 5251TIP3   OH237167   1.553   6.113  12.755 -0.2925  0.3681  0.8410
 5251TIP3    H137168   1.497   6.164  12.697  0.5758  3.0106  2.1734
 5251TIP3    H237169   1.642   6.143  12.736  0.0227  1.2410  3.3865
 5252TIP3   OH237170   2.225   5.211   2.027  0.3018 -0.2819 -0.1350
 5252TIP3    H137171   2.285   5.146   2.064  0.1426 -0.5843 -0.4147
 5252TIP3    H237172   2.168   5.162   1.969 -0.8507 -0.1534  0.8597
 5253TIP3   OH237173   3.757   3.001   3.117 -0.0467 -0.1813 -0.1985
 5253TIP3    H137174   3.821   2.931   3.099 -0.8652 -0.6907 -1.2882
 5253TIP3    H237175   3.681   2.955   3.152  0.6181  0.5655  2.3859
 5254TIP3   OH237176   1.931   1.425   3.230 -0.0940  0.0322  0.1972
 5254TIP3    H137177   1.869   1.410   3.301 -0.2883  1.3330  0.3336
 5254TIP3    H237178   2.016   1.400   3.267 -0.7140 -4.4683 -0.8703
 5255TIP3   OH237179   6.775   0.671  15.417 -0.2008 -0.4662  0.4099
 5255TIP3    H137180   6.777   0.766  15.408 -1.8978 -0.4902 -0.8100
 5255TIP3    H237181   6.752   0.655  15.509 -1.0077  0.3485  0.3622
 5256TIP3   OH237182   6.498   6.495  16.671 -0.5545  0.4598 -0.4067
 5256TIP3    H137183   6.456   6.581  16.681 -0.4323  0.2992  1.8101
 5256TIP3    H237184   6.425   6.433  16.674 -0.4594  0.3710  0.0868
 5257TIP3   OH237185   1.216   2.446   4.185 -0.1630  0.1379 -0.6324
 5257TIP3    H137186   1.165   2.512   4.138 -1.0480 -1.0525 -1.4203
 5257TIP3    H237187   1.235   2.485   4.270 -2.1702  0.7414 -0.4243
 5258TIP3   OH237188   6.354   5.217  11.155  0.4802 -0.4133 -0.1846
 5258TIP3    H137189   6.442   5.210  11.119  1.3701  2.6621  1.0348
 5258TIP3    H237190   6.301   5.252  11.084  1.3075  1.8058  0.2074
 5259TIP3   OH237191   2.859   3.574  13.572 -0.2040  0.4591 -1.0899
 5259TIP3    H137192   2.857   3.652  13.517 -3.6103  1.4005  0.1663
 5259TIP3    H237193   2.797   3.514  13.531  1.2358 -1.0402 -1.1799
 5260TIP3   OH237194   3.301   6.473   3.272 -0.0914 -0.4895 -0.5149
 5260TIP3    H137195   3.229   6.518   3.228 -2.1030 -0.9980  2.0180
 5260TIP3    H237196   3.265   6.446   3.356  3.1888 -0.4698  1.0647
 5261TIP3   OH237197   2.418   0.964  13.233  0.0868  0.2349 -0.2338
 5261TIP3    H137198   2.509   0.937  13.218 -0.0886  0.0347 -0.9614
 5261TIP3    H237199   2.393   0.921  13.315  0.7287  0.5077  0.1143
 5262TIP3   OH237200   0.480   1.696   4.837  0.4294 -0.5965 -0.5493
 5262TIP3    H137201   0.389   1.724   4.842 -0.3595 -3.1410  2.0545
 5262TIP3    H237202   0.525   1.750   4.902  0.7669  0.4619 -1.6332
 5263TIP3   OH237203   1.653   0.449   6.159 -0.1556  0.0409 -0.0196
 5263TIP3    H137204   1.625   0.497   6.081 -2.6211 -0.7254  0.3231
 5263TIP3    H237205   1.728   0.499   6.192  0.8726  0.4581 -2.7543
 5264TIP3   OH237206   1.417   2.280   4.047 -0.1237  0.5931 -0.0061
 5264TIP3    H137207   1.341   2.249   3.997  0.4165 -0.0402 -0.4383
 5264TIP3    H237208   1.390   2.367   4.078 -0.7802  0.6590 -0.7096
 5265TIP3   OH237209   4.892   1.909  14.314  0.1170 -0.7502  0.2668
 5265TIP3    H137210   4.916   1.822  14.281 -0.2420 -0.7360 -0.0449
 5265TIP3    H237211   4.797   1.915  14.298 -0.0552 -0.7142  1.2345
 5266TIP3   OH237212   3.155   4.293   1.703 -0.0358 -0.3030 -0.0232
 5266TIP3    H137213   3.149   4.358   1.633 -0.2289 -1.2889 -0.9540
 5266TIP3    H237214   3.104   4.218   1.671  0.6479 -1.1350  0.7713
 5267TIP3   OH237215   1.086   6.373   2.403 -0.1745  0.0800 -0.3944
 5267TIP3    H137216   1.079   6.320   2.483 -2.1373  1.0570  0.1291
 5267TIP3    H237217   1.063   6.461   2.431  0.4426  0.7018 -1.7953
 5268TIP3   OH237218   3.331   2.362  14.226  0.3344 -0.0158  0.0849
 5268TIP3    H137219   3.248   2.336  14.186  0.4901  0.1020 -0.3209
 5268TIP3    H237220   3.384   2.282  14.225  0.6970  0.2134 -0.8680
 5269TIP3   OH237221   2.242   1.839  15.408  0.3176 -0.1619 -0.3879
 5269TIP3    H137222   2.177   1.904  15.433  1.5925  1.0473 -0.0820
 5269TIP3    H237223   2.191   1.764  15.377 -1.2240  0.0197  1.5775
 5270TIP3   OH237224   1.424   4.847   3.295 -0.2485  0.0639  0.0131
 5270TIP3    H137225   1.486   4.786   3.254  0.9835  1.6801 -0.6240
 5270TIP3    H237226   1.428   4.826   3.388  2.7804  1.3407  0.2764
 5271TIP3   OH237227   0.458   3.684   1.588  0.2039  0.0055  0.1935
 5271TIP3    H137228   0.506   3.633   1.654  0.9688  2.0047  1.2623
 5271TIP3    H237229   0.421   3.757   1.637 -0.5349  0.6976 -1.3552
 5272TIP3   OH237230   2.566   3.420   0.948  0.0349  0.6619 -0.3628
 5272TIP3    H137231   2.533   3.334   0.920 -0.3205  0.3535  0.9568
 5272TIP3    H237232   2.660   3.415   0.935  0.3672 -0.8885  2.0277
 5273TIP3   OH237233   1.360   5.853   5.128 -0.2768  0.2282  0.2987
 5273TIP3    H137234   1.374   5.763   5.098 -0.6430 -0.1415  1.1971
 5273TIP3    H237235   1.298   5.890   5.065  0.2493  0.0212 -0.3604
 5274TIP3   OH237236   6.727   6.787  11.451 -0.0493 -0.6144  0.3817
 5274TIP3    H137237   6.782   6.859  11.419  1.2553 -2.1597 -1.0363
 5274TIP3    H237238   6.668   6.829  11.514  2.2152  1.2952  1.4363
 5275TIP3   OH237239   0.640   0.712  15.079  0.2251  0.1553  0.0659
 5275TIP3    H137240   0.619   0.711  14.986  2.1239 -1.0173 -0.4211
 5275TIP3    H237241   0.560   0.683  15.123 -0.3124 -0.5060 -1.3136
 5276TIP3   OH237242   6.352   6.221   4.312  0.0401  0.3729  0.2686
 5276TIP3    H137243   6.371   6.304   4.269  1.6588  0.8465  1.8012
 5276TIP3    H237244   6.407   6.157   4.267 -0.9793  0.1419 -0.7074
 5277TIP3   OH237245   4.647   1.521  14.828  0.7259  0.0148 -0.1179
 5277TIP3    H137246   4.715   1.471  14.782  0.3765 -0.0408 -0.5782
 5277TIP3    H237247   4.597   1.563  14.758 -0.4344 -0.8749  0.1557
 5278TIP3   OH237248   5.378   3.776  15.990  0.4960  0.2098 -0.3821
 5278TIP3    H137249   5.352   3.862  15.957  1.3332  0.5186 -0.2717
 5278TIP3    H237250   5.468   3.765  15.959 -0.2821 -1.5773 -2.2164
 5279TIP3   OH237251   1.282   1.216   5.364  0.1052  0.7609  0.0350
 5279TIP3    H137252   1.198   1.220   5.410  1.3055  2.4206  2.2344
 5279TIP3    H237253   1.340   1.168   5.423  0.9896  0.5470 -0.9783
 5280TIP3   OH237254   5.342   4.301  15.543  0.2096 -0.3117  0.7471
 5280TIP3    H137255   5.304   4.323  15.458 -0.3803 -0.0688  1.0696
 5280TIP3    H237256   5.415   4.362  15.553  0.9193 -1.0070 -0.0267
 5281TIP3   OH237257   6.226   3.149  15.549 -0.1521 -0.1815  0.2419
 5281TIP3    H137258   6.320   3.134  15.558 -0.2709 -0.5207  0.9786
 5281TIP3    H237259   6.209   3.227  15.602 -0.0840  0.6864 -0.9534
 5282TIP3   OH237260   0.997   5.437   4.836  0.4419  0.0495  0.2721
 5282TIP3    H137261   0.972   5.442   4.744 -1.1118 -0.0841  0.6500
 5282TIP3    H237262   1.085   5.474   4.839  0.3276  0.5146 -1.1887
 5283TIP3   OH237263   4.786   4.341  13.228 -0.4799  0.2807 -0.5674
 5283TIP3    H137264   4.796   4.410  13.294  1.5354 -1.4839  1.0930
 5283TIP3    H237265   4.845   4.366  13.158 -0.4298  0.6927 -0.3807
 5284TIP3   OH237266   0.021   1.990  13.246  0.3076  0.2087  0.4202
 5284TIP3    H137267   0.040   1.901  13.274  0.2186 -0.3686 -1.2789
 5284TIP3    H237268  -0.024   2.029  13.321  0.5369 -1.0858  1.2706
 5285TIP3   OH237269   6.484   1.678  16.815  0.5408 -0.1353  0.1882
 5285TIP3    H137270   6.462   1.587  16.795 -1.3573  0.2628  0.2933
 5285TIP3    H237271   6.492   1.680  16.911 -0.1095 -0.0519  0.2418
 5286TIP3   OH237272   4.738   0.044   6.629 -0.2606  0.0558  0.2912
 5286TIP3    H137273   4.801   0.068   6.562  0.7420 -0.6574  0.9467
 5286TIP3    H237274   4.673   0.115   6.628  1.1149  1.3781  0.3086
 5287TIP3   OH237275   5.213   3.604   1.824  0.3455 -0.2644 -0.8946
 5287TIP3    H137276   5.265   3.675   1.860 -0.2689 -0.0000 -0.5043
 5287TIP3    H237277   5.270   3.528   1.827  1.1895  0.3126 -1.7964
 5288TIP3   OH237278   6.716   4.355   1.937 -0.1023 -0.7218 -0.0855
 5288TIP3    H137279   6.801   4.394   1.916 -0.6403  0.4437 -0.1470
 5288TIP3    H237280   6.738   4.277   1.988  1.0004 -0.0663  0.4916
 5289TIP3   OH237281   6.476   3.951  15.587  0.4438  0.0298 -0.4867
 5289TIP3    H137282   6.529   3.920  15.660 -1.5939  0.5092  1.2979
 5289TIP3    H237283   6.498   3.893  15.514  3.6840  0.5101 -0.0050
 5290TIP3   OH237284   6.313   1.997   0.009 -0.4279  0.3789  0.1912
 5290TIP3    H137285   6.345   2.068   0.066  1.1311  0.1469 -0.3340
 5290TIP3    H237286   6.344   1.917   0.052  1.1437  0.2209 -1.1458
 5291TIP3   OH237287   4.973   5.691   2.922 -0.0101 -0.0751 -0.1461
 5291TIP3    H137288   5.037   5.620   2.929 -0.9041 -0.8093  1.0708
 5291TIP3    H237289   4.988   5.745   2.999 -2.4009 -1.6635  1.5991
 5292TIP3   OH237290   5.189   0.421  14.902 -0.6258 -0.2026 -0.1046
 5292TIP3    H137291   5.261   0.379  14.949 -0.3467  1.2951  0.8671
 5292TIP3    H237292   5.188   0.511  14.934  0.5353  1.4283 -4.0427
 5293TIP3   OH237293   0.761   0.039  13.692 -0.4884 -0.2792 -0.2390
 5293TIP3    H137294   0.841   0.056  13.641 -0.7723  0.5257 -0.4398
 5293TIP3    H237295   0.694   0.094  13.650 -1.5213 -1.9876 -0.9642
 5294TIP3   OH237296   5.029   2.523   4.705 -0.3873  0.5300  0.2986
 5294TIP3    H137297   5.093   2.469   4.751 -0.3951 -0.5772 -0.9219
 5294TIP3    H237298   5.042   2.611   4.739  1.7087  0.3175  0.1660
 5295TIP3   OH237299   5.943   2.679  12.556 -0.0304  0.2251  0.3302
 5295TIP3    H137300   5.952   2.671  12.651  0.5220 -0.2619  0.2441
 5295TIP3    H237301   5.988   2.761  12.535  2.2750 -0.9752  0.1990
 5296TIP3   OH237302   2.136   2.685   2.971  0.1100  0.1420 -0.2739
 5296TIP3    H137303   2.217   2.725   2.939 -0.2360  2.1682  1.2406
 5296TIP3    H237304   2.140   2.595   2.938  1.8307  0.8484 -2.2121
 5297TIP3   OH237305   4.540   1.792  15.824 -0.2578  0.4130  0.3633
 5297TIP3    H137306   4.489   1.820  15.749  0.1570  0.1590 -0.0224
 5297TIP3    H237307   4.516   1.700  15.837 -0.4420  0.4988  0.6376
 5298TIP3   OH237308   2.527   4.408   1.308 -0.2008 -0.0168 -0.1349
 5298TIP3    H137309   2.454   4.373   1.360  0.4655  0.4967  1.2161
 5298TIP3    H237310   2.509   4.502   1.303  0.1313  0.0425 -0.1943
 5299TIP3   OH237311   3.183   0.356  11.801 -0.5903  0.0369  0.4193
 5299TIP3    H137312   3.211   0.267  11.777 -0.5976  0.3425 -0.7893
 5299TIP3    H237313   3.255   0.412  11.774 -1.0586  0.5053  0.1132
 5300TIP3   OH237314   1.248   3.981  11.415  0.9920  0.2848 -0.2351
 5300TIP3    H137315   1.238   4.021  11.501  0.5509 -0.1838 -0.0623
 5300TIP3    H237316   1.162   3.990  11.374  1.0005 -0.1339 -0.3476
 5301TIP3   OH237317   6.033   6.376  12.245  0.5400 -0.4210  0.1597
 5301TIP3    H137318   6.055   6.366  12.153 -0.5531  1.6612 -0.3965
 5301TIP3    H237319   6.115   6.403  12.287  1.1012 -1.6273 -0.1210
 5302TIP3   OH237320   6.777   6.047   2.260 -0.1530  0.2204 -0.1232
 5302TIP3    H137321   6.700   6.104   2.258 -1.1737 -1.1108 -0.1397
 5302TIP3    H237322   6.781   6.009   2.172  0.4019  0.1162 -0.0568
 5303TIP3   OH237323   6.709   0.488   4.837 -0.7086 -0.3664 -1.3279
 5303TIP3    H137324   6.685   0.579   4.855  1.6638 -0.1404  1.3154
 5303TIP3    H237325   6.638   0.437   4.874 -0.7685  0.3741 -0.3926
 5304TIP3   OH237326   4.447   2.690   2.032 -0.1901  0.0276 -0.1604
 5304TIP3    H137327   4.389   2.647   1.969  1.8352 -0.7109 -1.6245
 5304TIP3    H237328   4.393   2.699   2.111 -1.4991 -3.0747 -0.5199
 5305TIP3   OH237329   4.293   5.927   2.409  0.3901  0.4231  0.1393
 5305TIP3    H137330   4.304   5.950   2.316  1.1867  0.1556  0.1607
 5305TIP3    H237331   4.255   5.839   2.406  1.2811  0.0290  0.0564
 5306TIP3   OH237332   3.925   4.447  11.739  0.2500  0.2209  0.0778
 5306TIP3    H137333   3.848   4.421  11.790 -0.6122  2.9598  0.3180
 5306TIP3    H237334   3.995   4.455  11.803  0.3740 -0.7795  0.0871
 5307TIP3   OH237335   4.230   5.928   0.698 -0.3869  0.2572  0.0480
 5307TIP3    H137336   4.242   5.900   0.607  0.9429 -1.1364  0.6042
 5307TIP3    H237337   4.135   5.932   0.708 -0.6995 -2.7922 -0.5551
 5308TIP3   OH237338   6.278   3.532  10.697 -0.2962 -0.0717  0.1421
 5308TIP3    H137339   6.228   3.515  10.617  0.3204  2.0316 -0.7814
 5308TIP3    H237340   6.370   3.521  10.670 -0.1242 -0.2996  0.8182
 5309TIP3   OH237341   0.661   1.796   4.559  0.0338 -0.7012 -0.5844
 5309TIP3    H137342   0.631   1.887   4.547  2.2427  0.0944 -0.4361
 5309TIP3    H237343   0.720   1.800   4.634 -2.4116 -2.9439  1.6867
 5310TIP3   OH237344   3.028   0.348   4.257 -0.2842 -0.3058 -0.1151
 5310TIP3    H137345   3.038   0.306   4.343 -1.4007  0.8385  0.6171
 5310TIP3    H237346   2.968   0.292   4.209  0.4087 -0.9948 -0.1891
 5311TIP3   OH237347   1.954   6.076   5.961 -0.9505  0.1442  0.2740
 5311TIP3    H137348   1.996   6.049   6.043 -0.6132 -0.8163 -0.2055
 5311TIP3    H237349   1.861   6.060   5.975 -0.7847 -1.0189  0.0975
 5312TIP3   OH237350   1.683   0.937  15.487 -0.0978 -0.0832 -0.7568
 5312TIP3    H137351   1.640   0.900  15.565 -1.1077 -1.3795 -1.8791
 5312TIP3    H237352   1.741   0.867  15.457  3.0690  1.6728  0.8004
 5313TIP3   OH237353   6.359   1.402   2.529 -0.0930 -0.2458 -0.2363
 5313TIP3    H137354   6.309   1.381   2.450  0.9064  0.0164 -0.9585
 5313TIP3    H237355   6.385   1.317   2.564  2.2506 -0.3779 -2.0474
 5314TIP3   OH237356   5.271   1.713  15.109 -0.0721 -0.3634  0.6271
 5314TIP3    H137357   5.225   1.764  15.176 -1.2047 -1.2999  0.6074
 5314TIP3    H237358   5.349   1.680  15.153 -1.0265 -1.3466  1.6769
 5315TIP3   OH237359   5.288   4.459   0.137 -0.2851 -0.1517  0.3308
 5315TIP3    H137360   5.321   4.497   0.055 -1.1604 -1.5856 -0.7348
 5315TIP3    H237361   5.352   4.392   0.160 -0.3135 -0.1110  0.5295
 5316TIP3   OH237362   0.434   6.419   0.830 -0.2081 -0.0251  0.0527
 5316TIP3    H137363   0.488   6.462   0.897 -0.8913  0.6761  0.1659
 5316TIP3    H237364   0.491   6.411   0.754 -0.1844  1.4973 -0.1188
 5317TIP3   OH237365   1.666   3.202   0.248 -0.4454 -0.2182  0.1189
 5317TIP3    H137366   1.610   3.218   0.173  0.3911 -0.9039 -0.6793
 5317TIP3    H237367   1.711   3.120   0.227  1.0925  0.4698  0.5689
 5318TIP3   OH237368   1.412   0.187  12.807  0.4760 -0.1866  0.3625
 5318TIP3    H137369   1.424   0.100  12.769 -0.1376  0.4692 -1.4333
 5318TIP3    H237370   1.497   0.230  12.797  0.5117 -0.2558  0.3669
 5319TIP3   OH237371   6.120   0.137  14.032  0.0682 -0.0663 -0.1440
 5319TIP3    H137372   6.061   0.204  13.997 -0.0741  0.3096  0.7985
 5319TIP3    H237373   6.079   0.108  14.113  0.5261 -0.7352 -0.1452
 5320TIP3   OH237374   3.484   2.933  12.867 -0.1775 -0.5879 -0.5796
 5320TIP3    H137375   3.401   2.888  12.852 -0.6114  0.5280 -1.6280
 5320TIP3    H237376   3.480   2.959  12.959 -0.8194 -0.8857 -0.5156
 5321TIP3   OH237377   4.650   4.494   1.009  0.0290 -0.3333 -0.1203
 5321TIP3    H137378   4.653   4.589   1.024 -2.3489 -0.4411  1.5926
 5321TIP3    H237379   4.733   4.462   1.045  0.3541  0.9629  0.3618
 5322TIP3   OH237380   0.419   1.703  13.690 -0.4540  1.1637  0.0919
 5322TIP3    H137381   0.401   1.642  13.761 -0.9066  1.7531  0.4983
 5322TIP3    H237382   0.446   1.648  13.616 -3.0148  0.2717 -0.2633
 5323TIP3   OH237383   3.605   3.836   5.013 -0.4094 -0.0378 -0.6598
 5323TIP3    H137384   3.528   3.779   5.007 -0.5154  0.1201 -0.8020
 5323TIP3    H237385   3.626   3.839   5.106  0.3441 -1.3058 -0.7628
 5324TIP3   OH237386   1.384   2.328   2.860 -0.3596  0.2320 -0.1785
 5324TIP3    H137387   1.382   2.376   2.943 -1.2717 -0.4408  0.2101
 5324TIP3    H237388   1.303   2.353   2.816 -0.5568 -0.4742 -0.2339
 5325TIP3   OH237389   1.861   3.826  16.477  0.3504 -0.3935 -0.1553
 5325TIP3    H137390   1.806   3.785  16.543  0.4122  0.8475  0.6858
 5325TIP3    H237391   1.805   3.894  16.437  0.6884 -0.3464 -0.5618
 5326TIP3   OH237392   3.769   0.248   6.152 -0.3341 -0.6141 -0.1555
 5326TIP3    H137393   3.757   0.176   6.091  0.8753 -0.6863 -0.3142
 5326TIP3    H237394   3.694   0.306   6.135 -0.0877 -0.6921 -1.6167
 5327TIP3   OH237395   2.391   2.415   3.044  0.1002 -0.1826  0.5130
 5327TIP3    H137396   2.312   2.451   3.084  2.5000  2.4814  3.3347
 5327TIP3    H237397   2.423   2.486   2.987  0.8266 -0.9528 -0.0626
 5328TIP3   OH237398   4.331   6.138   0.405  0.4215  0.1050 -0.3787
 5328TIP3    H137399   4.243   6.174   0.392 -0.6618 -1.6686  1.3929
 5328TIP3    H237400   4.348   6.149   0.499  0.6627 -2.4627 -0.0467
 5329TIP3   OH237401   2.814   4.771   5.763  0.1887 -0.3387 -0.3206
 5329TIP3    H137402   2.895   4.790   5.810 -1.0234  1.1400  1.2918
 5329TIP3    H237403   2.813   4.676   5.754  2.3391 -0.3554 -0.9037
 5330TIP3   OH237404   2.752   3.784  14.326 -0.0792  0.5141  0.4034
 5330TIP3    H137405   2.718   3.702  14.292  0.1527  0.6584 -0.1918
 5330TIP3    H237406   2.832   3.799  14.276  0.5269  0.4892  1.3569
 5331TIP3   OH237407   1.402   3.498  17.000 -0.4738  0.7008 -0.1679
 5331TIP3    H137408   1.378   3.500  16.907  3.1534 -2.1086 -1.4205
 5331TIP3    H237409   1.338   3.439  17.040 -0.1144 -0.8125 -1.7163
 5332TIP3   OH237410   3.629   2.781   4.682 -0.5473 -0.8003  0.8729
 5332TIP3    H137411   3.696   2.729   4.638  1.2168  0.8071  1.5100
 5332TIP3    H237412   3.676   2.825   4.753 -2.6682 -0.9490  2.4569
 5333TIP3   OH237413   0.838   5.326  14.036 -0.2121  0.0666 -1.2891
 5333TIP3    H137414   0.912   5.354  13.981  0.4398  0.9724 -0.0084
 5333TIP3    H237415   0.876   5.261  14.095 -0.7059 -0.2713 -1.3395
 5334TIP3   OH237416   3.819   0.312  16.725  0.0367 -0.4878 -0.3589
 5334TIP3    H137417   3.896   0.322  16.781  1.6836 -0.0099 -2.5676
 5334TIP3    H237418   3.819   0.219  16.700  0.2453 -0.3702 -0.8071
 5335TIP3   OH237419   6.017   2.792  15.015 -0.4634 -0.2780  0.1732
 5335TIP3    H137420   6.085   2.727  15.002 -0.4400  0.0801 -1.8865
 5335TIP3    H237421   5.942   2.742  15.046  0.7879 -0.6140  2.8924
 5336TIP3   OH237422   1.430   6.353   0.053  0.1454 -0.3698 -0.0194
 5336TIP3    H137423   1.346   6.326   0.088 -0.0609  0.4402  0.1336
 5336TIP3    H237424   1.495   6.314   0.112 -0.0875 -1.5569 -0.5283
 5337TIP3   OH237425   0.488   0.808  11.177 -0.5640 -0.2234  0.1655
 5337TIP3    H137426   0.562   0.761  11.215 -0.2933  0.1367  0.0954
 5337TIP3    H237427   0.414   0.749  11.186  0.5312 -2.5611 -3.8014
 5338TIP3   OH237428   3.896   0.538   0.358  0.4829  0.1864  0.1100
 5338TIP3    H137429   3.938   0.460   0.322  1.3569  1.4899 -1.8935
 5338TIP3    H237430   3.969   0.593   0.387  0.0199  1.0442 -0.2808
 5339TIP3   OH237431   2.337   2.354   2.625 -0.4061 -0.0084  0.1701
 5339TIP3    H137432   2.313   2.264   2.646 -0.4374  0.3684  1.8612
 5339TIP3    H237433   2.398   2.346   2.552 -2.4059 -1.2359 -1.4875
 5340TIP3   OH237434   4.922   4.174  14.264  0.0227  0.2640 -0.2887
 5340TIP3    H137435   4.830   4.151  14.272  0.3183 -1.8106 -1.8048
 5340TIP3    H237436   4.955   4.175  14.354 -1.7777  2.8799  0.4632
 5341TIP3   OH237437   0.573   5.677   5.882 -0.3699 -0.1596  0.5081
 5341TIP3    H137438   0.661   5.666   5.919 -0.2531  0.7483  0.5117
 5341TIP3    H237439   0.515   5.629   5.942 -0.0941  0.6751  1.4534
 5342TIP3   OH237440   3.372   2.671  12.099  0.0096  0.6272  0.0011
 5342TIP3    H137441   3.362   2.734  12.028 -1.0248  1.0953  0.5180
 5342TIP3    H237442   3.315   2.598  12.075 -0.6346  0.9523  0.5074
 5343TIP3   OH237443   4.797   5.571  14.307  0.6502 -0.2794  0.0611
 5343TIP3    H137444   4.813   5.659  14.274  0.2584  0.2356  1.1604
 5343TIP3    H237445   4.717   5.542  14.262  0.4422  0.1762  0.1354
 5344TIP3   OH237446   4.106   4.314  14.705 -0.4569  0.1370 -0.0638
 5344TIP3    H137447   4.180   4.355  14.660  2.2547 -3.2623  0.9095
 5344TIP3    H237448   4.112   4.346  14.795 -0.8315  0.5893 -0.1904
 5345TIP3   OH237449   2.353   6.302   5.294 -1.3036  0.3303  0.5563
 5345TIP3    H137450   2.353   6.223   5.241  0.1252 -0.1746  1.2809
 5345TIP3    H237451   2.387   6.275   5.379 -1.8405  1.4992  1.1739
 5346TIP3   OH237452   1.537   3.982  11.714  0.1125 -0.3780 -0.4531
 5346TIP3    H137453   1.484   3.914  11.674  0.8615  0.5057 -3.2108
 5346TIP3    H237454   1.500   4.064  11.682  0.0564  0.5028  1.6909
 5347TIP3   OH237455   6.519   0.295  16.754 -0.2235  0.0729  0.0676
 5347TIP3    H137456   6.604   0.332  16.777  0.1459 -0.2718 -0.7173
 5347TIP3    H237457   6.469   0.370  16.721  0.1115  0.1012 -0.3852
 5348TIP3   OH237458   5.154   0.486   3.642 -0.4356  0.2173  0.1109
 5348TIP3    H137459   5.213   0.494   3.717 -1.1606 -0.7442  0.8224
 5348TIP3    H237460   5.067   0.480   3.682 -0.7993 -0.7783 -0.7804
 5349TIP3   OH237461   3.814   0.054  16.060 -0.0640 -0.0938 -0.3010
 5349TIP3    H137462   3.743   0.056  15.995  0.2639 -0.9930 -0.7012
 5349TIP3    H237463   3.769   0.068  16.143 -0.7801 -1.0031 -0.5093
 5350TIP3   OH237464   5.841   1.241   1.784  0.1555 -0.5435 -0.1598
 5350TIP3    H137465   5.932   1.263   1.806 -0.0167 -0.0808  0.0985
 5350TIP3    H237466   5.788   1.304   1.833 -0.3785 -1.7465  0.8852
 5351TIP3   OH237467   0.531   5.842   3.376  0.2153 -0.2340 -0.0521
 5351TIP3    H137468   0.603   5.787   3.407  0.7446 -0.0720 -0.9728
 5351TIP3    H237469   0.571   5.928   3.361 -0.0184 -0.3236 -1.2299
 5352TIP3   OH237470   4.926   3.815  12.411  0.2555 -0.4860 -0.7911
 5352TIP3    H137471   5.017   3.828  12.436 -0.2193 -2.0446  2.1608
 5352TIP3    H237472   4.926   3.732  12.361  0.2713 -1.5484  0.9015
 5353TIP3   OH237473   2.483   3.878  14.839 -0.0854  0.0104 -0.3634
 5353TIP3    H137474   2.574   3.907  14.840 -0.2536  0.5773 -0.9505
 5353TIP3    H237475   2.458   3.877  14.747 -1.3630  2.1160 -0.1146
 5354TIP3   OH237476   3.495   1.233  16.550 -0.3107 -0.7831 -0.4811
 5354TIP3    H137477   3.419   1.251  16.605  0.1724  0.6263 -0.2199
 5354TIP3    H237478   3.551   1.177  16.602  1.0306  2.0307  1.3441
 5355TIP3   OH237479   6.522   1.063   5.909  0.1594  0.2945 -0.1435
 5355TIP3    H137480   6.571   0.998   5.958  1.7213  0.3376 -1.5757
 5355TIP3    H237481   6.498   1.019   5.827 -1.7476  0.4592  0.2657
 5356TIP3   OH237482   5.185   2.279   3.357  0.1257  0.5047  0.1100
 5356TIP3    H137483   5.132   2.298   3.434 -1.9803  1.1163 -1.3775
 5356TIP3    H237484   5.192   2.184   3.355  0.1017  0.4802  0.9772
 5357TIP3   OH237485   2.733   4.422   4.062 -0.0781  0.0136 -0.3103
 5357TIP3    H137486   2.733   4.334   4.023  0.1022 -0.5119  0.8494
 5357TIP3    H237487   2.652   4.425   4.113 -0.3565  0.7351 -0.7717
 5358TIP3   OH237488   3.086   3.528  11.828  0.7740  0.0685 -0.3381
 5358TIP3    H137489   3.180   3.506  11.831  0.5264 -1.0085  0.1817
 5358TIP3    H237490   3.077   3.601  11.889  1.2435  0.0368 -0.2232
 5359TIP3   OH237491   4.903   0.107   4.084  0.2960  0.1727 -0.2698
 5359TIP3    H137492   4.954   0.137   4.009 -0.9739 -0.4460 -1.4294
 5359TIP3    H237493   4.812   0.106   4.052 -0.0429 -2.0402  0.6281
 5360TIP3   OH237494   0.240   3.807   2.017 -0.5066  0.1438 -0.3913
 5360TIP3    H137495   0.221   3.890   2.062 -1.7574 -0.5019  0.3244
 5360TIP3    H237496   0.158   3.758   2.022  0.3156 -1.2971 -0.4914
 5361TIP3   OH237497   1.504   3.769   2.799 -0.2652 -0.2825 -0.2612
 5361TIP3    H137498   1.564   3.744   2.729 -0.5222  0.8324 -0.9040
 5361TIP3    H237499   1.433   3.706   2.793  1.2112 -2.2084  1.0959
 5362TIP3   OH237500   3.849   6.414   1.641  0.4003  0.3252  0.4892
 5362TIP3    H137501   3.918   6.423   1.707  1.2772  1.5704 -0.5469
 5362TIP3    H237502   3.886   6.452   1.562 -1.4481  0.9565 -0.1381
 5363TIP3   OH237503   3.643   4.153   4.415  0.3547 -0.4455 -0.2523
 5363TIP3    H137504   3.689   4.152   4.499 -0.7706  0.9333  0.4196
 5363TIP3    H237505   3.676   4.231   4.370  0.9138 -1.1473 -1.0989
 5364TIP3   OH237506   2.107   1.867   0.623 -0.4761 -0.0738 -0.7827
 5364TIP3    H137507   2.120   1.930   0.693  2.2141  1.5273 -2.5570
 5364TIP3    H237508   2.195   1.849   0.590 -1.3124 -3.3628 -1.6328
 5365TIP3   OH237509   2.160   6.012   1.160 -0.2381  0.1228 -0.4349
 5365TIP3    H137510   2.114   5.933   1.190 -1.5102  1.5683  1.6853
 5365TIP3    H237511   2.181   6.060   1.240  1.2141  1.5872 -1.6212
 5366TIP3   OH237512   2.188   4.361   1.193 -0.3671 -0.0689  0.2211
 5366TIP3    H137513   2.216   4.313   1.270 -1.7170 -0.5324  0.4611
 5366TIP3    H237514   2.102   4.325   1.172 -0.3461  0.5466 -1.0737
 5367TIP3   OH237515   2.590   4.436   0.500  0.1649  0.6322 -1.1616
 5367TIP3    H137516   2.540   4.414   0.421 -1.2437 -2.4270  0.4336
 5367TIP3    H237517   2.674   4.391   0.487 -0.0702  0.1213 -0.8978
 5368TIP3   OH237518   2.002   2.070   0.886 -1.0386  0.8174 -0.2800
 5368TIP3    H137519   1.960   1.991   0.921  0.8352  0.7746  2.1812
 5368TIP3    H237520   1.934   2.113   0.836 -2.8119 -1.1956  0.2296
 5369TIP3   OH237521   1.170   4.228   1.989  0.5387 -0.0934  0.7784
 5369TIP3    H137522   1.243   4.290   1.986 -0.5176  1.2669 -2.8890
 5369TIP3    H237523   1.109   4.266   2.053  1.1768  1.0985  0.7120
 5370TIP3   OH237524   0.649   0.820   5.371 -0.7007  0.1707 -0.1176
 5370TIP3    H137525   0.557   0.820   5.395 -0.7390 -0.8315 -0.2270
 5370TIP3    H237526   0.666   0.910   5.342 -1.4055  0.5986  0.7564
 5371TIP3   OH237527   1.714   1.966  14.531 -0.1229  0.0061  0.6273
 5371TIP3    H137528   1.722   2.046  14.479 -0.1451 -0.9230 -0.8526
 5371TIP3    H237529   1.780   1.975  14.599 -1.2404  2.0312  1.5467
 5372TIP3   OH237530   5.173   6.116  10.959 -0.1952  1.0021  0.1884
 5372TIP3    H137531   5.188   6.082  10.871 -0.8038  0.7224  0.1877
 5372TIP3    H237532   5.189   6.210  10.951  0.8943  0.8155  0.0529
 5373TIP3   OH237533   6.640   5.555  12.360  0.1565  0.4901 -0.0683
 5373TIP3    H137534   6.647   5.464  12.332  0.6406  0.1995  0.9518
 5373TIP3    H237535   6.547   5.567  12.379  0.1745  0.0367  0.3258
 5374TIP3   OH237536   2.498   0.466  15.357  0.5982 -0.1467  0.4683
 5374TIP3    H137537   2.533   0.529  15.420  0.6949 -1.2336  1.5396
 5374TIP3    H237538   2.503   0.381  15.402 -0.5500 -0.7684 -0.5057
 5375TIP3   OH237539   0.408   3.816  13.618 -0.2459  0.0458 -0.2313
 5375TIP3    H137540   0.484   3.779  13.572 -0.7346  0.3411 -1.2930
 5375TIP3    H237541   0.336   3.756  13.598  0.0538 -1.3039  2.3081
 5376TIP3   OH237542   5.237   4.041   4.976 -0.2950 -0.0997 -0.3711
 5376TIP3    H137543   5.189   4.052   4.894 -1.6682  0.3614  0.4579
 5376TIP3    H237544   5.212   3.954   5.007 -0.2319 -0.0388 -0.1487
 5377TIP3   OH237545   2.267   1.233  13.367  0.1700 -0.4425 -0.1780
 5377TIP3    H137546   2.210   1.157  13.356  0.4825 -1.1504  2.4156
 5377TIP3    H237547   2.208   1.304  13.391 -0.2012  0.4168 -3.2278
 5378TIP3   OH237548   5.793   6.017  15.323 -0.1797  0.0532 -0.4191
 5378TIP3    H137549   5.698   6.016  15.317 -0.2156  0.4812 -0.0117
 5378TIP3    H237550   5.813   5.983  15.411  0.0175  0.3913 -0.3281
 5379TIP3   OH237551   0.764   5.041   3.641  0.1181  0.5981 -0.3237
 5379TIP3    H137552   0.722   4.991   3.711 -1.1159  0.0432 -1.4031
 5379TIP3    H237553   0.810   4.975   3.588 -0.1656  0.8075 -0.8412
 5380TIP3   OH237554   0.605   6.450  16.814  0.2680 -0.5114 -0.0850
 5380TIP3    H137555   0.517   6.453  16.777 -0.5813  0.5899  1.8747
 5380TIP3    H237556   0.624   6.541  16.840  1.5100 -0.9193  0.5464
 5381TIP3   OH237557   4.462   3.244   1.096 -0.1360  0.1497  0.2831
 5381TIP3    H137558   4.520   3.319   1.080  1.1731 -1.1315 -1.3344
 5381TIP3    H237559   4.390   3.256   1.034 -0.4598  0.5879  0.7395
 5382TIP3   OH237560   1.668   2.557   0.871 -0.4087  0.5482 -0.2887
 5382TIP3    H137561   1.706   2.624   0.814  0.6324  1.6155  1.5500
 5382TIP3    H237562   1.580   2.589   0.890 -0.1613  1.0580  0.0231
 5383TIP3   OH237563   0.180   6.580   0.556 -0.1509  0.3970 -0.4609
 5383TIP3    H137564   0.176   6.662   0.507 -0.1621 -0.8404 -2.6451
 5383TIP3    H237565   0.089   6.553   0.566 -0.1806  0.8458  0.6897
 5384TIP3   OH237566   5.742   5.691  12.793 -0.2684 -0.0140  0.2313
 5384TIP3    H137567   5.735   5.609  12.745 -1.5382  0.8748 -1.2196
 5384TIP3    H237568   5.829   5.724  12.772 -0.6049  0.0970 -1.0569
 5385TIP3   OH237569   4.064   1.878  12.793  0.2243  0.0127 -0.2214
 5385TIP3    H137570   4.137   1.907  12.738  1.1897 -1.1819  0.3825
 5385TIP3    H237571   4.085   1.787  12.815 -0.2657  0.3300  1.8430
 5386TIP3   OH237572   3.149   3.259  14.222  0.1066 -0.3136 -0.0832
 5386TIP3    H137573   3.232   3.269  14.269 -0.4847  0.8796  0.7665
 5386TIP3    H237574   3.175   3.255  14.130  1.1649 -0.8647  0.2163
 5387TIP3   OH237575   5.482   1.836  12.048 -0.1446 -0.2357  0.0532
 5387TIP3    H137576   5.478   1.741  12.059  0.4216 -0.3660 -0.8145
 5387TIP3    H237577   5.430   1.854  11.970  0.3283  0.0860 -0.1929
 5388TIP3   OH237578   3.222   5.072  12.811  0.4807  0.5476  0.6505
 5388TIP3    H137579   3.141   5.045  12.854  0.7486 -1.2831  0.0850
 5388TIP3    H237580   3.268   4.990  12.794  1.2558  1.3658 -1.3927
 5389TIP3   OH237581   0.642   2.467   5.916 -0.5519  0.3132 -0.0121
 5389TIP3    H137582   0.612   2.533   5.979 -1.0407  0.5155 -0.4504
 5389TIP3    H237583   0.676   2.396   5.970  0.5370  1.1699  0.4673
 5390TIP3   OH237584   5.452   2.140  15.370 -0.4559 -0.0553 -0.3035
 5390TIP3    H137585   5.359   2.159  15.354 -1.0757 -3.0466 -0.8359
 5390TIP3    H237586   5.454   2.107  15.460  0.3140  1.0349  0.0971
 5391TIP3   OH237587   3.861   0.531   1.370 -0.0403 -0.9605 -0.2928
 5391TIP3    H137588   3.844   0.520   1.463 -0.3178  0.1925 -0.1884
 5391TIP3    H237589   3.930   0.467   1.350  1.7431  0.3509  1.2412
 5392TIP3   OH237590   5.221   4.531  11.746 -0.1787 -0.2054 -0.0112
 5392TIP3    H137591   5.140   4.485  11.726 -0.4265  1.4046 -3.2870
 5392TIP3    H237592   5.281   4.506  11.676  1.4335  0.3863  1.0984
 5393TIP3   OH237593   1.925   6.478   1.999  0.2611  0.4233  0.0120
 5393TIP3    H137594   1.955   6.512   2.083 -0.9040  0.9570  0.2383
 5393TIP3    H237595   1.830   6.473   2.008  0.2668 -1.5837 -0.5259
 5394TIP3   OH237596   6.140   1.855   2.344  0.2794  0.2176 -0.0378
 5394TIP3    H137597   6.180   1.774   2.377 -1.7125 -1.7613 -2.0869
 5394TIP3    H237598   6.051   1.853   2.377  0.3713  1.9423  0.3794
 5395TIP3   OH237599   1.584   3.186   5.021 -0.1361  0.0879  0.2200
 5395TIP3    H137600   1.674   3.206   5.048 -0.3488  0.8844  0.3561
 5395TIP3    H237601   1.553   3.267   4.980 -1.6625  0.6961  2.4309
 5396TIP3   OH237602   6.576   3.453  12.568  0.1049  0.3087  0.4207
 5396TIP3    H137603   6.569   3.405  12.651  1.6149  0.6099  0.7642
 5396TIP3    H237604   6.614   3.389  12.507  0.6595  0.5899  0.4609
 5397TIP3   OH237605   0.588   3.380   2.077 -0.0010 -0.3636  0.0148
 5397TIP3    H137606   0.674   3.367   2.036 -0.4184  2.2565 -1.9586
 5397TIP3    H237607   0.530   3.319   2.030  0.1008  0.5668 -1.3898
 5398TIP3   OH237608   5.154   1.734  12.585  0.2049  0.5875  0.6379
 5398TIP3    H137609   5.076   1.772  12.546  0.7053  3.1808  1.9639
 5398TIP3    H237610   5.124   1.694  12.667 -0.0587 -0.5791  0.0030
 5399TIP3   OH237611   1.182   0.030  13.579  0.4585 -0.1313  0.0790
 5399TIP3    H137612   1.091   0.059  13.576 -0.1421 -1.5700  2.2872
 5399TIP3    H237613   1.199  -0.005  13.491 -1.2953 -0.3428 -0.2010
 5400TIP3   OH237614   2.192   3.334   2.478 -0.2196  0.0393  0.4524
 5400TIP3    H137615   2.134   3.309   2.406 -1.2303  0.6691  1.0153
 5400TIP3    H237616   2.201   3.255   2.531  0.9628 -0.5801 -0.6249
 5401TIP3   OH237617   3.960   5.833  16.366 -0.2352  0.7667  0.2061
 5401TIP3    H137618   3.914   5.775  16.305  1.9119 -0.2180 -0.5953
 5401TIP3    H237619   3.990   5.775  16.436  1.2785  0.9937 -0.2141
 5402TIP3   OH237620   5.838   2.263  16.250  0.4485  0.5879  0.1299
 5402TIP3    H137621   5.752   2.232  16.277  2.1406 -2.5328  2.7773
 5402TIP3    H237622   5.858   2.334  16.311  1.1952 -1.3547  2.2915
 5403TIP3   OH237623   1.143   4.484   4.148  0.3159  0.3026  0.1712
 5403TIP3    H137624   1.143   4.530   4.232 -0.4086 -0.4722  0.6111
 5403TIP3    H237625   1.234   4.486   4.120  0.4643  1.1057  0.6752
 5404TIP3   OH237626   1.776   2.464  14.526 -0.0082  0.3043 -0.0730
 5404TIP3    H137627   1.813   2.547  14.553 -3.0625  1.9370 -0.4585
 5404TIP3    H237628   1.744   2.424  14.608  1.0253 -0.2995  0.0513
 5405TIP3   OH237629   1.005   2.863  13.100 -0.3406 -0.3500  0.4112
 5405TIP3    H137630   0.971   2.884  13.187 -1.9399  0.1573 -0.2877
 5405TIP3    H237631   0.972   2.775  13.081  0.0720 -0.4939  0.3401
 5406TIP3   OH237632   3.056   5.185   5.172 -0.0129 -0.8054 -0.7252
 5406TIP3    H137633   2.972   5.200   5.215  0.1682 -1.6630 -0.0316
 5406TIP3    H237634   3.065   5.257   5.110 -1.6364 -1.1397 -1.4063
 5407TIP3   OH237635   0.503   5.607   4.783  0.0149 -0.3144 -0.0714
 5407TIP3    H137636   0.560   5.580   4.854 -1.0929 -1.7736  0.3229
 5407TIP3    H237637   0.543   5.570   4.704  0.0586 -0.6242  0.0955
 5408TIP3   OH237638   6.368   1.383   0.353  0.8963 -0.6580  1.0106
 5408TIP3    H137639   6.308   1.310   0.338  0.4438  0.1620 -1.6094
 5408TIP3    H237640   6.450   1.356   0.313  1.0871 -0.2024  1.0814
 5409TIP3   OH237641   6.177   3.110   4.186 -0.3252  0.1488 -0.1841
 5409TIP3    H137642   6.101   3.051   4.192 -1.6164  1.6861 -0.6284
 5409TIP3    H237643   6.142   3.196   4.209  1.4031  0.8455 -0.0118
 5410TIP3   OH237644   2.272   4.900  12.077  0.0706 -0.3985  0.1361
 5410TIP3    H137645   2.344   4.952  12.041  0.7803 -0.8572  0.8711
 5410TIP3    H237646   2.208   4.896  12.006  1.0883 -0.6205 -0.7967
 5411TIP3   OH237647   5.047   1.016  14.331 -0.0120 -0.4999  0.5989
 5411TIP3    H137648   5.054   0.924  14.356  0.0369 -0.0886  2.2197
 5411TIP3    H237649   5.028   1.014  14.237 -0.3130 -2.1609  0.6648
 5412TIP3   OH237650   1.267   0.345  13.010 -0.2349  0.4080  0.0271
 5412TIP3    H137651   1.348   0.386  13.041 -0.9746  0.3658  2.1827
 5412TIP3    H237652   1.296   0.277  12.949  1.3393  0.4619  0.6751
 5413TIP3   OH237653   2.131   4.149   3.559  0.1712  0.2203  0.2192
 5413TIP3    H137654   2.039   4.157   3.535 -0.6906 -0.0888  2.9688
 5413TIP3    H237655   2.160   4.069   3.516 -1.1970 -0.2994  0.1986
 5414TIP3   OH237656   0.858   1.735   1.250  0.0537 -0.2600  0.4562
 5414TIP3    H137657   0.838   1.703   1.338 -1.0525  1.7415  1.0017
 5414TIP3    H237658   0.805   1.680   1.192 -0.9048 -0.2091  1.2473
 5415TIP3   OH237659   0.612   3.248   1.638  0.5328 -0.4370 -0.3641
 5415TIP3    H137660   0.632   3.207   1.723 -1.3840 -0.8493 -0.0781
 5415TIP3    H237661   0.574   3.333   1.661  1.0885 -0.0436 -0.8641
 5416TIP3   OH237662   1.880   5.821  15.290  0.3863  0.5644 -0.2771
 5416TIP3    H137663   1.967   5.836  15.253  0.5765 -1.1806 -0.6234
 5416TIP3    H237664   1.822   5.877  15.238  1.3226  2.1496  0.2930
 5417TIP3   OH237665   1.972   6.632  11.479  0.0153 -0.0751  0.1549
 5417TIP3    H137666   1.999   6.570  11.547 -0.2737 -0.5552 -0.1697
 5417TIP3    H237667   1.962   6.715  11.526  0.6572 -0.2071  0.5436
 5418TIP3   OH237668   3.781   2.273  13.920 -0.7206  0.6779 -0.5648
 5418TIP3    H137669   3.761   2.273  14.014  0.9642 -0.8109 -0.1423
 5418TIP3    H237670   3.745   2.191  13.888 -0.1155  0.5461 -0.9189
 5419TIP3   OH237671   1.792   3.732   0.061  0.0326  0.1424 -0.1927
 5419TIP3    H137672   1.776   3.797  -0.008  1.2356  1.0107  0.3057
 5419TIP3    H237673   1.712   3.679   0.063  0.0366 -0.0064 -2.3356
 5420TIP3   OH237674   5.861   1.529   3.353 -0.4485 -0.2396  0.6446
 5420TIP3    H137675   5.805   1.455   3.328  0.1034 -0.9540  1.4561
 5420TIP3    H237676   5.937   1.521   3.296  0.2133 -1.1005  1.6051
 5421TIP3   OH237677   2.212   0.780  15.515 -0.4059 -0.2068 -0.1951
 5421TIP3    H137678   2.208   0.876  15.506 -0.4058 -0.3629 -2.9587
 5421TIP3    H237679   2.255   0.765  15.598  1.0473  2.2388 -0.4008
 5422TIP3   OH237680   0.552   6.427   3.454 -0.5684 -0.4218  0.3635
 5422TIP3    H137681   0.639   6.389   3.442 -0.3419  0.0803  0.3890
 5422TIP3    H237682   0.528   6.406   3.544 -0.1741  0.0406  0.5772
 5423TIP3   OH237683   1.326   1.530   2.845  0.3280 -0.4579  0.2653
 5423TIP3    H137684   1.264   1.532   2.773 -0.3245 -1.7939  0.7741
 5423TIP3    H237685   1.323   1.619   2.882 -0.7702 -0.3198 -0.1398
 5424TIP3   OH237686   2.352   5.985  10.910  0.2593 -0.2012 -0.2856
 5424TIP3    H137687   2.304   5.950  10.985 -1.3356 -0.1518 -1.2300
 5424TIP3    H237688   2.419   5.919  10.891 -1.4519 -1.8469 -0.8469
 5425TIP3   OH237689   1.148   3.707  14.520 -0.2459 -0.1922  0.2280
 5425TIP3    H137690   1.126   3.621  14.485 -0.0585 -1.3807  2.7600
 5425TIP3    H237691   1.226   3.734  14.473 -0.6815 -1.1060 -1.0542
 5426TIP3   OH237692   4.643   0.772   0.357 -0.3385  0.2319 -0.3701
 5426TIP3    H137693   4.633   0.852   0.305  0.8249  0.7758  0.1999
 5426TIP3    H237694   4.603   0.792   0.441  0.8263  0.5914  0.1194
 5427TIP3   OH237695   6.446   1.824  14.292  0.1643  0.1477 -0.0582
 5427TIP3    H137696   6.357   1.822  14.326 -0.2658 -0.3845 -1.1636
 5427TIP3    H237697   6.494   1.763  14.348  0.1062  1.2494  1.2177
 5428TIP3   OH237698   1.700   0.228  13.280  0.9595 -0.4937 -0.5429
 5428TIP3    H137699   1.743   0.142  13.276  1.1767 -0.4013 -0.1918
 5428TIP3    H237700   1.681   0.249  13.188  1.3210 -0.7102 -0.6710
 5429TIP3   OH237701   5.140   0.629  15.857 -0.1685  0.5268  0.2070
 5429TIP3    H137702   5.164   0.575  15.781 -1.4329 -0.5537  0.5396
 5429TIP3    H237703   5.074   0.689  15.822 -2.9550 -1.8726  0.9641
 5430TIP3   OH237704   5.889   3.531  11.347  0.6446 -0.2650  0.2088
 5430TIP3    H137705   5.869   3.598  11.413  0.6960  0.3885 -0.4258
 5430TIP3    H237706   5.964   3.566  11.299  0.5363 -0.6818 -0.2735
 5431TIP3   OH237707   4.063   4.286  10.366  0.7698 -0.0494  0.2712
 5431TIP3    H137708   4.027   4.202  10.339  1.7677 -0.6703  0.8094
 5431TIP3    H237709   4.158   4.272  10.368  1.0573  1.4318 -0.8036
 5432TIP3   OH237710   6.476   0.619   5.756  0.3260 -0.0894  0.4726
 5432TIP3    H137711   6.565   0.599   5.784  0.4766  0.6326  0.5446
 5432TIP3    H237712   6.443   0.679   5.823  0.2680  0.7057 -0.2369
 5433TIP3   OH237713   6.307   0.514  13.401  0.0859 -0.0434 -0.4026
 5433TIP3    H137714   6.285   0.551  13.316  0.3927  1.0988  0.0066
 5433TIP3    H237715   6.227   0.468  13.428  0.1054 -0.7440 -1.4517
 5434TIP3   OH237716   4.444   1.840  13.856 -0.5768 -0.5932 -0.2788
 5434TIP3    H137717   4.506   1.767  13.847 -2.1361 -1.9300 -0.6654
 5434TIP3    H237718   4.470   1.902  13.787  0.6404 -0.8560 -0.0889
 5435TIP3   OH237719   1.799   4.972  11.971 -0.1870  0.0218 -0.4503
 5435TIP3    H137720   1.820   5.020  12.051 -1.1283  0.9729 -0.7506
 5435TIP3    H237721   1.852   4.893  11.976 -0.5151 -0.1257  1.3006
 5436TIP3   OH237722   3.519   3.842   0.196  0.1892 -0.1660  0.3030
 5436TIP3    H137723   3.564   3.925   0.210  1.9038 -0.8457 -0.8456
 5436TIP3    H237724   3.426   3.863   0.204  0.5014  2.1453 -1.2531
 5437TIP3   OH237725   1.994   4.349   5.482 -0.3301  0.1142  0.2443
 5437TIP3    H137726   2.057   4.388   5.543 -0.4388  0.6155  0.0426
 5437TIP3    H237727   2.023   4.258   5.472  0.7509  0.5027 -0.3433
 5438TIP3   OH237728   6.408   3.591   4.300  0.8591 -0.6386 -0.2579
 5438TIP3    H137729   6.392   3.682   4.326 -0.1759 -1.3525  1.8178
 5438TIP3    H237730   6.440   3.598   4.210 -1.1446  1.6548 -0.9263
 5439TIP3   OH237731   2.509   4.122   2.404 -0.1291 -0.1900 -0.1561
 5439TIP3    H137732   2.454   4.058   2.449 -0.3580  0.5834  0.6975
 5439TIP3    H237733   2.538   4.181   2.473 -2.4309  2.4719 -1.2668
 5440TIP3   OH237734   0.406   1.081   1.410  0.3076 -0.1187 -0.2083
 5440TIP3    H137735   0.491   1.095   1.451  0.0886 -1.1228  0.6325
 5440TIP3    H237736   0.414   0.996   1.365 -0.3179 -0.3444  0.0906
 5441TIP3   OH237737   2.566   3.830  13.224  0.3799  0.5149 -0.2177
 5441TIP3    H137738   2.483   3.798  13.260 -0.2230  1.4266 -0.7685
 5441TIP3    H237739   2.545   3.857  13.135  1.3667  0.3723 -0.5084
 5442TIP3   OH237740   2.730   6.318   4.120 -0.0461  0.2323  0.3876
 5442TIP3    H137741   2.739   6.246   4.058 -1.0192 -0.5104  1.0740
 5442TIP3    H237742   2.805   6.309   4.179  0.1735  0.1706  0.1041
 5443TIP3   OH237743   0.275   5.862   1.602  0.1008 -0.2442 -0.1538
 5443TIP3    H137744   0.296   5.785   1.549 -1.9780 -1.2896  0.4203
 5443TIP3    H237745   0.195   5.897   1.563  0.0973  0.6297  0.6089
 5444TIP3   OH237746   4.309   5.254   0.925 -0.3983 -0.5908 -0.0104
 5444TIP3    H137747   4.377   5.209   0.976 -1.4731 -1.8903  0.3138
 5444TIP3    H237748   4.303   5.341   0.965 -2.4512 -2.1116  3.3986
 5445TIP3   OH237749   0.030   0.052  11.800 -0.9069 -0.5344 -0.1140
 5445TIP3    H137750   0.118   0.069  11.769 -1.0677 -1.3297 -1.0549
 5445TIP3    H237751  -0.024   0.121  11.761 -0.6326  0.2590  0.8804
 5446TIP3   OH237752   6.641   5.708   6.014  0.1749  0.4247  0.7465
 5446TIP3    H137753   6.718   5.723   5.959 -0.4013  2.7024  0.4715
 5446TIP3    H237754   6.605   5.795   6.031 -1.4855 -0.4523  2.1377
 5447TIP3   OH237755   2.639   2.604   0.477  0.3678  0.1707  0.8735
 5447TIP3    H137756   2.674   2.688   0.449  0.0477  0.0161 -0.0286
 5447TIP3    H237757   2.683   2.540   0.422  1.0453 -0.3282  1.9472
 5448TIP3   OH237758   4.831   0.244  14.031  0.0316  0.3765 -0.0188
 5448TIP3    H137759   4.762   0.233  14.096  1.6377  1.4938  1.9850
 5448TIP3    H237760   4.867   0.157  14.018  0.4741  0.2962  1.5624
 5449TIP3   OH237761   2.788   3.143   1.637 -0.0149  0.2232 -0.6098
 5449TIP3    H137762   2.832   3.108   1.715 -2.4883 -0.9490  0.3583
 5449TIP3    H237763   2.766   3.233   1.660 -1.2296 -0.2875  0.3128
 5450TIP3   OH237764   1.982   4.646  13.046 -0.5489  0.3961 -0.2042
 5450TIP3    H137765   2.074   4.621  13.039 -0.5763  0.1544  0.2895
 5450TIP3    H237766   1.936   4.566  13.072 -0.8659  0.5758 -0.1947
 5451TIP3   OH237767   0.804   6.127  13.095 -0.2653 -0.4661  0.0594
 5451TIP3    H137768   0.802   6.120  13.190 -0.3311  0.1665  0.1110
 5451TIP3    H237769   0.786   6.038  13.064 -0.9330 -0.5442  0.6379
 5452TIP3   OH237770   3.946   0.802   0.131  0.1112 -0.0707  0.5485
 5452TIP3    H137771   3.891   0.859   0.186 -2.4141  0.4170 -2.2454
 5452TIP3    H237772   4.032   0.844   0.133 -0.5046  1.2670  2.1469
 5453TIP3   OH237773   0.052   6.625  17.045 -0.0568  0.3263 -0.1157
 5453TIP3    H137774   0.080   6.618  17.136 -0.0669 -0.3286 -0.1612
 5453TIP3    H237775  -0.039   6.654  17.049 -0.3175 -0.4899  0.1116
 5454TIP3   OH237776   0.382   3.274  12.860 -0.3374 -0.6251 -0.4373
 5454TIP3    H137777   0.463   3.233  12.832  0.3470  0.5654 -0.2966
 5454TIP3    H237778   0.363   3.234  12.945 -1.0052 -2.3499 -1.3649
 5455TIP3   OH237779   2.560   3.431  12.535  0.0253 -0.1626 -0.2532
 5455TIP3    H137780   2.556   3.445  12.441 -0.0329  0.4235 -0.1632
 5455TIP3    H237781   2.624   3.360  12.546 -0.8904 -1.0870 -0.8147
 5456TIP3   OH237782   5.306   2.339   4.067 -0.4377  0.2038  0.2113
 5456TIP3    H137783   5.223   2.386   4.068 -0.8115 -0.3928 -0.8625
 5456TIP3    H237784   5.351   2.370   3.988  0.4074  0.5810  0.8197
 5457TIP3   OH237785   5.977   4.752  15.918 -0.3479 -0.8887  0.4415
 5457TIP3    H137786   5.932   4.823  15.964  2.2262  0.1620  1.5647
 5457TIP3    H237787   6.031   4.797  15.853 -0.1779 -2.0111 -0.2229
 5458TIP3   OH237788   4.885   3.271  15.586 -0.2991  0.2446  0.3078
 5458TIP3    H137789   4.874   3.356  15.543 -0.1547  1.4512  2.5149
 5458TIP3    H237790   4.815   3.267  15.651 -0.4652 -1.4672  0.0643
 5459TIP3   OH237791   2.007   6.404  11.205 -0.0521 -0.3657  0.9828
 5459TIP3    H137792   1.936   6.445  11.253 -0.4273  0.3998 -0.2010
 5459TIP3    H237793   2.081   6.464  11.215 -0.9446  1.3636 -1.7983
 5460TIP3   OH237794   5.863   0.649   5.225 -0.6600 -0.2854 -0.2459
 5460TIP3    H137795   5.912   0.625   5.146 -2.0855  1.1097 -1.6331
 5460TIP3    H237796   5.920   0.713   5.269  1.0590 -2.5547  1.0284
 5461TIP3   OH237797   4.124   4.668   1.344  0.1259 -0.2728  0.0848
 5461TIP3    H137798   4.100   4.752   1.383 -0.3991 -0.7424  0.8238
 5461TIP3    H237799   4.053   4.609   1.371 -0.2599 -0.6315 -1.5923
 5462TIP3   OH237800   5.987   4.650   5.623  0.5184  0.1125  0.2539
 5462TIP3    H137801   5.913   4.607   5.666 -0.0409 -0.6072 -1.3430
 5462TIP3    H237802   6.025   4.706   5.690 -0.8573 -0.2785  1.4013
 5463TIP3   OH237803   5.506   0.035  14.428 -0.5067  0.6564 -0.3865
 5463TIP3    H137804   5.526  -0.048  14.385 -1.0411 -0.1926  0.9404
 5463TIP3    H237805   5.413   0.050  14.411 -0.5243  0.7422 -0.2192
 5464TIP3   OH237806   4.579   4.930  16.672 -0.0855 -0.4365  0.0779
 5464TIP3    H137807   4.535   4.856  16.631 -1.7257  0.8483 -0.6276
 5464TIP3    H237808   4.585   4.996  16.603  0.4162  0.4501  0.9341
 5465TIP3   OH237809   5.689   3.306   4.378  0.3272 -0.6927 -0.2662
 5465TIP3    H137810   5.765   3.262   4.417  1.1050 -0.3507 -1.3737
 5465TIP3    H237811   5.716   3.397   4.368  0.5940 -0.9820 -2.6421
 5466TIP3   OH237812   5.157   2.182  11.575  0.0259  0.6255 -0.3881
 5466TIP3    H137813   5.226   2.172  11.510 -0.3722 -0.0408 -0.7187
 5466TIP3    H237814   5.180   2.262  11.622  0.8516  0.5848 -0.6963
 5467TIP3   OH237815   2.019   2.918  11.579 -0.1400 -0.1618  0.0696
 5467TIP3    H137816   2.028   2.830  11.614 -0.4593 -0.4474 -0.5669
 5467TIP3    H237817   1.925   2.935  11.578 -0.2051 -0.4626 -1.3607
 5468TIP3   OH237818   6.147   0.246  12.260  0.2647 -0.1071 -0.1512
 5468TIP3    H137819   6.220   0.306  12.243 -0.0445  0.1843 -0.4510
 5468TIP3    H237820   6.183   0.159  12.240  0.4597  0.0571 -0.5179
 5469TIP3   OH237821   0.055   5.290   3.516  0.6442  0.2426 -0.3774
 5469TIP3    H137822   0.075   5.242   3.436  0.4735  0.0497 -0.3022
 5469TIP3    H237823  -0.013   5.239   3.560  2.9921 -1.5136  1.5565
 5470TIP3   OH237824   1.757   5.616  14.366 -0.1418  0.2172  0.1356
 5470TIP3    H137825   1.778   5.709  14.372 -3.9668  1.2115  0.6415
 5470TIP3    H237826   1.795   5.588  14.283  1.1048  2.1897 -0.0216
 5471TIP3   OH237827   3.266   5.731   3.640  0.7563 -0.7472  0.0037
 5471TIP3    H137828   3.341   5.759   3.693  0.9148 -2.7275  0.9162
 5471TIP3    H237829   3.300   5.729   3.550  1.2630  0.0797  0.1631
 5472TIP3   OH237830   4.356   2.071   0.780 -0.1447 -0.4138  0.3937
 5472TIP3    H137831   4.305   2.019   0.842 -0.5326 -0.9332 -0.3447
 5472TIP3    H237832   4.429   2.106   0.832 -1.3204  0.4867  1.5173
 5473TIP3   OH237833   5.192   2.269   5.792  0.0579  0.0268 -0.3402
 5473TIP3    H137834   5.155   2.204   5.853  0.1732  0.1147 -0.1748
 5473TIP3    H237835   5.131   2.343   5.796 -0.4873 -0.3712 -1.1066
 5474TIP3   OH237836   1.735   0.303  11.323 -0.1008  0.2746  0.0025
 5474TIP3    H137837   1.820   0.342  11.344  0.3585 -0.8944  0.3936
 5474TIP3    H237838   1.719   0.243  11.395  0.3073 -1.9684 -1.6864
 5475TIP3   OH237839   0.300   0.942  12.409  0.1518  0.2236 -0.3685
 5475TIP3    H137840   0.377   0.896  12.375 -0.1122 -1.8853  1.6261
 5475TIP3    H237841   0.336   1.008  12.468  0.4560  0.2104 -0.5352
 5476TIP3   OH237842   2.381   4.425   2.698  0.2216 -0.8829  0.0799
 5476TIP3    H137843   2.444   4.363   2.662  0.2656  0.0276 -1.4620
 5476TIP3    H237844   2.434   4.500   2.726  0.0605 -1.1048  1.0327
 5477TIP3   OH237845   2.268   3.497   5.478 -0.2193  0.3186 -0.1043
 5477TIP3    H137846   2.267   3.530   5.388 -2.1966  0.1934 -0.1677
 5477TIP3    H237847   2.245   3.572   5.531  1.4319  0.5159  0.3901
 5478TIP3   OH237848   2.512   1.953  14.147  0.3195  0.1958  0.0102
 5478TIP3    H137849   2.485   1.966  14.238  1.1125  0.4223  0.2268
 5478TIP3    H237850   2.513   2.041  14.110 -1.3416 -0.0234 -0.6330
 5479TIP3   OH237851   2.604   4.033  14.243  0.6999 -0.5195 -0.6074
 5479TIP3    H137852   2.645   3.950  14.221  0.0208 -1.1608  0.4756
 5479TIP3    H237853   2.659   4.099  14.200  2.8704 -1.3310  0.7575
 5480TIP3   OH237854   3.336   1.760  12.187  0.0852  0.3872  0.2317
 5480TIP3    H137855   3.428   1.780  12.170 -0.3553  1.7711 -0.8208
 5480TIP3    H237856   3.306   1.831  12.244  0.0356 -0.9461  1.9456
 5481TIP3   OH237857   4.724   1.122   1.950 -0.6322 -0.3560  0.2666
 5481TIP3    H137858   4.737   1.069   2.029  1.0652  1.5020  1.3165
 5481TIP3    H237859   4.692   1.206   1.983 -0.9837  0.0893 -1.1389
 5482TIP3   OH237860   0.369   6.205  14.946 -0.0947 -0.3484  0.1248
 5482TIP3    H137861   0.341   6.132  15.001 -1.0357 -0.6172 -0.6722
 5482TIP3    H237862   0.289   6.257  14.933  0.8761  1.7724  2.0137
 5483TIP3   OH237863   1.646   3.667   3.504 -0.4504  0.4812 -0.0860
 5483TIP3    H137864   1.669   3.670   3.411  0.2047 -0.6537  0.0188
 5483TIP3    H237865   1.551   3.664   3.505 -0.4941  1.5484 -0.6792
 5484TIP3   OH237866   5.548   0.020  13.472  0.3231  0.2633 -0.3674
 5484TIP3    H137867   5.491   0.093  13.448 -1.3966 -0.9089  0.0060
 5484TIP3    H237868   5.489  -0.050  13.500  1.9793 -0.7005  0.9513
 5485TIP3   OH237869   6.796   0.012   4.584  0.0059 -0.3542 -0.3575
 5485TIP3    H137870   6.890   0.027   4.572  0.0916 -1.4162 -1.1552
 5485TIP3    H237871   6.791  -0.055   4.652 -0.1257 -0.9553 -0.9496
 5486TIP3   OH237872   1.983   5.766   5.181  0.4742 -0.0382 -0.4680
 5486TIP3    H137873   1.909   5.732   5.232  0.3255 -0.4652 -0.9610
 5486TIP3    H237874   2.060   5.738   5.230  0.3105  1.6855  0.8647
 5487TIP3   OH237875   6.738   2.499  10.956 -0.4954  0.1519 -0.2890
 5487TIP3    H137876   6.657   2.454  10.980 -0.2030  0.2726  0.9898
 5487TIP3    H237877   6.775   2.446  10.886 -0.9988 -0.6734  0.0571
 5488TIP3   OH237878   6.515   3.211  16.575  0.3811 -0.2048  0.2879
 5488TIP3    H137879   6.456   3.158  16.629  0.3494 -0.3878  0.0781
 5488TIP3    H237880   6.459   3.247  16.506  0.9483 -2.8353 -1.7734
 5489TIP3   OH237881   4.164   4.388   2.709  0.3892  0.0171 -0.5150
 5489TIP3    H137882   4.124   4.447   2.773 -0.6043 -2.2158  1.0642
 5489TIP3    H237883   4.231   4.340   2.759 -0.8967 -2.2994 -0.8498
 5490TIP3   OH237884   4.898   2.129  16.138  0.0052 -0.6087 -0.4407
 5490TIP3    H137885   4.949   2.052  16.166 -0.6731 -0.7154  0.5703
 5490TIP3    H237886   4.808   2.096  16.130 -0.3553  0.1572  0.3623
 5491TIP3   OH237887   0.488   1.075  12.030  0.1189  0.0241 -0.2291
 5491TIP3    H137888   0.484   1.109  11.941  1.9642 -1.9354 -1.1431
 5491TIP3    H237889   0.503   0.981  12.020  1.1365 -0.1542  2.1143
 5492TIP3   OH237890   4.114   1.228  14.857 -0.0104 -0.0979 -0.1733
 5492TIP3    H137891   4.038   1.180  14.887  0.9223 -0.7610  1.2094
 5492TIP3    H237892   4.158   1.258  14.937  0.8962  0.7367 -0.9441
 5493TIP3   OH237893   5.085   5.922  15.086 -0.3534 -0.0167 -0.0195
 5493TIP3    H137894   5.161   5.867  15.103 -0.9089 -0.9617 -0.4743
 5493TIP3    H237895   5.120   6.001  15.046  0.3695 -0.5366 -0.4328
 5494TIP3   OH237896   5.577   2.521   0.453 -0.4435  0.5155 -0.4400
 5494TIP3    H137897   5.655   2.468   0.472 -1.0388  0.1842  1.1666
 5494TIP3    H237898   5.555   2.498   0.362  0.1277 -0.9363 -0.2456
 5495TIP3   OH237899   1.263   6.167  14.940 -0.1745  0.0460  0.3625
 5495TIP3    H137900   1.278   6.250  14.895  4.4208 -1.4412 -1.5159
 5495TIP3    H237901   1.220   6.112  14.875  1.9341 -0.5913 -0.5939
 5496TIP3   OH237902   3.955   6.729   0.817 -0.4061 -0.0579  0.2853
 5496TIP3    H137903   4.048   6.749   0.827 -0.4334  0.8927 -1.1347
 5496TIP3    H237904   3.912   6.783   0.883 -0.0248  0.1213  0.3885
 5497TIP3   OH237905   0.086   1.300  12.109 -0.1519  0.3894  0.2066
 5497TIP3    H137906   0.159   1.266  12.160  0.6677 -0.8124 -1.6546
 5497TIP3    H237907   0.045   1.222  12.071 -2.1546  1.0571  0.8147
 5498TIP3   OH237908   4.682   0.411   3.201  0.1547 -0.3632  0.5031
 5498TIP3    H137909   4.613   0.346   3.219  0.8107 -0.8162  1.4884
 5498TIP3    H237910   4.637   0.481   3.154 -0.8450 -0.9473  0.5529
 5499TIP3   OH237911   0.654   4.650  15.488 -0.0517  0.0749  0.4391
 5499TIP3    H137912   0.728   4.610  15.534  0.0076 -1.2737 -0.7493
 5499TIP3    H237913   0.586   4.659  15.554  0.6268 -0.1499  1.1817
 5500TIP3   OH237914   3.128   2.754  12.318  0.1269 -0.2097  0.2933
 5500TIP3    H137915   3.144   2.745  12.224 -1.0333 -0.7700  0.1203
 5500TIP3    H237916   3.110   2.847  12.331 -1.5723 -0.4052 -0.3979
 5501TIP3   OH237917   0.930   3.859   4.357 -0.1155  0.0610  0.4014
 5501TIP3    H137918   0.933   3.820   4.270 -3.2242 -2.6097  1.2887
 5501TIP3    H237919   0.867   3.931   4.349 -2.1585 -1.6053  0.8085
 5502TIP3   OH237920   5.647   2.243   5.673 -0.1287 -0.2895  0.1510
 5502TIP3    H137921   5.567   2.194   5.659  0.0420 -0.3522 -0.6270
 5502TIP3    H237922   5.662   2.291   5.591  0.6580 -0.3229  0.2593
 5503TIP3   OH237923   4.027   1.755   3.816  0.7421  0.2632  0.1956
 5503TIP3    H137924   4.017   1.660   3.818  1.7437  0.1379 -0.2116
 5503TIP3    H237925   4.046   1.779   3.907  0.9270  0.0151  0.2251
 5504TIP3   OH237926   0.814   0.616  13.387  0.2127 -0.0323  0.0504
 5504TIP3    H137927   0.791   0.603  13.295 -0.6781  1.8249 -0.0193
 5504TIP3    H237928   0.895   0.565  13.398  0.2933 -0.3557 -1.7215
 5505TIP3   OH237929   0.492   4.553  14.856 -0.0571 -0.1023  0.0661
 5505TIP3    H137930   0.518   4.566  14.764 -3.3413  0.7710 -0.8899
 5505TIP3    H237931   0.517   4.634  14.900  2.9669 -1.1167  0.4438
 5506TIP3   OH237932   5.235   4.859   1.111 -0.4769  0.7481 -0.1943
 5506TIP3    H137933   5.294   4.791   1.143 -0.9629  0.4818  0.1400
 5506TIP3    H237934   5.189   4.890   1.189 -0.4346  1.2946 -0.3796
 5507TIP3   OH237935   5.792   5.675  14.936  0.5891 -0.3336 -0.4648
 5507TIP3    H137936   5.698   5.664  14.924  0.7300 -1.5451 -0.6280
 5507TIP3    H237937   5.832   5.613  14.875  1.5301  0.8591 -1.1166
 5508TIP3   OH237938   3.177   6.055   3.944  0.1667 -0.5519  0.3622
 5508TIP3    H137939   3.176   6.104   4.026  2.2952  0.1577  0.0422
 5508TIP3    H237940   3.191   5.964   3.971  0.7315 -0.3388  0.8227
 5509TIP3   OH237941   1.489   3.807  15.605  0.4356  0.2768 -0.0833
 5509TIP3    H137942   1.524   3.718  15.616  0.7876  0.5681  1.3416
 5509TIP3    H237943   1.445   3.826  15.687 -0.3858  1.1111 -0.7020
 5510TIP3   OH237944   2.710   2.113  14.400 -0.4022  0.1388 -0.6332
 5510TIP3    H137945   2.785   2.132  14.344  0.1202  2.2650  0.6936
 5510TIP3    H237946   2.742   2.048  14.462  0.0552  0.3349 -0.6638
 5511TIP3   OH237947   6.145   1.402  11.535  0.2181  0.2253 -0.4596
 5511TIP3    H137948   6.150   1.358  11.450 -2.3466  1.5752 -1.4279
 5511TIP3    H237949   6.051   1.408  11.553  0.5131  3.2993  0.6408
 5512TIP3   OH237950   1.436   5.061  17.008 -0.0549  0.0813  0.2630
 5512TIP3    H137951   1.393   4.989  16.962  0.4302  0.6129 -1.0787
 5512TIP3    H237952   1.523   5.027  17.028 -0.0609  0.0593  0.2520
 5513TIP3   OH237953   3.537   3.385   3.086 -0.5331  0.0543 -0.2250
 5513TIP3    H137954   3.581   3.441   3.149 -1.3223  1.3309 -0.7751
 5513TIP3    H237955   3.600   3.376   3.014 -0.0391 -0.5575  0.2717
 5514TIP3   OH237956   3.212   1.654  14.024  0.1106  0.0495 -0.1584
 5514TIP3    H137957   3.218   1.696  13.938 -0.0232 -1.7217 -1.0786
 5514TIP3    H237958   3.294   1.679  14.068  1.5676 -1.3335 -1.9315
 5515TIP3   OH237959   0.490   5.970   0.498 -0.9067 -0.2677  0.0147
 5515TIP3    H137960   0.405   5.935   0.472 -1.2578  0.6470 -0.1036
 5515TIP3    H237961   0.519   6.020   0.422 -0.2759 -0.5536  0.0668
 5516TIP3   OH237962   5.100   1.618   3.313 -0.1100 -0.2078 -0.3220
 5516TIP3    H137963   5.088   1.618   3.408  2.8792  0.0167  0.1401
 5516TIP3    H237964   5.147   1.537   3.295  0.6522  0.4529 -1.3893
 5517TIP3   OH237965   5.762   6.412   4.282 -0.1875  0.0665  0.1662
 5517TIP3    H137966   5.826   6.341   4.289 -1.0131 -0.6427  0.6926
 5517TIP3    H237967   5.712   6.407   4.363 -1.1181  0.4096 -0.3782
 5518TIP3   OH237968   3.004   1.411  12.196  0.1934  0.2384 -0.6760
 5518TIP3    H137969   2.989   1.370  12.281  0.6488 -1.0388 -1.1962
 5518TIP3    H237970   3.076   1.472  12.212 -0.4282  0.8146  0.0766
 5519TIP3   OH237971   2.358   0.256   3.076 -0.2988 -0.3734  0.3212
 5519TIP3    H137972   2.354   0.290   2.986 -1.0746  0.0049  0.4917
 5519TIP3    H237973   2.394   0.168   3.066  1.0084  0.1961 -0.2064
 5520TIP3   OH237974   3.448   5.904   1.472  0.2225 -0.5702 -0.1072
 5520TIP3    H137975   3.499   5.862   1.541  1.7497  0.5246 -0.5319
 5520TIP3    H237976   3.459   5.998   1.487 -0.4538 -0.3086 -1.1079
 5521TIP3   OH237977   4.551   2.086  15.848 -0.4504  0.2244  0.4310
 5521TIP3    H137978   4.571   2.125  15.763 -0.6621  1.6599  1.0200
 5521TIP3    H237979   4.570   1.992  15.837 -1.3276  0.2394 -1.4483
 5522TIP3   OH237980   2.631   0.029   3.344  0.1174 -0.1993 -0.2072
 5522TIP3    H137981   2.555   0.004   3.397 -0.4397  0.0618 -0.8599
 5522TIP3    H237982   2.683   0.085   3.401 -1.0670  1.0412 -0.3134
 5523TIP3   OH237983   4.999   2.818   4.509  0.3731  0.2193 -0.3365
 5523TIP3    H137984   5.060   2.816   4.435 -0.4669 -0.4882 -1.0246
 5523TIP3    H237985   4.964   2.907   4.508  0.9164  0.4391 -0.3243
 5524TIP3   OH237986   2.635   6.069  12.693  0.0458  0.1165 -0.2188
 5524TIP3    H137987   2.552   6.095  12.652  0.6513  2.1118 -0.2451
 5524TIP3    H237988   2.671   6.003  12.634 -0.4455  0.8891 -1.4007
 5525TIP3   OH237989   3.238   2.899  11.935 -0.2389  0.1311 -0.5002
 5525TIP3    H137990   3.243   2.904  11.840 -1.1035  1.0795 -0.5105
 5525TIP3    H237991   3.156   2.853  11.953 -0.7106  1.0641 -0.2144
 5526TIP3   OH237992   0.971   2.692  14.141  0.0527  0.1409 -0.0969
 5526TIP3    H137993   0.955   2.771  14.090  0.6661 -0.1993 -0.8390
 5526TIP3    H237994   0.941   2.621  14.085  1.6226 -0.3126 -0.4066
 5527TIP3   OH237995   5.968   1.472  16.053 -0.3987 -0.4168 -0.7771
 5527TIP3    H137996   5.890   1.458  16.000 -0.4623  0.2110 -0.8629
 5527TIP3    H237997   5.942   1.538  16.117  0.5573  1.1538 -1.9382
 5528TIP3   OH237998   6.740   5.409   4.230  0.1398  0.1548  0.1649
 5528TIP3    H137999   6.778   5.496   4.215  1.0304 -0.1526  0.5630
 5528TIP3    H238000   6.679   5.421   4.302 -1.1178  0.8098 -0.9577
 5529TIP3   OH238001   0.916   4.553  12.156  0.1040 -0.2553  0.9020
 5529TIP3    H138002   0.870   4.636  12.168  1.7628  0.9132 -0.2667
 5529TIP3    H238003   0.987   4.556  12.221  0.2554 -0.7017  0.7626
 5530TIP3   OH238004   6.229   3.824  16.157 -0.8275  0.4296 -0.1435
 5530TIP3    H138005   6.220   3.736  16.194 -0.8628  0.0959 -0.9143
 5530TIP3    H238006   6.157   3.874  16.195  1.0924  1.1215  2.9516
 5531TIP3   OH238007   0.922   2.356   3.318 -0.0037 -0.2943 -0.1484
 5531TIP3    H138008   0.995   2.397   3.364  0.3137  0.2061 -1.0691
 5531TIP3    H238009   0.956   2.339   3.230 -1.2105  0.5794 -0.8068
 5532TIP3   OH238010   5.626   4.476   4.370  0.0888 -0.0614  0.9052
 5532TIP3    H138011   5.631   4.465   4.275  2.8925  1.3623  0.7758
 5532TIP3    H238012   5.550   4.532   4.384  0.7977  1.4152 -0.7399
 5533TIP3   OH238013   3.248   5.373  15.799  0.0387  0.2727  0.5291
 5533TIP3    H138014   3.221   5.459  15.768 -2.0947 -0.0882  1.2020
 5533TIP3    H238015   3.202   5.362  15.882  0.0835 -1.5991  0.3483
 5534TIP3   OH238016   4.450   5.598   0.639 -0.1978 -0.1044 -0.2725
 5534TIP3    H138017   4.484   5.563   0.557  1.9299  0.2464  0.3931
 5534TIP3    H238018   4.359   5.570   0.642 -0.2895 -0.2127 -2.6836
 5535TIP3   OH238019   4.662   4.380  14.076  0.2308 -0.2545  0.9111
 5535TIP3    H138020   4.718   4.457  14.074  0.9579 -0.7875 -0.3468
 5535TIP3    H238021   4.648   4.363  14.169  1.2284  0.5538  1.2253
 5536TIP3   OH238022   0.361   3.646   3.434  0.0196 -0.0512  0.4598
 5536TIP3    H138023   0.375   3.738   3.414  0.8992 -0.2772 -0.0078
 5536TIP3    H238024   0.302   3.647   3.510  0.8620  0.9189  1.1342
 5537TIP3   OH238025   2.480   5.146  11.681 -0.4122 -1.0180 -0.2159
 5537TIP3    H138026   2.405   5.163  11.624  0.5394 -1.2112 -1.5590
 5537TIP3    H238027   2.498   5.053  11.671  0.9009 -0.6972 -1.0653
 5538TIP3   OH238028   5.863   5.591  16.797 -0.4442  0.2110  0.5316
 5538TIP3    H138029   5.887   5.600  16.705 -1.0880 -1.1033  0.2048
 5538TIP3    H238030   5.891   5.502  16.820 -2.0357 -0.1746  1.0534
 5539TIP3   OH238031   4.233   5.510  11.417  0.4169  0.1687 -0.1930
 5539TIP3    H138032   4.184   5.556  11.486 -0.9901 -1.9616  0.3153
 5539TIP3    H238033   4.169   5.494  11.349  0.3808 -2.4443  0.3586
 5540TIP3   OH238034   0.428   3.680  11.639 -0.0670 -0.2086  0.2317
 5540TIP3    H138035   0.333   3.687  11.629 -0.1377  0.2510  1.1513
 5540TIP3    H238036   0.461   3.767  11.620  0.2379 -0.5234 -0.7160
 5541TIP3   OH238037   6.074   4.767   4.786 -0.0175  0.2063 -0.0251
 5541TIP3    H138038   6.018   4.808   4.721  0.8453  0.9880 -0.3063
 5541TIP3    H238039   6.163   4.788   4.757  0.3846  1.0653  1.7136
 5542TIP3   OH238040   2.332   6.000   6.466  0.0469 -0.5737 -0.0597
 5542TIP3    H138041   2.236   6.000   6.470  0.0995 -0.1417  2.2750
 5542TIP3    H238042   2.353   6.072   6.406 -1.0962  1.1418  1.4743
 5543TIP3   OH238043   1.944   5.433   5.688  0.4149 -0.1627  0.2137
 5543TIP3    H138044   1.931   5.527   5.687 -1.1336 -0.3582 -1.0535
 5543TIP3    H238045   1.969   5.413   5.778 -0.9152  1.2427  0.9310
 5544TIP3   OH238046   0.804   3.812   0.901 -0.3902 -0.2476  0.1376
 5544TIP3    H138047   0.872   3.778   0.959 -0.5903 -1.9827 -0.5924
 5544TIP3    H238048   0.770   3.889   0.947  1.5466  0.2459  0.8592
 5545TIP3   OH238049   6.032   4.459   4.219 -0.2555 -0.2245 -0.3726
 5545TIP3    H138050   6.069   4.451   4.131  0.6421  1.2737 -0.1629
 5545TIP3    H238051   5.971   4.533   4.212 -0.5242 -0.3916  0.1582
 5546TIP3   OH238052   3.838   4.183   2.509  0.5352 -0.2130 -0.3797
 5546TIP3    H138053   3.889   4.261   2.486 -0.2414  0.1088 -1.0405
 5546TIP3    H238054   3.899   4.129   2.559  1.2641  0.5516 -0.4204
 5547TIP3   OH238055   5.480   1.704  13.708 -0.1169 -0.1336 -0.9705
 5547TIP3    H138056   5.553   1.763  13.689 -2.0219  2.2533 -1.2967
 5547TIP3    H238057   5.480   1.696  13.803 -1.3105  2.5194 -0.6784
 5548TIP3   OH238058   1.830   2.648  14.893 -0.5413 -0.6305  0.7183
 5548TIP3    H138059   1.792   2.564  14.868 -0.0580 -0.8261  0.6146
 5548TIP3    H238060   1.858   2.687  14.810 -2.0154  0.2697  0.6150
 5549TIP3   OH238061   3.132   2.117   0.843 -0.0526  0.3493 -0.0394
 5549TIP3    H138062   3.086   2.135   0.761  0.5930 -0.1427 -0.5181
 5549TIP3    H238063   3.214   2.076   0.816  1.2063  2.2440  0.7314
 5550TIP3   OH238064   3.573   3.535  11.135 -0.2536  0.3152  0.3095
 5550TIP3    H138065   3.597   3.596  11.065  1.3297 -0.3994  0.2071
 5550TIP3    H238066   3.638   3.548  11.203  0.3401 -1.4830  0.1470
 5551TIP3   OH238067   0.645   3.886  14.317 -0.0133  0.0776  0.7474
 5551TIP3    H138068   0.634   3.855  14.407  1.7020  1.8553  1.6449
 5551TIP3    H238069   0.736   3.866  14.295 -0.5473 -0.7842 -0.8209
 5552TIP3   OH238070   0.731   4.168  11.755 -0.1073 -0.6590 -0.5976
 5552TIP3    H138071   0.741   4.263  11.768 -1.9730 -0.6475  1.4883
 5552TIP3    H238072   0.736   4.156  11.661 -0.1555  1.5791 -0.9545
 5553TIP3   OH238073   3.637   4.124   2.284  0.1013  0.0263 -0.4482
 5553TIP3    H138074   3.697   4.176   2.231  0.6479 -0.3432 -0.2034
 5553TIP3    H238075   3.684   4.110   2.366 -0.2303 -0.4548 -0.3396
 5554TIP3   OH238076   4.363   2.563  15.471 -0.0185  0.3499  0.3381
 5554TIP3    H138077   4.300   2.632  15.494  1.2438  1.1054  1.6647
 5554TIP3    H238078   4.428   2.607  15.417  1.0449  0.3475  1.5719
 5555TIP3   OH238079   2.847   6.456   1.126 -0.0257  0.1554 -0.5293
 5555TIP3    H138080   2.827   6.460   1.220  1.1980  0.8661 -0.2693
 5555TIP3    H238081   2.940   6.431   1.123 -0.6566 -2.3768 -1.6280
 5556TIP3   OH238082   0.713   6.077  10.478  0.2477 -0.1059  0.1423
 5556TIP3    H138083   0.651   6.050  10.410 -0.2750 -0.6896  0.8338
 5556TIP3    H238084   0.705   6.010  10.545  3.2483 -1.5092 -0.7000
 5557TIP3   OH238085   3.332   1.767  15.015  0.3132 -0.2517 -0.1124
 5557TIP3    H138086   3.287   1.756  15.099 -1.1566  1.5958 -0.6122
 5557TIP3    H238087   3.353   1.678  14.987 -1.1387 -1.0274  1.1597
 5558TIP3   OH238088   3.958   1.477   3.848 -0.4385  0.5295  0.1102
 5558TIP3    H138089   3.986   1.449   3.761  1.0022  0.0926  0.6728
 5558TIP3    H238090   3.975   1.402   3.904 -0.1153  1.2265  0.9844
 5559TIP3   OH238091   2.730   4.580  10.864  0.2720 -0.3795 -0.2008
 5559TIP3    H138092   2.648   4.531  10.851 -0.2924  0.6507 -0.6855
 5559TIP3    H238093   2.770   4.582  10.777  1.1553 -1.4245  0.1599
 5560TIP3   OH238094   5.321   1.998  13.777 -0.1631 -0.0152  0.6344
 5560TIP3    H138095   5.344   1.961  13.862 -0.7082 -0.5424  0.5593
 5560TIP3    H238096   5.229   1.976  13.765 -0.2653  0.6274  0.1943
 5561TIP3   OH238097   6.538   6.601  14.348 -0.1258  0.3959  0.8736
 5561TIP3    H138098   6.473   6.540  14.313  1.4400 -0.1217 -1.2870
 5561TIP3    H238099   6.502   6.688  14.331 -0.0217  0.1246 -0.8649
 5562TIP3   OH238100   2.532   5.243  16.260  0.1631 -0.3347 -0.5913
 5562TIP3    H138101   2.477   5.165  16.250 -0.4408  0.1993 -1.5465
 5562TIP3    H238102   2.498   5.286  16.338 -2.5878  1.3550 -2.5242
 5563TIP3   OH238103   1.636   5.186  14.940  0.1109  0.0602 -0.0401
 5563TIP3    H138104   1.608   5.095  14.934 -0.0407  0.0327  0.9748
 5563TIP3    H238105   1.729   5.181  14.963 -0.2082  0.1531  1.3193
 5564TIP3   OH238106   3.003   2.002  13.172  0.4319 -0.0526  0.5047
 5564TIP3    H138107   3.086   1.969  13.209 -0.6311 -1.9976  1.3037
 5564TIP3    H238108   2.991   1.952  13.092  1.0518  1.7843 -0.8007
 5565TIP3   OH238109   0.128   1.455  17.078  0.1344  0.3749 -0.0391
 5565TIP3    H138110   0.129   1.361  17.062 -1.7696  0.3733 -0.3827
 5565TIP3    H238111   0.199   1.470  17.141  0.9043 -1.1676 -0.5110
 5566TIP3   OH238112   5.688   1.619   3.919  0.4456  0.0601 -0.5291
 5566TIP3    H138113   5.724   1.615   3.830  0.8160 -0.4984 -0.3592
 5566TIP3    H238114   5.680   1.713   3.937  1.0383  0.1843 -0.8830
 5567TIP3   OH238115   0.328   1.131   5.798 -0.2902 -0.2020  0.6589
 5567TIP3    H138116   0.252   1.175   5.836 -0.3805  1.4906 -1.2956
 5567TIP3    H238117   0.291   1.076   5.729  0.1745  0.0636  0.1903
 5568TIP3   OH238118   5.236   2.501  10.942 -0.0372 -0.0241 -0.3054
 5568TIP3    H138119   5.260   2.519  10.851 -1.4470  0.0611 -0.6681
 5568TIP3    H238120   5.142   2.488  10.940 -0.2061  0.8252  1.2941
 5569TIP3   OH238121   4.560   3.989   1.360 -0.6524  0.4828 -0.2104
 5569TIP3    H138122   4.550   4.076   1.397  0.0379  0.3351  0.3421
 5569TIP3    H238123   4.628   4.000   1.293 -1.0797  0.5151 -0.6396
 5570TIP3   OH238124   2.549   0.200  12.989 -0.2530 -0.0060  0.0539
 5570TIP3    H138125   2.570   0.115  12.951  0.2415  0.7277 -1.3559
 5570TIP3    H238126   2.547   0.183  13.084  1.1333 -1.3037 -0.1026
 5571TIP3   OH238127   3.068   5.512   0.750 -0.2337  0.5117  0.3583
 5571TIP3    H138128   3.033   5.600   0.764  0.1477  0.6654  0.3564
 5571TIP3    H238129   3.049   5.465   0.831 -0.2231  0.6695  0.4527
 5572TIP3   OH238130   6.426   1.638   3.047 -0.5133  0.3996 -0.7730
 5572TIP3    H138131   6.351   1.616   2.991 -1.1901 -0.6134  0.4963
 5572TIP3    H238132   6.389   1.655   3.133  0.7801 -1.2373  0.1765
 5573TIP3   OH238133   2.176   6.352   3.447  0.3338 -0.4723 -0.4655
 5573TIP3    H138134   2.187   6.386   3.358 -0.5647  0.3865 -0.2610
 5573TIP3    H238135   2.085   6.322   3.450  0.4375 -0.7509  0.0878
 5574TIP3   OH238136   4.504   0.416  11.814 -0.4951  0.0324 -0.3870
 5574TIP3    H138137   4.582   0.457  11.774 -0.9474 -0.3741 -1.7350
 5574TIP3    H238138   4.473   0.355  11.747 -2.1152  0.3635  0.0355
 5575TIP3   OH238139   3.743   0.526  13.485  0.0152 -0.4438  0.1236
 5575TIP3    H138140   3.684   0.465  13.443  0.4431 -0.0964 -1.0062
 5575TIP3    H238141   3.816   0.472  13.515 -0.6671 -0.8139  1.1875
 5576TIP3   OH238142   1.518   4.490   6.337  0.1747 -0.5566 -0.8099
 5576TIP3    H138143   1.542   4.425   6.271 -1.5930 -0.0995 -1.9911
 5576TIP3    H238144   1.456   4.444   6.394 -0.5219 -0.1362 -1.2158
 5577TIP3   OH238145   4.546   1.317  15.067 -0.0369  0.2519  0.1673
 5577TIP3    H138146   4.516   1.281  14.983  2.3516  0.9277 -1.0741
 5577TIP3    H238147   4.641   1.307  15.064  0.1931  1.3857  2.2986
 5578TIP3   OH238148   5.986   0.124   3.844  0.2316 -0.2387 -0.0525
 5578TIP3    H138149   6.036   0.103   3.923  0.4629 -1.2823 -0.4596
 5578TIP3    H238150   5.957   0.040   3.811  0.3151  0.1686 -1.2041
 5579TIP3   OH238151   0.867   4.383   1.745  0.0241  0.4166 -0.1612
 5579TIP3    H138152   0.940   4.428   1.703 -0.6584  0.2017 -1.6443
 5579TIP3    H238153   0.892   4.379   1.837  1.3088  1.4424 -0.4243
 5580TIP3   OH238154   0.044   1.757  13.380  0.0667 -0.7026 -0.1625
 5580TIP3    H138155   0.091   1.776  13.461 -0.2118 -0.7716  0.0168
 5580TIP3    H238156  -0.048   1.759  13.405 -0.0850  0.6950 -0.7884
 5581TIP3   OH238157   0.259   5.260  13.455  0.2047  0.0106 -0.0232
 5581TIP3    H138158   0.280   5.284  13.546 -0.5463  1.5765 -0.2261
 5581TIP3    H238159   0.194   5.326  13.428 -0.5240 -1.1850 -1.2890
 5582TIP3   OH238160   2.227   3.507   4.499  0.3198 -0.0061  0.1818
 5582TIP3    H138161   2.233   3.595   4.534  1.2036  0.2625 -0.6056
 5582TIP3    H238162   2.141   3.504   4.457  0.0997  0.3314  0.6071
 5583TIP3   OH238163   0.233   0.969  12.121 -0.1172 -0.4130 -0.3085
 5583TIP3    H138164   0.198   0.977  12.210 -1.3710 -0.9672 -0.7190
 5583TIP3    H238165   0.292   1.043  12.111 -1.9416  1.1591  0.1205
 5584TIP3   OH238166   2.111   4.856  15.556 -0.0126  0.1038 -0.5253
 5584TIP3    H138167   2.137   4.933  15.607 -1.1809  0.8957 -1.0845
 5584TIP3    H238168   2.086   4.891  15.470 -0.4012 -0.9085 -0.8387
 5585TIP3   OH238169   2.010   1.732   0.402  0.3857  0.0204 -0.1890
 5585TIP3    H138170   1.987   1.815   0.359  0.1545  0.5267  0.8773
 5585TIP3    H238171   2.068   1.757   0.473 -1.0186 -0.5094  1.2119
 5586TIP3   OH238172   2.256   4.315   2.139  0.1320 -0.2364 -0.4070
 5586TIP3    H138173   2.282   4.374   2.068 -0.2006  0.1581 -0.2028
 5586TIP3    H238174   2.277   4.363   2.219  0.1674 -0.5336 -0.2347
 5587TIP3   OH238175   4.667   5.570   6.194 -0.2948  0.0351  1.0273
 5587TIP3    H138176   4.600   5.544   6.257 -1.5979 -1.4908 -0.8814
 5587TIP3    H238177   4.618   5.603   6.119  1.0755 -0.8231 -0.2976
 5588TIP3   OH238178   4.400   3.569   3.498 -0.7190  0.5672  0.3961
 5588TIP3    H138179   4.321   3.622   3.508 -1.9983 -0.9689 -1.0009
 5588TIP3    H238180   4.395   3.534   3.409  1.0446 -0.3750  0.6101
 5589TIP3   OH238181   5.922   0.924   2.519 -0.0919 -0.0929 -0.1236
 5589TIP3    H138182   5.848   0.947   2.575  1.3889 -0.5095  2.1355
 5589TIP3    H238183   5.934   0.830   2.534  0.7178 -0.0814 -0.6711
 5590TIP3   OH238184   0.379   0.959  14.200  0.0217  0.5426  0.6281
 5590TIP3    H138185   0.302   0.969  14.256 -1.0361  0.3617 -0.7226
 5590TIP3    H238186   0.360   0.881  14.147  0.0013  1.8642 -1.4149
 5591TIP3   OH238187   6.473   2.165   1.044 -0.1032  0.1511  0.2741
 5591TIP3    H138188   6.560   2.142   1.078  0.6421 -0.1715 -1.7091
 5591TIP3    H238189   6.432   2.080   1.025 -0.6795  0.3157  0.7634
 5592TIP3   OH238190   3.624   4.490  13.942 -0.4084 -0.1493 -1.2278
 5592TIP3    H138191   3.623   4.394  13.948 -0.5122 -0.1205 -0.7826
 5592TIP3    H238192   3.532   4.515  13.947 -0.4104 -0.0427 -1.6956
 5593TIP3   OH238193   1.392   0.553  16.053  0.0177 -0.4697 -0.5377
 5593TIP3    H138194   1.336   0.484  16.088 -2.5827  1.1496 -1.2851
 5593TIP3    H238195   1.481   0.524  16.075 -0.9830 -3.6038 -0.1063
 5594TIP3   OH238196   1.460   3.943  12.955  0.0983  0.4630 -0.3224
 5594TIP3    H138197   1.421   3.958  12.869 -3.1958  0.0798  0.9376
 5594TIP3    H238198   1.437   4.022  13.006 -0.1856 -0.3439  0.8476
 5595TIP3   OH238199   0.785   2.073   2.572 -0.5201  0.0928 -0.5139
 5595TIP3    H138200   0.753   2.135   2.505 -0.9706  1.1227  0.6092
 5595TIP3    H238201   0.863   2.034   2.534 -0.3562  1.1971 -1.3521
 5596TIP3   OH238202   3.634   4.867  15.932  0.3156  0.2423 -0.0835
 5596TIP3    H138203   3.598   4.950  15.964  2.4335  1.3355 -0.3574
 5596TIP3    H238204   3.557   4.818  15.901 -1.1537  1.4839  1.3730
 5597TIP3   OH238205   2.645   4.736   6.548  0.0915  0.5353  0.5379
 5597TIP3    H138206   2.597   4.687   6.615 -1.6415  1.1901 -0.1892
 5597TIP3    H238207   2.688   4.806   6.597 -0.7072  0.6822  1.0486
 5598TIP3   OH238208   5.755   6.440   5.649 -0.3690 -0.3338  0.1888
 5598TIP3    H138209   5.735   6.497   5.722  0.9687  1.3753 -0.7052
 5598TIP3    H238210   5.671   6.403   5.623 -1.1967  0.8210  1.1403
 5599TIP3   OH238211   3.543   3.180   4.368  0.1528 -0.0039  0.5546
 5599TIP3    H138212   3.595   3.101   4.355 -1.2886 -0.7933 -0.7867
 5599TIP3    H238213   3.519   3.179   4.460  0.9212 -0.6284  0.7551
 5600TIP3   OH238214   6.655   3.174  10.751  0.4945 -0.4086  0.0948
 5600TIP3    H138215   6.639   3.256  10.797 -1.1508 -0.4966 -0.2630
 5600TIP3    H238216   6.646   3.106  10.818 -1.8162 -0.5307 -0.2711
 5601TIP3   OH238217   2.781   2.766   3.061  0.0766 -0.2511 -0.4396
 5601TIP3    H138218   2.809   2.852   3.029  0.1055 -1.1578 -3.1554
 5601TIP3    H238219   2.686   2.768   3.055 -0.3077  0.9221  3.5140
 5602TIP3   OH238220   5.683   3.094  11.160 -0.3557 -0.6535  0.4703
 5602TIP3    H138221   5.676   3.090  11.065  2.0754 -0.3954  0.2247
 5602TIP3    H238222   5.634   3.018  11.191 -1.5179 -0.5194 -0.9362
 5603TIP3   OH238223   2.542   3.832  11.686  0.3861  0.0036  0.7714
 5603TIP3    H138224   2.537   3.748  11.639  0.8686  0.2308  0.2952
 5603TIP3    H238225   2.635   3.843  11.705  0.2286  0.0626  1.5299
 5604TIP3   OH238226   3.121   6.399   1.049 -0.3293 -0.5826  0.5083
 5604TIP3    H138227   3.202   6.356   1.020  0.3180  0.5541  0.5685
 5604TIP3    H238228   3.114   6.476   0.994 -0.7315 -0.0314  1.3068
 5605TIP3   OH238229   1.698   4.704   4.545  0.2413  0.4681  0.0586
 5605TIP3    H138230   1.720   4.635   4.482 -2.7855  0.4552 -1.1447
 5605TIP3    H238231   1.750   4.779   4.518  1.5609 -0.5351 -0.2901
 5606TIP3   OH238232   5.709   5.956  12.109 -0.9686 -0.4875 -0.2958
 5606TIP3    H138233   5.730   5.902  12.033 -0.5361 -2.5381  1.2183
 5606TIP3    H238234   5.779   5.939  12.171 -0.2390  2.6572 -0.1005
 5607TIP3   OH238235   4.822   1.579   5.555  1.0680  0.7211  0.3994
 5607TIP3    H138236   4.749   1.641   5.547 -0.6151 -1.0296  1.3567
 5607TIP3    H238237   4.840   1.551   5.465 -1.9055 -1.4379  0.3344
 5608TIP3   OH238238   5.433   3.689  14.407 -0.2637 -0.4184  0.4950
 5608TIP3    H138239   5.504   3.628  14.426  2.4882  1.9169 -1.5375
 5608TIP3    H238240   5.394   3.656  14.326 -0.8755 -1.1328  1.0638
 5609TIP3   OH238241   6.768   4.359  16.072 -0.6090 -0.2851  0.8041
 5609TIP3    H138242   6.689   4.393  16.113 -0.7015  0.3161  0.1463
 5609TIP3    H238243   6.801   4.432  16.019  0.3339 -0.5538  0.9985
 5610TIP3   OH238244   6.365   1.964  13.400 -0.2207  0.4353  0.0059
 5610TIP3    H138245   6.394   1.939  13.487 -2.0959  0.2033  0.6134
 5610TIP3    H238246   6.302   1.896  13.375 -0.9287  1.3690 -0.8317
 5611TIP3   OH238247   6.081   4.502   3.933 -0.2883 -0.6121  0.4439
 5611TIP3    H138248   6.010   4.447   3.900  0.6399 -1.8049  0.3799
 5611TIP3    H238249   6.076   4.582   3.880 -0.7756 -1.2136 -0.4430
 5612TIP3   OH238250   6.320   5.773   3.366 -0.3767  0.3333  0.1180
 5612TIP3    H138251   6.272   5.839   3.317  1.3849  0.7879 -1.0960
 5612TIP3    H238252   6.301   5.690   3.322 -2.9094 -0.1439  1.8803
 5613TIP3   OH238253   2.474   6.509  16.845 -0.1517 -0.6790 -0.4202
 5613TIP3    H138254   2.563   6.521  16.810 -0.1976 -0.6706 -0.5314
 5613TIP3    H238255   2.450   6.596  16.877  1.5032 -1.3819  3.4195
 5614TIP3   OH238256   6.340   5.671   2.676  0.0648 -0.0225 -0.2000
 5614TIP3    H138257   6.346   5.767   2.672  1.2302 -0.0898 -0.5408
 5614TIP3    H238258   6.388   5.641   2.599  0.3469 -0.8954  0.2974
 5615TIP3   OH238259   6.559   5.260  14.201 -0.3785 -0.7544 -0.2130
 5615TIP3    H138260   6.557   5.238  14.294  0.4384  0.3978  0.0984
 5615TIP3    H238261   6.467   5.267  14.176 -0.6322 -2.2220  0.2012
 5616TIP3   OH238262   4.183   2.551   5.331 -0.5993  0.1363  0.0773
 5616TIP3    H138263   4.140   2.557   5.417  0.0706  0.0243  0.4329
 5616TIP3    H238264   4.252   2.486   5.344 -0.4996  0.1171 -0.5515
 5617TIP3   OH238265   5.206   4.258   5.131 -0.3917  0.1416 -0.3460
 5617TIP3    H138266   5.113   4.284   5.130 -1.1817 -2.4086 -0.6865
 5617TIP3    H238267   5.208   4.176   5.082  2.2651  0.6785 -1.2819
 5618TIP3   OH238268   4.728   4.153  16.026 -0.3872 -0.2025  0.1326
 5618TIP3    H138269   4.674   4.215  15.977 -0.6588  1.0104  1.8602
 5618TIP3    H238270   4.817   4.185  16.016 -0.5146  0.4332  0.9239
 5619TIP3   OH238271   6.619   1.860   0.675  0.5894  0.0590  0.6828
 5619TIP3    H138272   6.608   1.911   0.595 -1.2814  0.4133  1.1293
 5619TIP3    H238273   6.689   1.905   0.723 -0.2391  1.5656  0.5456
 5620TIP3   OH238274   1.034   1.841   3.424  0.1828 -0.4572 -0.2435
 5620TIP3    H138275   0.950   1.862   3.465  0.6257  1.0966 -0.0640
 5620TIP3    H238276   1.080   1.925   3.420  1.8452 -1.3261 -0.0745
 5621TIP3   OH238277   5.565   2.472  14.902  0.3622  0.0315  0.3006
 5621TIP3    H138278   5.560   2.566  14.923 -0.3174  0.2286 -0.6736
 5621TIP3    H238279   5.481   2.452  14.861  0.6323 -0.9333  0.1966
 5622TIP3   OH238280   5.277   6.512   0.208  0.2066  0.0793 -0.1668
 5622TIP3    H138281   5.218   6.465   0.267 -1.4595  0.8289 -1.1528
 5622TIP3    H238282   5.356   6.526   0.259 -1.5772  1.8081  2.3578
 5623TIP3   OH238283   4.443   4.064  16.888 -0.3559 -0.2252  0.1785
 5623TIP3    H138284   4.509   4.083  16.821 -0.8979  0.0767 -0.2764
 5623TIP3    H238285   4.462   3.974  16.915 -1.5968 -1.2515 -2.0849
 5624TIP3   OH238286   3.844   0.634   5.965 -0.2566 -0.2467  0.7742
 5624TIP3    H138287   3.753   0.652   5.989 -0.6220 -3.2371  2.0764
 5624TIP3    H238288   3.893   0.708   6.002 -2.1118  1.5155 -0.0842
 5625TIP3   OH238289   0.825   2.494  14.531  0.0515 -0.0640  0.2998
 5625TIP3    H138290   0.869   2.515  14.613  0.1820  0.3280  0.1339
 5625TIP3    H238291   0.831   2.575  14.479  0.1180 -0.3594 -0.1566
 5626TIP3   OH238292   3.039   5.217   3.203  0.6590 -0.2256 -0.4424
 5626TIP3    H138293   3.020   5.225   3.296  0.2345  0.8106 -0.5983
 5626TIP3    H238294   2.956   5.188   3.164  0.5674  0.2107 -0.5914
 5627TIP3   OH238295   3.325   4.886  10.584 -0.1469  0.3255  0.3702
 5627TIP3    H138296   3.354   4.967  10.626 -0.1966 -0.1885  1.4284
 5627TIP3    H238297   3.231   4.881  10.605  0.2011 -0.8638  1.8247
 5628TIP3   OH238298   5.612   5.920   0.923 -0.2036  0.3200 -0.8671
 5628TIP3    H138299   5.688   5.921   0.866  0.1967  2.1222 -0.3810
 5628TIP3    H238300   5.556   5.991   0.889 -1.1233 -0.2131 -0.5108
 5629TIP3   OH238301   5.821   4.601   1.117 -0.4994 -0.3787  0.1131
 5629TIP3    H138302   5.773   4.579   1.197 -2.2349 -0.2380 -0.8355
 5629TIP3    H238303   5.772   4.556   1.047  0.7446 -0.1794 -0.9147
 5630TIP3   OH238304   5.699   5.089   4.909  0.5766 -0.4396 -0.2192
 5630TIP3    H138305   5.744   5.173   4.920 -0.2189 -0.0245 -0.0955
 5630TIP3    H238306   5.724   5.039   4.986  0.2650  0.0557  0.2119
 5631TIP3   OH238307   2.634   0.039  15.323 -0.0298  0.1771  0.2902
 5631TIP3    H138308   2.675   0.059  15.407 -1.7794  2.2513  0.7549
 5631TIP3    H238309   2.546   0.075  15.330  0.0620  1.3489 -2.7489
 5632TIP3   OH238310   1.918   1.077   0.193 -0.3987 -0.6256 -0.0489
 5632TIP3    H138311   1.845   1.131   0.224  0.6180  0.3437  0.7639
 5632TIP3    H238312   1.924   1.096   0.100 -1.7645 -1.4631 -0.3425
 5633TIP3   OH238313   5.445   6.678   2.005 -0.3788  0.0806 -0.0958
 5633TIP3    H138314   5.503   6.647   1.934 -1.8748 -0.8492 -0.9759
 5633TIP3    H238315   5.498   6.669   2.084  0.7517 -0.5853 -0.8869
 5634TIP3   OH238316   2.950   6.508   4.779 -0.1629 -0.3074 -0.1558
 5634TIP3    H138317   2.946   6.412   4.781  0.0569 -0.3062  1.4283
 5634TIP3    H238318   2.870   6.534   4.733  0.3075 -1.2595 -1.5748
 5635TIP3   OH238319   0.636   4.171  14.214  0.3035 -0.7988  0.4894
 5635TIP3    H138320   0.663   4.088  14.253  0.3876 -1.6063 -1.2033
 5635TIP3    H238321   0.590   4.146  14.134 -0.5086  0.7670  0.4178
 5636TIP3   OH238322   6.633   6.273  15.144 -0.0227 -0.0555  0.2452
 5636TIP3    H138323   6.659   6.301  15.055  0.3081  0.5779  0.5309
 5636TIP3    H238324   6.562   6.333  15.168 -0.1725 -0.2856  0.3726
 5637TIP3   OH238325   6.183   5.399  15.669 -0.2109  0.3393 -0.6110
 5637TIP3    H138326   6.273   5.406  15.700 -0.4145  1.7756 -0.3020
 5637TIP3    H238327   6.191   5.384  15.575  0.3664 -1.7837 -0.2841
 5638TIP3   OH238328   3.167   4.480   5.440  0.2044 -0.0478 -0.0841
 5638TIP3    H138329   3.173   4.505   5.347 -0.8573  0.1990 -0.0903
 5638TIP3    H238330   3.078   4.501   5.465  0.4490 -0.2312  0.9749
 5639TIP3   OH238331   4.209   0.121   0.143  0.0816 -0.7317 -0.0552
 5639TIP3    H138332   4.125   0.080   0.163 -0.3401 -0.1433 -0.5955
 5639TIP3    H238333   4.263   0.050   0.108  0.5914 -1.6403  2.3397
 5640TIP3   OH238334   0.268   5.562  16.976 -0.4767  0.4989 -0.0005
 5640TIP3    H138335   0.214   5.528  17.048 -0.1210  0.6303  0.3303
 5640TIP3    H238336   0.225   5.644  16.952 -2.0218 -0.6852 -1.5789
 5641TIP3   OH238337   3.426   3.026  14.157 -0.1719  0.3521 -0.1006
 5641TIP3    H138338   3.467   3.095  14.208  1.0032 -0.5541  0.2444
 5641TIP3    H238339   3.377   2.974  14.221 -1.2160  0.9664 -0.3879
 5642TIP3   OH238340   0.839   6.628  12.711  0.3123  0.6711 -0.1002
 5642TIP3    H138341   0.902   6.609  12.780 -1.0003 -0.0392  0.9588
 5642TIP3    H238342   0.881   6.598  12.630  0.4619 -1.9070  0.8486
 5643TIP3   OH238343   0.380   2.808  16.202 -0.1675  0.1024  0.2257
 5643TIP3    H138344   0.458   2.757  16.222  0.4808  0.7680 -0.5255
 5643TIP3    H238345   0.310   2.765  16.251  0.1154 -2.1981 -1.2339
 5644TIP3   OH238346   2.596   4.719  15.358  0.1266 -0.3988  0.4165
 5644TIP3    H138347   2.516   4.671  15.337 -0.7969  1.4422 -0.5343
 5644TIP3    H238348   2.660   4.687  15.294 -0.0086 -1.4098  0.7655
 5645TIP3   OH238349   3.431   4.549  11.490  0.0602  0.0812  0.4167
 5645TIP3    H138350   3.480   4.575  11.412 -2.8124  0.9132 -1.2584
 5645TIP3    H238351   3.445   4.620  11.552 -0.2877  1.1082 -0.6379
 5646TIP3   OH238352   5.384   4.548  11.502 -0.0438  0.1248 -0.4800
 5646TIP3    H138353   5.439   4.610  11.551 -1.0528 -0.6202  1.7304
 5646TIP3    H238354   5.443   4.476  11.480  0.4581  0.5155 -0.4420
 5647TIP3   OH238355   5.477   4.033  16.819 -0.1061  0.0368  0.3839
 5647TIP3    H138356   5.568   4.049  16.845 -0.2290  0.5923  0.4991
 5647TIP3    H238357   5.446   3.964  16.877 -0.5908  1.7024  2.2242
 5648TIP3   OH238358   3.824   6.176  12.579 -0.4347 -0.4190  0.4753
 5648TIP3    H138359   3.908   6.159  12.538  0.1905  0.6141  1.2597
 5648TIP3    H238360   3.764   6.114  12.538  0.7110 -1.2127 -0.0600
 5649TIP3   OH238361   0.847   6.336   3.446 -0.2005  0.2596  0.5231
 5649TIP3    H138362   0.887   6.299   3.525  1.7123  0.4218 -0.3148
 5649TIP3    H238363   0.890   6.290   3.374 -0.7387  1.2514 -0.4542
 5650TIP3   OH238364   6.466   5.865   3.012  0.4015  0.5658  0.1775
 5650TIP3    H138365   6.467   5.862   3.108  0.2574  0.3936  0.1748
 5650TIP3    H238366   6.443   5.955   2.992  1.1525  0.7936  0.2970
 5651TIP3   OH238367   6.507   1.102   4.269 -0.0664 -0.2257 -0.3079
 5651TIP3    H138368   6.437   1.051   4.311 -1.0261  0.2641 -1.2693
 5651TIP3    H238369   6.587   1.068   4.308 -0.9070  0.9368  2.7478
 5652TIP3   OH238370   5.239   0.397  10.604 -0.5906  0.1090  0.2974
 5652TIP3    H138371   5.232   0.480  10.555 -2.9553  0.1675  0.6225
 5652TIP3    H238372   5.165   0.345  10.572 -1.0335 -0.6113  2.3711
 5653TIP3   OH238373   2.256   2.366  13.993  0.4207  0.1330  0.2929
 5653TIP3    H138374   2.325   2.316  14.036 -0.4347 -0.1784  1.3489
 5653TIP3    H238375   2.206   2.405  14.065 -0.3989  0.4984 -0.4518
 5654TIP3   OH238376   0.499   3.111   3.045 -0.1722 -0.5113 -0.0660
 5654TIP3    H138377   0.429   3.062   3.088 -1.4202  0.4791 -0.9139
 5654TIP3    H238378   0.564   3.044   3.023 -1.1845 -1.5693  0.0768
 5655TIP3   OH238379   2.407   3.393   0.521  0.4313  0.0437  0.0399
 5655TIP3    H138380   2.439   3.419   0.434 -0.7022 -1.4816 -0.8777
 5655TIP3    H238381   2.319   3.430   0.527  0.4964  0.1277  0.5354
 5656TIP3   OH238382   4.956   4.745   0.012 -0.1378  0.4531  0.3010
 5656TIP3    H138383   4.990   4.716   0.096  0.3325 -0.9957 -0.3534
 5656TIP3    H238384   4.881   4.687  -0.006  0.8169 -0.4312 -1.0395
 5657TIP3   OH238385   4.317   1.493   4.775 -0.3000  0.4626 -0.4241
 5657TIP3    H138386   4.341   1.492   4.868  0.6784 -1.6989 -0.6385
 5657TIP3    H238387   4.239   1.437   4.770  1.6991 -2.4789 -1.2883
 5658TIP3   OH238388   6.121   3.236  12.769  0.8024  0.1056 -0.0768
 5658TIP3    H138389   6.198   3.289  12.793 -0.1368  1.7913 -0.6402
 5658TIP3    H238390   6.046   3.289  12.797 -0.1852 -1.0362 -0.4923
 5659TIP3   OH238391   6.483   2.281   1.753 -0.1125 -0.0808  0.6535
 5659TIP3    H138392   6.520   2.305   1.838 -0.4713  1.5748  0.3772
 5659TIP3    H238393   6.449   2.193   1.766  0.2142 -0.0229  2.1060
 5660TIP3   OH238394   0.026   0.095  16.647 -0.0763  0.4717 -0.0473
 5660TIP3    H138395   0.064   0.008  16.654 -1.1751 -0.1857 -1.6986
 5660TIP3    H238396   0.100   0.155  16.654  0.7303 -0.5965  0.7611
 5661TIP3   OH238397   6.155   6.421   3.798  0.0614  0.0382  0.2764
 5661TIP3    H138398   6.228   6.483   3.792  1.3205 -1.1851  1.9155
 5661TIP3    H238399   6.091   6.464   3.854 -0.1039  0.7787 -0.4729
 5662TIP3   OH238400   1.576   1.145   3.114  0.0880  0.5096  0.2668
 5662TIP3    H138401   1.529   1.111   3.190  0.2994  1.2447  0.7311
 5662TIP3    H238402   1.530   1.226   3.091  0.8656  1.0118  0.4617
 5663TIP3   OH238403   1.286   0.607  13.614 -0.0571  0.3795 -0.3594
 5663TIP3    H138404   1.358   0.558  13.573 -0.3622  0.6192 -1.2064
 5663TIP3    H238405   1.298   0.697  13.584  0.3234  0.7889  0.9469
 5664TIP3   OH238406   1.813   6.120   0.743 -0.1609 -0.2536 -0.1213
 5664TIP3    H138407   1.728   6.158   0.764  0.1903 -0.4470  1.8208
 5664TIP3    H238408   1.876   6.170   0.796  0.6600 -1.5734  0.1937
 5665TIP3   OH238409   0.517   3.724  16.237  0.3205  0.3094  0.1933
 5665TIP3    H138410   0.505   3.758  16.326 -0.4821  0.3522  0.0822
 5665TIP3    H238411   0.433   3.682  16.216  0.1384  1.1653 -0.9089
 5666TIP3   OH238412   4.356   4.413  14.915  0.0308  0.1769  0.4628
 5666TIP3    H138413   4.392   4.374  14.835  1.6626  1.4951  0.5001
 5666TIP3    H238414   4.338   4.504  14.890  1.0107  0.7365  1.6934
 5667TIP3   OH238415   6.429   3.951   1.255  0.3870  0.3511  0.3820
 5667TIP3    H138416   6.377   3.960   1.176  1.9525  0.3144 -0.7033
 5667TIP3    H238417   6.365   3.947   1.326 -1.0225  1.4300 -0.7673
 5668TIP3   OH238418   0.135   6.628  16.661 -0.5786 -0.3398  0.4467
 5668TIP3    H138419   0.066   6.569  16.694 -0.1000 -1.9939 -1.3129
 5668TIP3    H238420   0.206   6.620  16.725 -1.6559  0.7630  1.8540
 5669TIP3   OH238421   4.998   0.306  11.587  0.6999 -0.7399 -0.3684
 5669TIP3    H138422   5.006   0.350  11.671 -1.2119 -0.7368 -0.1245
 5669TIP3    H238423   4.936   0.235  11.603  0.1565 -0.6210 -1.7938
 5670TIP3   OH238424   1.484   3.200   4.387  0.1735  0.5993  0.1234
 5670TIP3    H138425   1.519   3.222   4.301  1.7264  1.8490  1.0018
 5670TIP3    H238426   1.554   3.150   4.429  0.4954  2.0701  1.4765
 5671TIP3   OH238427   4.574   4.401  10.831 -0.0223 -0.0742  0.0054
 5671TIP3    H138428   4.663   4.435  10.834 -0.1790  0.3215  2.7618
 5671TIP3    H238429   4.520   4.477  10.807  0.3116 -0.1801 -1.1071
 5672TIP3   OH238430   5.847   4.096  15.675 -0.0951  0.2430 -0.2306
 5672TIP3    H138431   5.816   4.089  15.766  0.0167  0.2086 -0.1946
 5672TIP3    H238432   5.871   4.188  15.666  0.8357  0.0414  0.0819
 5673TIP3   OH238433   1.201   5.197   4.817  0.6534 -0.4722  0.0858
 5673TIP3    H138434   1.111   5.186   4.847  0.9792  1.4219  2.0600
 5673TIP3    H238435   1.228   5.111   4.786 -1.8011 -1.0800 -0.5260
 5674TIP3   OH238436   2.724   4.176   4.000 -0.0826 -0.4351  0.5257
 5674TIP3    H138437   2.701   4.102   4.056  0.6194 -1.3155 -0.3255
 5674TIP3    H238438   2.755   4.137   3.919 -0.7640  0.8156 -0.3808
 5675TIP3   OH238439   2.860   5.352  11.175 -0.7412 -0.0184 -0.7384
 5675TIP3    H138440   2.903   5.435  11.153 -2.0514  0.4494 -1.7102
 5675TIP3    H238441   2.793   5.342  11.108 -1.3038 -1.3475 -0.0139
 5676TIP3   OH238442   1.213   1.796  11.448  0.3697  0.2733 -0.4059
 5676TIP3    H138443   1.140   1.858  11.450 -2.9353 -3.2441  1.3959
 5676TIP3    H238444   1.211   1.760  11.359 -1.0737 -0.7106 -0.0150
 5677TIP3   OH238445   6.341   5.894  12.594 -0.0257 -0.3687  0.4040
 5677TIP3    H138446   6.428   5.863  12.570 -0.5784 -0.0244 -2.2927
 5677TIP3    H238447   6.357   5.966  12.656  1.5114 -1.2249  1.0528
 5678TIP3   OH238448   4.516   0.326   5.781 -0.1913 -0.6315  0.2574
 5678TIP3    H138449   4.429   0.356   5.753  0.5346 -1.1406 -2.9563
 5678TIP3    H238450   4.523   0.237   5.746  0.6371 -1.7078  2.9309
 5679TIP3   OH238451   5.745   3.797  15.037  0.4044 -0.2480  0.0738
 5679TIP3    H138452   5.763   3.787  15.131  1.2746  0.3212 -0.0127
 5679TIP3    H238453   5.654   3.825  15.033  0.2736 -0.5468  0.7352
 5680TIP3   OH238454   2.003   4.242  12.405 -0.2157 -0.6872  0.2213
 5680TIP3    H138455   2.013   4.334  12.431 -1.1868 -0.2432 -0.8715
 5680TIP3    H238456   2.092   4.211  12.392  0.1626 -0.1710  1.4957
 5681TIP3   OH238457   3.635   0.100   1.776  0.7862  0.1474 -0.2236
 5681TIP3    H138458   3.706   0.038   1.757  0.4895 -0.2253 -0.1193
 5681TIP3    H238459   3.663   0.145   1.856  0.7544 -0.2233 -0.0060
 5682TIP3   OH238460   5.902   2.412   3.460  0.0775  0.5335  0.1271
 5682TIP3    H138461   5.809   2.395   3.479 -0.1604  2.9085  1.4218
 5682TIP3    H238462   5.905   2.504   3.434  1.9963  0.2883 -0.6850
 5683TIP3   OH238463   2.855   5.850   3.804 -0.4070  0.0088 -0.4044
 5683TIP3    H138464   2.772   5.803   3.802 -1.0340  1.1056 -0.6588
 5683TIP3    H238465   2.917   5.786   3.840 -1.6441 -0.3525  1.2250
 5684TIP3   OH238466   0.114   6.294  16.671  0.1655  0.5471  0.3208
 5684TIP3    H138467   0.041   6.349  16.642  0.1729 -0.2003 -1.2348
 5684TIP3    H238468   0.160   6.271  16.590  1.8720  0.6289  1.2192
 5685TIP3   OH238469   4.854   5.840  12.144 -0.3427  0.2482 -0.1596
 5685TIP3    H138470   4.935   5.866  12.100 -0.5803 -1.2672 -1.6101
 5685TIP3    H238471   4.821   5.920  12.184  0.6498  1.3943 -1.5344
 5686TIP3   OH238472   4.330   3.912   1.672  0.1252 -0.2502  0.2605
 5686TIP3    H138473   4.261   3.849   1.655  0.1151 -0.1969  0.1029
 5686TIP3    H238474   4.411   3.865   1.654  0.1267 -0.2954  0.3887
 5687TIP3   OH238475   5.047   1.027   2.678 -0.1308 -0.1336 -0.1319
 5687TIP3    H138476   5.130   1.030   2.727  0.1660  2.1620 -0.6845
 5687TIP3    H238477   4.993   0.966   2.728  0.0859  2.1877  3.2881
 5688TIP3   OH238478   4.709   1.531  13.027 -0.1399 -0.0132 -0.1690
 5688TIP3    H138479   4.665   1.604  12.985  2.5006  1.3053 -0.8496
 5688TIP3    H238480   4.710   1.462  12.961 -0.5862  0.1634 -0.3628
 5689TIP3   OH238481   0.800   1.913   2.224 -0.6237 -0.2883 -0.3505
 5689TIP3    H138482   0.894   1.903   2.242 -0.4694  0.8908 -0.4492
 5689TIP3    H238483   0.757   1.861   2.292  0.0396  1.4753  1.5192
 5690TIP3   OH238484   1.700   1.663  11.331 -0.0072  0.0190  0.2506
 5690TIP3    H138485   1.699   1.758  11.314  0.7213  0.0147  0.1698
 5690TIP3    H238486   1.791   1.644  11.354 -0.3859 -0.4737  1.3552
 5691TIP3   OH238487   4.056   5.844   1.935  0.1340  0.7341 -0.0749
 5691TIP3    H138488   4.115   5.919   1.937 -0.9599  1.6295  1.8896
 5691TIP3    H238489   3.982   5.874   1.881 -1.0037  1.7383  1.9053
 5692TIP3   OH238490   4.601   5.347  13.060 -0.1200  0.4023 -0.3225
 5692TIP3    H138491   4.513   5.334  13.096 -1.0944  2.4675 -1.7193
 5692TIP3    H238492   4.609   5.442  13.053  2.5607  0.2897  0.4787
 5693TIP3   OH238493   1.391   4.174  13.056 -0.6558  0.2033  0.0543
 5693TIP3    H138494   1.301   4.155  13.083 -0.9489  2.6372  1.0062
 5693TIP3    H238495   1.410   4.260  13.093  1.2849  0.7753 -2.0149
 5694TIP3   OH238496   4.997   5.650  15.538  0.4466 -0.1525 -0.0409
 5694TIP3    H138497   4.969   5.702  15.463  0.9442 -1.3115 -1.0662
 5694TIP3    H238498   4.922   5.593  15.557 -0.3542  1.3181  1.5016
 5695TIP3   OH238499   3.542   2.668   0.607  0.3978  0.4114  0.4039
 5695TIP3    H138500   3.541   2.694   0.699 -1.3843 -0.9202  0.8167
 5695TIP3    H238501   3.605   2.597   0.603  0.0211  0.0501  0.7469
 5696TIP3   OH238502   5.378   6.535  15.951 -0.7015  0.0620  0.0367
 5696TIP3    H138503   5.457   6.522  16.003 -0.3730  2.2820  0.2065
 5696TIP3    H238504   5.330   6.452  15.958  0.5460 -0.5641  1.7512
 5697TIP3   OH238505   3.836   0.070  11.885 -0.0878  0.3252  0.4437
 5697TIP3    H138506   3.801   0.159  11.891 -0.1884  0.2579  0.8907
 5697TIP3    H238507   3.891   0.060  11.962  0.7095  0.3310 -0.1164
 5698TIP3   OH238508   5.314   0.575  13.807 -0.1070 -0.1718 -0.7157
 5698TIP3    H138509   5.223   0.604  13.797  0.3579  1.5870 -0.2215
 5698TIP3    H238510   5.335   0.533  13.724 -0.8280  1.0035 -1.5333
 5699TIP3   OH238511   3.092   5.191  16.462 -0.0112  0.4233 -0.0659
 5699TIP3    H138512   3.005   5.153  16.472 -0.6690  1.4176 -1.6124
 5699TIP3    H238513   3.084   5.280  16.497  0.2704  0.6540 -0.5793
 5700TIP3   OH238514   4.629   3.321  14.326 -0.3301 -0.5604 -0.0297
 5700TIP3    H138515   4.653   3.378  14.399  2.0053  0.9014 -1.8191
 5700TIP3    H238516   4.692   3.249  14.330 -2.0963 -2.1511  1.0942
 5701TIP3   OH238517   4.857   3.939  13.236 -0.1700 -0.9327  0.6036
 5701TIP3    H138518   4.848   4.009  13.301  0.3495 -0.4451  0.1646
 5701TIP3    H238519   4.882   3.862  13.287  2.1900 -0.1146  0.8268
 5702TIP3   OH238520   1.838   4.609  10.771  0.3292 -0.0007  0.7749
 5702TIP3    H138521   1.879   4.568  10.694 -0.4406 -0.4277  0.5744
 5702TIP3    H238522   1.884   4.692  10.782 -1.2035  1.3012 -1.7243
 5703TIP3   OH238523   3.715   2.883   2.613 -0.1714 -0.4853 -0.5375
 5703TIP3    H138524   3.713   2.976   2.587  2.3749 -0.2886 -0.2541
 5703TIP3    H238525   3.709   2.835   2.530  1.4631  0.0207 -0.9856
 5704TIP3   OH238526   1.220   3.664   3.370 -0.0811 -0.0383 -0.0042
 5704TIP3    H138527   1.143   3.635   3.419 -0.3709 -0.3935 -0.6545
 5704TIP3    H238528   1.292   3.610   3.404 -0.3991 -0.7137 -0.3950
 5705TIP3   OH238529   5.795   3.419  13.826  0.3367  0.4591  0.4160
 5705TIP3    H138530   5.844   3.500  13.812 -0.1983  0.6288 -0.5730
 5705TIP3    H238531   5.707   3.448  13.852  0.9011  0.1578  2.9785
 5706TIP3   OH238532   1.461   5.890   0.772  0.4300 -0.4491  0.3464
 5706TIP3    H138533   1.487   5.952   0.840 -1.2871  1.1527 -0.3990
 5706TIP3    H238534   1.404   5.828   0.817 -0.8071  0.6825  0.4016
 5707TIP3   OH238535   3.693   5.482   1.894  0.0165 -0.3917 -0.2003
 5707TIP3    H138536   3.709   5.393   1.927 -1.6811 -0.4870  0.4622
 5707TIP3    H238537   3.610   5.476   1.848 -0.2012  0.8909 -0.0008
 5708TIP3   OH238538   0.563   4.053  15.814  0.0420 -0.0756 -0.4584
 5708TIP3    H138539   0.631   3.986  15.824  0.4910  0.4301 -0.0110
 5708TIP3    H238540   0.509   4.044  15.893  1.0170  1.0726  0.3932
 5709TIP3   OH238541   4.171   4.250   1.393 -0.1595 -0.4740 -0.3297
 5709TIP3    H138542   4.231   4.305   1.445  1.4259 -3.3780  1.1435
 5709TIP3    H238543   4.223   4.224   1.317  0.0190 -1.9467  0.2789
 5710TIP3   OH238544   1.231   4.102  14.881  1.0180  0.0346 -0.0155
 5710TIP3    H138545   1.295   4.170  14.857 -0.1623  1.4495  0.6846
 5710TIP3    H238546   1.240   4.036  14.812  1.3031  1.5336 -1.4895
 5711TIP3   OH238547   3.234   5.167  16.912  0.3812 -0.2264  0.0054
 5711TIP3    H138548   3.326   5.146  16.897  0.5894  1.8286 -2.2527
 5711TIP3    H238549   3.187   5.086  16.896  1.6776 -0.9066 -0.4204
 5712TIP3   OH238550   0.971   2.812  13.599 -0.0092 -0.1558 -0.4474
 5712TIP3    H138551   0.989   2.810  13.693 -0.9976  3.1883 -0.0815
 5712TIP3    H238552   0.895   2.755  13.589 -1.0853  0.9199  1.1350
 5713TIP3   OH238553   3.934   4.310  15.775  0.3955 -0.1216 -0.3845
 5713TIP3    H138554   3.843   4.333  15.791  0.5339  0.1174  0.0793
 5713TIP3    H238555   3.938   4.290  15.682 -0.3792 -1.3062 -0.1832
 5714TIP3   OH238556   4.148   4.881   2.218  0.1401  0.0776 -0.1970
 5714TIP3    H138557   4.099   4.909   2.296  2.2247  0.5049  1.0497
 5714TIP3    H238558   4.206   4.955   2.199  1.6309 -1.1198 -0.4349
 5715TIP3   OH238559   6.452   4.529  12.661 -0.8230 -0.0678  0.5572
 5715TIP3    H138560   6.432   4.436  12.650  1.6565 -0.5147 -1.0895
 5715TIP3    H238561   6.407   4.572  12.588 -1.4287 -0.0608  0.9317
 5716TIP3   OH238562   1.120   5.855  12.916  0.2988  0.1155  0.1021
 5716TIP3    H138563   1.160   5.863  12.829 -0.3565  0.7512 -0.1497
 5716TIP3    H238564   1.029   5.882  12.903  0.7506  2.6433  1.4373
 5717TIP3   OH238565   3.310   3.472  14.458  0.4173  0.0793 -0.7381
 5717TIP3    H138566   3.362   3.392  14.457  1.3624  0.6687  0.0382
 5717TIP3    H238567   3.296   3.491  14.551  2.5337  2.2467 -0.7546
 5718TIP3   OH238568   6.396   4.763   2.034 -0.2076  0.2382 -0.0732
 5718TIP3    H138569   6.426   4.672   2.031  1.6148  0.6826  1.8531
 5718TIP3    H238570   6.301   4.757   2.032 -0.1359 -1.7192  0.1658
 5719TIP3   OH238571   5.384   1.581  12.198 -0.0576  0.1055  0.1607
 5719TIP3    H138572   5.475   1.556  12.214 -0.5364 -3.1349 -1.2509
 5719TIP3    H238573   5.336   1.544  12.272 -0.3366  0.9589  0.4114
 5720TIP3   OH238574   3.489   4.052  15.175 -0.1899  0.2923  0.2196
 5720TIP3    H138575   3.438   4.040  15.095  0.5568  2.3015 -0.6242
 5720TIP3    H238576   3.463   4.138  15.207  1.4853  0.6836  0.6297
 5721TIP3   OH238577   3.668   0.151  15.505 -0.0160 -0.2703  0.0155
 5721TIP3    H138578   3.690   0.242  15.525 -0.3802 -0.5197  1.6622
 5721TIP3    H238579   3.605   0.126  15.573 -2.0101 -0.9438 -1.9424
 5722TIP3   OH238580   1.318   2.425   4.955  0.6496  0.3278  0.0967
 5722TIP3    H138581   1.253   2.469   4.900  0.3404 -0.5903 -0.2880
 5722TIP3    H238582   1.288   2.335   4.961  0.8171  0.3412  1.5825
 5723TIP3   OH238583   5.827   3.181   5.408 -0.1735 -0.0540  0.1724
 5723TIP3    H138584   5.746   3.146   5.446  0.3678 -0.2454  1.1872
 5723TIP3    H238585   5.813   3.276   5.404 -0.8100 -0.1704 -0.5569
 5724TIP3   OH238586   3.134   1.854  14.590 -0.4084  0.1868  0.5586
 5724TIP3    H138587   3.207   1.878  14.646  2.2908 -1.5467 -1.9520
 5724TIP3    H238588   3.104   1.769  14.625  0.9778 -0.6790 -0.2837
 5725TIP3   OH238589   3.922   5.666  13.363  0.4640  0.0193 -0.4008
 5725TIP3    H138590   3.881   5.600  13.307 -0.0247 -0.6077  0.6656
 5725TIP3    H238591   4.016   5.658  13.345  0.8606 -3.5060  2.2476
 5726TIP3   OH238592   1.027   3.761  13.085 -0.1414  0.1743 -0.1680
 5726TIP3    H138593   1.094   3.698  13.062  0.2823 -0.3128  2.1070
 5726TIP3    H238594   1.069   3.819  13.149 -1.5817  0.4310  0.6052
 5727TIP3   OH238595   5.588   1.121  16.533 -0.0876 -0.4181  0.1093
 5727TIP3    H138596   5.580   1.054  16.601 -0.8087 -0.9407 -0.4677
 5727TIP3    H238597   5.568   1.203  16.577 -0.1046 -0.6965  0.6227
 5728TIP3   OH238598   5.116   4.248   0.006 -0.4138 -0.0966  0.0092
 5728TIP3    H138599   5.175   4.255   0.082  0.8036  0.1499 -0.9249
 5728TIP3    H238600   5.070   4.332   0.003 -0.3022 -0.0217  0.3402
 5729TIP3   OH238601   4.445   6.483  17.064  0.1384  0.0663 -0.3037
 5729TIP3    H138602   4.508   6.492  16.992  0.0660  2.1347 -0.1670
 5729TIP3    H238603   4.474   6.547  17.129 -0.4367 -1.0035  1.0461
 5730TIP3   OH238604   2.295   0.227  14.776 -0.2921 -0.0674 -0.1104
 5730TIP3    H138605   2.249   0.288  14.833 -0.8408 -0.6478  0.0782
 5730TIP3    H238606   2.386   0.229  14.806 -0.1061  1.3355 -0.7007
 5731TIP3   OH238607   6.155   3.303  11.480 -0.5524 -0.3874 -0.5976
 5731TIP3    H138608   6.090   3.240  11.513  0.0706 -0.6365  0.2067
 5731TIP3    H238609   6.120   3.388  11.505 -1.2406 -0.4312 -1.3956
 5732TIP3   OH238610   1.689   1.731   1.733 -0.1174  0.0080  0.6537
 5732TIP3    H138611   1.714   1.760   1.645  0.8740 -0.1557  0.8742
 5732TIP3    H238612   1.644   1.807   1.771  0.6248  0.5441  0.4858
 5733TIP3   OH238613   4.140   5.635   0.378  0.5593 -0.1901  0.1978
 5733TIP3    H138614   4.109   5.591   0.299 -0.0921  1.1338 -0.3114
 5733TIP3    H238615   4.163   5.563   0.437 -0.8308 -1.2255 -0.4524
 5734TIP3   OH238616   3.146   6.136   0.077 -0.1498  0.0469 -0.8509
 5734TIP3    H138617   3.093   6.113   0.001 -0.6968 -0.3268 -0.3714
 5734TIP3    H238618   3.101   6.213   0.114 -0.0718  0.0325 -0.7263
 5735TIP3   OH238619   3.844   5.141   2.849 -0.0113 -0.0953  0.0576
 5735TIP3    H138620   3.833   5.061   2.900 -1.2817 -0.2674 -0.4524
 5735TIP3    H238621   3.773   5.198   2.878  0.7540  0.7775  0.2652
 5736TIP3   OH238622   4.504   3.893  15.752  0.0403  0.1684  0.4410
 5736TIP3    H138623   4.545   3.974  15.724  1.0083  0.0479  1.4263
 5736TIP3    H238624   4.466   3.856  15.673  1.5328  0.4840 -0.4604
 5737TIP3   OH238625   0.923   4.955  10.806  0.0062  0.2478 -0.0495
 5737TIP3    H138626   1.017   4.963  10.817  0.1649 -1.0103 -0.3510
 5737TIP3    H238627   0.897   4.885  10.866 -0.7582  0.6351  0.0935
 5738TIP3   OH238628   2.530   3.574  11.559  0.0874 -0.3737 -0.0253
 5738TIP3    H138629   2.442   3.550  11.531  0.7658 -0.7461 -2.0189
 5738TIP3    H238630   2.576   3.596  11.478  2.7019 -3.1771  0.4796
 5739TIP3   OH238631   4.936   0.413   5.282  0.5082 -0.1001  0.5716
 5739TIP3    H138632   4.923   0.336   5.337 -0.4869  1.0630  2.0573
 5739TIP3    H238633   4.862   0.412   5.221 -1.0003  0.9575  2.2534
 5740TIP3   OH238634   5.664   5.973   0.135 -0.1623 -0.3497  0.2565
 5740TIP3    H138635   5.717   5.916   0.079 -0.3702 -0.2211 -0.0722
 5740TIP3    H238636   5.640   5.918   0.210  0.7880 -0.2845  0.6232
 5741TIP3   OH238637   3.134   0.715   5.957 -0.3394 -0.7463 -0.5788
 5741TIP3    H138638   3.225   0.723   5.986 -0.9561 -0.0521  1.2544
 5741TIP3    H238639   3.082   0.736   6.034 -2.0735 -0.4019 -1.7904
 5742TIP3   OH238640   3.394   2.833   2.355  0.1077  0.3559  0.0981
 5742TIP3    H138641   3.390   2.928   2.339 -0.8637  0.0178 -1.9115
 5742TIP3    H238642   3.332   2.819   2.427 -2.0146  0.9422 -1.5173
 5743TIP3   OH238643   4.898   5.036  14.594 -0.3850  0.4693 -0.1054
 5743TIP3    H138644   4.816   5.052  14.641 -0.9301 -0.5374 -0.6822
 5743TIP3    H238645   4.901   4.941  14.582  0.8507  0.4923 -0.1393
 5744TIP3   OH238646   2.593   2.209   5.485  0.5145  0.6741  0.2155
 5744TIP3    H138647   2.516   2.203   5.541  0.6787 -1.4034  0.3232
 5744TIP3    H238648   2.560   2.191   5.397  0.9263 -0.9637  0.3586
 5745TIP3   OH238649   0.089   1.527   4.440 -0.0611 -0.6891  0.0589
 5745TIP3    H138650   0.098   1.554   4.348  0.2947  0.6350  0.4675
 5745TIP3    H238651   0.018   1.581   4.474  0.3916 -0.5538  0.7961
 5746TIP3   OH238652   2.115   0.548  11.014 -0.3114 -0.2139 -0.5441
 5746TIP3    H138653   2.194   0.565  11.065 -0.6694  0.8376 -0.3142
 5746TIP3    H238654   2.080   0.635  10.994 -2.5371 -0.6405  1.1035
 5747TIP3   OH238655   5.618   5.816  15.659 -0.1418  0.7041  0.0453
 5747TIP3    H138656   5.701   5.864  15.658  1.6903 -2.2672  0.0829
 5747TIP3    H238657   5.610   5.783  15.748  0.0451 -1.2229 -0.6083
 5748TIP3   OH238658   6.622   6.768   0.209  0.2384 -0.5085 -0.4623
 5748TIP3    H138659   6.683   6.696   0.226  0.7620  0.1048  0.3220
 5748TIP3    H238660   6.611   6.769   0.114  0.4298 -1.4499 -0.5043
 5749TIP3   OH238661   6.723   4.857   4.748 -0.6170  0.3716 -0.0722
 5749TIP3    H138662   6.669   4.794   4.796  0.7703 -2.8161 -2.3681
 5749TIP3    H238663   6.775   4.901   4.815 -2.0926 -0.4363  1.6751
 5750TIP3   OH238664   2.063   0.136  13.566 -0.2022 -0.0897  0.8910
 5750TIP3    H138665   2.158   0.142  13.558 -0.3682  0.5252 -1.2932
 5750TIP3    H238666   2.046   0.045  13.589  0.9152 -0.1517  1.5275
 5751TIP3   OH238667   2.637   6.617   1.075  0.1810 -0.1254 -0.7974
 5751TIP3    H138668   2.605   6.620   1.165 -0.8372 -0.8228 -1.1286
 5751TIP3    H238669   2.719   6.568   1.081 -0.0396 -0.4377 -0.2983
 5752TIP3   OH238670   3.316   0.485   6.240 -0.5461  0.4428  0.4864
 5752TIP3    H138671   3.230   0.504   6.203  0.1309  0.7447 -1.0014
 5752TIP3    H238672   3.298   0.451   6.328 -2.1403  1.0405  0.4126
 5753TIP3   OH238673   4.101   0.191   3.100  1.2856  0.4359  0.1488
 5753TIP3    H138674   4.073   0.169   3.189  1.0846 -1.1827 -0.2893
 5753TIP3    H238675   4.019   0.196   3.050  1.4419  0.7838 -0.0783
 5754TIP3   OH238676   3.026   2.117  14.896 -0.4130  0.1920  0.0804
 5754TIP3    H138677   3.052   2.059  14.825  0.1690  0.9036 -0.2975
 5754TIP3    H238678   2.956   2.069  14.942 -0.3872 -0.5199 -0.6068
 5755TIP3   OH238679   1.644   5.129  11.478 -0.2099 -0.3969 -0.4906
 5755TIP3    H138680   1.686   5.115  11.563 -1.6558 -0.9585  0.1653
 5755TIP3    H238681   1.705   5.185  11.430  0.8342 -0.4227  0.7552
 5756TIP3   OH238682   3.363   5.566   4.726 -0.0812 -0.3422  0.3979
 5756TIP3    H138683   3.314   5.585   4.646 -1.4676  0.9391  1.4937
 5756TIP3    H238684   3.329   5.629   4.790  1.8243 -0.5490  1.6792
 5757TIP3   OH238685   4.122   5.668  11.666  0.2294 -0.4155  0.1177
 5757TIP3    H138686   4.046   5.611  11.670  0.8132 -1.1957  0.4427
 5757TIP3    H238687   4.090   5.753  11.698 -0.3489 -0.9060  0.8835
 5758TIP3   OH238688   3.194   1.125  14.447  0.1703  0.4817  0.1027
 5758TIP3    H138689   3.287   1.118  14.422 -0.0748  1.3007 -1.1036
 5758TIP3    H238690   3.158   1.039  14.426  0.9865 -0.4544  2.2040
 5759TIP3   OH238691   1.404   0.976  15.858  0.1429 -0.5900  0.5095
 5759TIP3    H138692   1.415   0.947  15.767 -0.6231  0.9508 -0.1068
 5759TIP3    H238693   1.338   0.917  15.894 -1.2459  0.1663 -0.6598
 5760TIP3   OH238694   1.328   0.854  13.514 -0.1250 -0.2325 -0.0902
 5760TIP3    H138695   1.235   0.871  13.531 -0.1919 -0.0208 -0.6509
 5760TIP3    H238696   1.340   0.877  13.422  0.4283 -0.5015 -0.0888
 5761TIP3   OH238697   2.465   3.145   0.008  0.1417  0.0069  0.0672
 5761TIP3    H138698   2.426   3.133   0.095  0.0230 -0.0591  0.0040
 5761TIP3    H238699   2.467   3.057  -0.030 -1.0474  0.2279 -0.5320
 5762TIP3   OH238700   6.102   5.972  13.470 -0.0582  0.3556  0.3596
 5762TIP3    H138701   6.190   6.003  13.490 -0.4115  1.5009  0.1660
 5762TIP3    H238702   6.108   5.876  13.480  1.1282  0.4407  0.6063
 5763TIP3   OH238703   5.474   3.635   2.107 -0.2687  0.4225 -0.0827
 5763TIP3    H138704   5.417   3.655   2.181  0.1686 -0.3665  0.4679
 5763TIP3    H238705   5.447   3.549   2.077  0.2004  0.3240 -0.2365
 5764TIP3   OH238706   3.152   3.015   3.899  0.0086 -0.2971 -0.0430
 5764TIP3    H138707   3.070   3.005   3.850 -1.2936 -1.4523  2.1755
 5764TIP3    H238708   3.133   2.975   3.984  3.6289 -2.8923 -0.2142
 5765TIP3   OH238709   1.594   6.202   4.196 -0.2473  0.0284  0.1804
 5765TIP3    H138710   1.667   6.175   4.251  1.5987 -0.7951 -2.4681
 5765TIP3    H238711   1.523   6.141   4.219  0.9905 -1.3377  0.5017
 5766TIP3   OH238712   1.870   2.238   5.549 -0.4013 -0.4183 -0.2429
 5766TIP3    H138713   1.823   2.282   5.620 -1.2034  0.2765 -1.1854
 5766TIP3    H238714   1.807   2.175   5.514 -0.3401 -0.0827 -0.9623
 5767TIP3   OH238715   2.786   4.326   4.923  0.3755  0.8920 -0.0141
 5767TIP3    H138716   2.795   4.293   5.012 -0.6577  0.5755 -0.0214
 5767TIP3    H238717   2.855   4.282   4.873 -0.2416 -0.3737  0.2263
 5768TIP3   OH238718   1.124   6.794   1.999  0.2261  0.3232  0.6501
 5768TIP3    H138719   1.118   6.855   1.926  1.8853 -0.1653  0.0617
 5768TIP3    H238720   1.146   6.848   2.074 -1.0912  0.7747  0.7481
 5769TIP3   OH238721   0.804   5.696  10.568 -0.2913 -0.1334  0.0347
 5769TIP3    H138722   0.812   5.716  10.475 -0.5121 -0.1334  0.0135
 5769TIP3    H238723   0.744   5.763  10.602  1.2924  1.0437  0.5848
 5770TIP3   OH238724   4.937   0.713   4.108 -0.2864  0.5562  0.1974
 5770TIP3    H138725   4.912   0.759   4.189 -0.3411 -0.5151  0.8002
 5770TIP3    H238726   5.032   0.704   4.114 -0.2004  1.1514 -0.2275
 5771TIP3   OH238727   5.455   1.833   2.304  0.2188  0.7575 -0.1259
 5771TIP3    H138728   5.480   1.762   2.245 -0.5103  1.4315 -1.2852
 5771TIP3    H238729   5.451   1.911   2.248 -0.7976  1.3641  0.7430
 5772TIP3   OH238730   3.063   6.154  14.264  0.3454 -0.1802 -0.3369
 5772TIP3    H138731   3.041   6.064  14.241 -0.3589  0.0951 -0.7873
 5772TIP3    H238732   3.011   6.207  14.204 -0.5203  0.5486  0.9951
 5773TIP3   OH238733   5.638   3.734  16.576 -0.2048  0.2747  0.1666
 5773TIP3    H138734   5.659   3.642  16.558  2.4019  1.0986 -1.4566
 5773TIP3    H238735   5.656   3.744  16.669  0.5900 -0.6005  0.1272
 5774TIP3   OH238736   2.097   2.007  14.555  0.6117 -0.3257 -0.6084
 5774TIP3    H138737   2.091   2.092  14.598  0.5621  0.0007 -1.2485
 5774TIP3    H238738   2.038   1.951  14.605 -0.0238  0.2417 -0.6970
 5775TIP3   OH238739   0.371   1.231  14.041  0.2730  0.4205 -0.0399
 5775TIP3    H138740   0.317   1.164  14.083  1.1713 -1.3186 -1.5132
 5775TIP3    H238741   0.451   1.234  14.095  0.4989 -0.1792 -0.3354
 5776TIP3   OH238742   6.713   5.675  16.200 -0.4894 -0.2074 -0.1499
 5776TIP3    H138743   6.653   5.603  16.183  0.5456 -0.6985 -1.9837
 5776TIP3    H238744   6.788   5.659  16.142 -0.2642  2.3888 -0.7083
 5777TIP3   OH238745   3.182   4.059   0.833  0.0543  0.2780 -0.0581
 5777TIP3    H138746   3.217   4.114   0.903  2.4836 -0.2355 -0.7595
 5777TIP3    H238747   3.112   4.111   0.794  1.9755  2.7779 -0.4491
 5778TIP3   OH238748   1.299   2.819  11.924 -0.4581 -0.1223 -0.1077
 5778TIP3    H138749   1.350   2.766  11.862  0.1887  1.1619 -0.7284
 5778TIP3    H238750   1.228   2.855  11.871 -0.5770  0.0588  0.1749
 5779TIP3   OH238751   1.297   6.288   5.410 -0.7756  0.5373  0.7587
 5779TIP3    H138752   1.393   6.287   5.411 -0.7138 -1.4746 -1.0193
 5779TIP3    H238753   1.274   6.376   5.439  1.5703  0.8375  1.9727
 5780TIP3   OH238754   2.535   6.580  11.211 -0.1972 -0.6567 -0.5926
 5780TIP3    H138755   2.522   6.583  11.116  0.7523  0.4843 -0.6997
 5780TIP3    H238756   2.498   6.662  11.243 -0.0625 -0.8106 -0.0339
 5781TIP3   OH238757   2.286   0.092  16.043  0.1077  0.2351 -0.0207
 5781TIP3    H138758   2.241   0.035  15.980  1.0582  1.0976 -1.5143
 5781TIP3    H238759   2.265   0.053  16.129 -2.6176  0.0215 -0.7012
 5782TIP3   OH238760   4.826   2.836  13.917  0.2613 -0.4132  0.1569
 5782TIP3    H138761   4.752   2.807  13.864 -1.3364  0.2792  1.8952
 5782TIP3    H238762   4.870   2.901  13.862 -0.4692 -0.7633 -0.8829
 5783TIP3   OH238763   5.977   4.964   0.496 -0.0783 -0.8469  0.3558
 5783TIP3    H138764   5.937   4.965   0.410 -0.1557 -0.5294  0.3913
 5783TIP3    H238765   5.926   4.900   0.546 -0.7958 -0.1782  0.5125
 5784TIP3   OH238766   4.751   4.392  15.250  0.3269  0.4201  0.0274
 5784TIP3    H138767   4.735   4.369  15.342  0.8839 -1.4779 -0.3088
 5784TIP3    H238768   4.834   4.440  15.251  1.8067 -1.9565  0.3015
 5785TIP3   OH238769   1.164   4.046  13.574  0.3871 -0.4946  0.1423
 5785TIP3    H138770   1.131   4.131  13.605 -1.9664 -0.9241 -0.9319
 5785TIP3    H238771   1.153   3.987  13.648 -1.5290 -0.6539 -0.2255
 5786TIP3   OH238772   0.603   5.387  11.659  0.0741  0.5496 -0.1563
 5786TIP3    H138773   0.534   5.324  11.677 -1.0904  1.9877  0.5910
 5786TIP3    H238774   0.557   5.468  11.635  1.5092  1.2762 -0.6228
 5787TIP3   OH238775   5.104   0.532   3.931  0.6662 -0.3618 -0.2701
 5787TIP3    H138776   5.022   0.559   3.973  0.9866  1.5007 -0.7573
 5787TIP3    H238777   5.166   0.522   4.003  0.9451  1.8280 -0.1492
 5788TIP3   OH238778   6.650   3.273   0.718  0.0780  0.1336  0.6704
 5788TIP3    H138779   6.644   3.232   0.632 -1.1376 -0.4277  1.0012
 5788TIP3    H238780   6.567   3.317   0.730  0.4243  0.6173  1.3589
 5789TIP3   OH238781   4.433   0.352   1.660 -0.1545 -0.1431  0.0328
 5789TIP3    H138782   4.394   0.348   1.748 -0.1953 -0.1944  0.0125
 5789TIP3    H238783   4.498   0.282   1.659  0.2765  0.2507  0.2292
 5790TIP3   OH238784   4.931   6.331  11.588 -0.2587 -0.1984  0.5059
 5790TIP3    H138785   5.013   6.378  11.606  0.8895 -1.7427 -0.4018
 5790TIP3    H238786   4.897   6.308  11.674  0.9734 -0.6608  0.8957
 5791TIP3   OH238787   2.391   5.456   2.828 -0.0791 -0.3898 -0.6913
 5791TIP3    H138788   2.435   5.495   2.752  1.4142  0.6686  0.6581
 5791TIP3    H238789   2.333   5.525   2.861  0.5546 -0.2252  0.1111
 5792TIP3   OH238790   3.230   5.378  15.104 -0.2050  0.0875 -0.0077
 5792TIP3    H138791   3.240   5.349  15.014  1.7119  1.9380 -0.4796
 5792TIP3    H238792   3.252   5.302  15.157 -2.4979 -1.3704 -1.0104
 5793TIP3   OH238793   6.468   5.660  16.992 -0.1346  0.1476  0.5616
 5793TIP3    H138794   6.456   5.730  16.928  0.5382  0.1954  0.4828
 5793TIP3    H238795   6.381   5.646  17.028 -0.5620  0.0032 -0.4834
 5794TIP3   OH238796   4.888   0.233  16.517 -0.1886 -0.2708 -0.7721
 5794TIP3    H138797   4.848   0.311  16.553  0.4460  0.0751 -0.8008
 5794TIP3    H238798   4.880   0.167  16.586 -0.2794 -0.0377 -0.5618
 5795TIP3   OH238799   3.539   0.518   4.958  1.0750  0.2387  0.8817
 5795TIP3    H138800   3.628   0.537   4.926  1.3400 -2.3374 -0.1172
 5795TIP3    H238801   3.548   0.437   5.007 -0.9836 -1.0255 -0.6846
 5796TIP3   OH238802   1.924   0.039   2.630  0.2625  0.1863  0.4345
 5796TIP3    H138803   1.857  -0.005   2.578  0.2700 -1.8610  2.0270
 5796TIP3    H238804   1.877   0.074   2.706  0.7124  0.3745  0.6318
 5797TIP3   OH238805   1.779   5.033  14.421 -0.4675 -0.4249 -0.3756
 5797TIP3    H138806   1.707   5.001  14.366 -2.4117  0.0005  1.8079
 5797TIP3    H238807   1.845   4.964  14.415 -1.3102 -1.1544 -1.8992
 5798TIP3   OH238808   5.274   6.353  11.730  0.0921 -0.8052 -0.8463
 5798TIP3    H138809   5.334   6.393  11.667  0.9262  0.1286  0.4689
 5798TIP3    H238810   5.269   6.417  11.801 -3.4857 -0.2559 -1.4346
 5799TIP3   OH238811   5.811   1.696  15.196 -0.0721 -0.3422 -0.3535
 5799TIP3    H138812   5.819   1.665  15.106 -2.9472 -2.7443  0.0691
 5799TIP3    H238813   5.863   1.634  15.247  0.4662  0.2261 -0.1955
 5800TIP3   OH238814   3.921   6.154  16.449 -0.2299  0.0130 -0.0544
 5800TIP3    H138815   3.830   6.129  16.461 -0.2750  0.5411  0.8181
 5800TIP3    H238816   3.922   6.203  16.367 -0.8176  0.3913  0.1563
 5801TIP3   OH238817   1.079   1.463   3.055  0.5555 -0.3883  0.7417
 5801TIP3    H138818   0.993   1.450   3.095  0.0405  1.4237  0.3168
 5801TIP3    H238819   1.060   1.504   2.971  1.8846  1.8616  1.4572
 5802TIP3   OH238820   1.704   3.315  11.097  0.0126 -0.2420 -0.8725
 5802TIP3    H138821   1.666   3.242  11.047  0.3455 -0.9773 -0.0703
 5802TIP3    H238822   1.669   3.305  11.185 -0.2896  0.8454 -0.8460
 5803TIP3   OH238823   0.438   2.888  10.949 -0.7527  0.4199 -0.0241
 5803TIP3    H138824   0.363   2.869  11.005  0.9822 -1.8622  1.7238
 5803TIP3    H238825   0.429   2.828  10.874 -0.6653  0.1301  0.1976
 5804TIP3   OH238826   5.193   5.021   0.882  0.1517 -0.3383 -0.7144
 5804TIP3    H138827   5.160   5.089   0.941  0.6635  0.4283 -1.2928
 5804TIP3    H238828   5.225   4.952   0.940 -3.2082 -1.5551 -0.0850
 5805TIP3   OH238829   3.205   1.183   2.524 -0.0111 -0.1646  0.5212
 5805TIP3    H138830   3.156   1.262   2.501 -0.3139 -0.0725  1.4184
 5805TIP3    H238831   3.137   1.122   2.553  0.2145 -0.7903 -0.2329
 5806TIP3   OH238832   5.370   2.041  14.502  0.2377  0.0208 -0.0807
 5806TIP3    H138833   5.299   2.090  14.544  2.6406  4.4855 -0.5616
 5806TIP3    H238834   5.413   1.995  14.574 -0.5700  0.8271  0.9460
 5807TIP3   OH238835   3.777   0.809   0.860 -0.1329  0.1786  0.1096
 5807TIP3    H138836   3.689   0.825   0.897  0.1996  0.5904  0.7411
 5807TIP3    H238837   3.760   0.778   0.771 -0.8874  1.4465 -0.2178
 5808TIP3   OH238838   4.426   3.000  13.778  0.0186  0.6015 -0.0269
 5808TIP3    H138839   4.391   2.925  13.826 -1.5023  0.2859 -1.5082
 5808TIP3    H238840   4.500   2.965  13.728 -0.9068 -0.0571 -0.9933
 5809TIP3   OH238841   1.757   0.866   4.152 -0.6204 -0.2848 -0.2604
 5809TIP3    H138842   1.675   0.889   4.197 -0.0328 -2.1322  1.9434
 5809TIP3    H238843   1.826   0.906   4.206  0.0292 -0.4407 -0.9584
 5810TIP3   OH238844   3.347   0.536   5.740 -0.6859  0.0798  0.1117
 5810TIP3    H138845   3.257   0.504   5.741 -0.2558 -1.3518 -1.6829
 5810TIP3    H238846   3.351   0.593   5.663  0.0733 -0.2536 -0.0996
 5811TIP3   OH238847   1.287   6.626   0.755 -0.1143 -0.2193 -0.1486
 5811TIP3    H138848   1.316   6.545   0.712 -0.3720 -0.2356 -0.2948
 5811TIP3    H238849   1.209   6.599   0.805  0.2459 -0.2251  0.4188
 5812TIP3   OH238850   5.201   2.911  16.038 -0.0408 -0.3005 -0.3361
 5812TIP3    H138851   5.146   2.833  16.030  1.2845 -1.1308 -1.7975
 5812TIP3    H238852   5.149   2.981  15.998 -0.8379 -0.6297  0.1018
 5813TIP3   OH238853   1.449   2.311  15.518  0.2839  0.3663 -0.1579
 5813TIP3    H138854   1.480   2.336  15.605 -0.7044 -1.0716  0.6564
 5813TIP3    H238855   1.414   2.222  15.529 -1.9597  0.9827 -1.4975
 5814TIP3   OH238856   2.097   6.081   2.858 -0.4263  0.2604  0.1400
 5814TIP3    H138857   2.171   6.141   2.869 -1.7944  1.8953  0.9532
 5814TIP3    H238858   2.030   6.135   2.816 -1.0189 -1.3274 -1.0724
 5815TIP3   OH238859   1.186   6.163   5.201 -0.6551  0.0499 -0.1295
 5815TIP3    H138860   1.242   6.207   5.266  0.0501  0.5503 -1.0457
 5815TIP3    H238861   1.226   6.185   5.117 -0.5444 -1.9848 -0.6624
 5816TIP3   OH238862   1.755   0.485   2.626  0.0957 -0.1049 -0.0995
 5816TIP3    H138863   1.816   0.430   2.577 -0.5126 -0.2940 -0.6636
 5816TIP3    H238864   1.758   0.570   2.582 -0.2239 -0.1858 -0.2806
 5817TIP3   OH238865   3.445   0.163  12.905  0.0051  0.1953  0.3734
 5817TIP3    H138866   3.517   0.129  12.852 -1.1379  0.8968 -1.7055
 5817TIP3    H238867   3.479   0.162  12.994  1.5141 -2.3582 -0.1159
 5818TIP3   OH238868   1.468   2.822   3.574 -0.0210 -0.4782 -0.5860
 5818TIP3    H138869   1.552   2.801   3.616  0.0824  0.5015 -0.2970
 5818TIP3    H238870   1.462   2.759   3.502  1.1033 -0.3828 -0.7846
 5819TIP3   OH238871   1.126   0.870   3.763 -0.3689 -0.1176  0.2605
 5819TIP3    H138872   1.113   0.911   3.848 -1.2662 -0.5483  0.3373
 5819TIP3    H238873   1.041   0.873   3.721  0.0958  0.1998 -0.6858
 5820TIP3   OH238874   5.274   1.100  15.889  0.3183  0.4553 -0.0686
 5820TIP3    H138875   5.327   1.111  15.968  2.5307  3.5154 -1.7532
 5820TIP3    H238876   5.296   1.013  15.857 -0.6362 -0.8552  2.5703
 5821TIP3   OH238877   5.433   4.471  13.724  0.5090 -0.1929  0.2576
 5821TIP3    H138878   5.422   4.555  13.678  1.2172 -1.0909 -1.6420
 5821TIP3    H238879   5.367   4.474  13.793 -1.4401  0.7945 -1.5049
 5822TIP3   OH238880   4.696   6.337   5.834 -0.0857 -0.7599  0.2242
 5822TIP3    H138881   4.730   6.396   5.901  0.8954  0.0745 -0.9645
 5822TIP3    H238882   4.607   6.316   5.863 -0.2467  0.8426  0.9813
 5823TIP3   OH238883   5.581   2.572   1.710 -0.0675 -0.3772 -0.4221
 5823TIP3    H138884   5.507   2.524   1.673  0.2796 -1.2069 -0.0625
 5823TIP3    H238885   5.657   2.515   1.693  0.2548 -0.2638  0.5936
 5824TIP3   OH238886   4.602   4.853   4.233 -0.0550 -0.1665 -0.0666
 5824TIP3    H138887   4.611   4.948   4.222 -0.5516  0.0309  1.1338
 5824TIP3    H238888   4.529   4.843   4.294 -1.3406 -1.3945 -1.7346
 5825TIP3   OH238889   5.128   3.366  15.538 -0.0868 -0.0110 -0.2000
 5825TIP3    H138890   5.160   3.376  15.628 -0.2907 -2.0089  0.1382
 5825TIP3    H238891   5.043   3.324  15.547 -0.5060  0.5700 -1.3009
 5826TIP3   OH238892   1.762   3.503   3.801  0.0514 -0.2822  0.2450
 5826TIP3    H138893   1.734   3.558   3.874 -0.8904 -0.9217  0.3964
 5826TIP3    H238894   1.690   3.441   3.790 -0.4831  0.6862 -2.1590
 5827TIP3   OH238895   0.690   4.553   3.813  0.1008  0.4698  0.1860
 5827TIP3    H138896   0.741   4.568   3.734 -0.5300  1.1084 -0.1079
 5827TIP3    H238897   0.749   4.575   3.885  0.7303 -0.2688 -0.0928
 5828TIP3   OH238898   5.479   3.650  13.904  0.4457  0.4101  0.8366
 5828TIP3    H138899   5.513   3.561  13.916 -0.5649  0.0169  0.9093
 5828TIP3    H238900   5.526   3.684  13.828 -0.5807 -0.9521 -0.4862
 5829TIP3   OH238901   0.479   6.069   5.491  0.3745  0.2170  0.4194
 5829TIP3    H138902   0.386   6.085   5.476  0.5441 -0.6138 -2.0089
 5829TIP3    H238903   0.483   5.988   5.541 -0.2325 -0.6793 -0.9298
 5830TIP3   OH238904   4.485   2.146   4.077 -0.0918  0.1324  0.1116
 5830TIP3    H138905   4.399   2.184   4.094 -0.6978 -0.8128 -0.8027
 5830TIP3    H238906   4.544   2.222   4.075 -0.5298  0.6439  2.7321
 5831TIP3   OH238907   1.069   1.700  13.753  0.0259 -0.3574 -0.2630
 5831TIP3    H138908   1.098   1.716  13.663 -0.6946  1.0005 -0.2705
 5831TIP3    H238909   1.132   1.636  13.787  0.3986 -0.7813 -1.6692
 5832TIP3   OH238910   5.957   0.461   5.781 -0.1669 -0.0162  0.2120
 5832TIP3    H138911   5.985   0.423   5.697 -0.6956  0.9644 -0.4191
 5832TIP3    H238912   6.039   0.480   5.827  0.1258 -0.8049  0.0484
 5833TIP3   OH238913   4.807   4.478  16.480 -0.8045 -0.1448 -0.2038
 5833TIP3    H138914   4.749   4.481  16.556 -1.1073  0.2400 -0.4464
 5833TIP3    H238915   4.765   4.418  16.419 -0.1591 -1.0839  0.2503
 5834TIP3   OH238916   5.342   5.728   4.184  0.0559  0.3781  0.7562
 5834TIP3    H138917   5.320   5.724   4.091  0.1864  3.9719  0.4011
 5834TIP3    H238918   5.289   5.801   4.217  0.3217 -0.5376  3.4363
 5835TIP3   OH238919   4.270   5.828   0.242 -0.1749 -0.6230 -0.5378
 5835TIP3    H138920   4.200   5.862   0.186 -0.5123  0.2536  0.3866
 5835TIP3    H238921   4.225   5.771   0.305 -0.3334  1.1637  1.0583
 5836TIP3   OH238922   1.858   3.506  14.762  0.1562  0.5171 -0.1905
 5836TIP3    H138923   1.952   3.491  14.763  0.0381 -0.2382  0.2200
 5836TIP3    H238924   1.840   3.554  14.843  0.1555  0.4433 -0.1468
 5837TIP3   OH238925   6.580   5.299  16.030  0.3037 -0.3461 -0.2981
 5837TIP3    H138926   6.608   5.242  15.959  0.0271 -0.4618 -0.3133
 5837TIP3    H238927   6.627   5.381  16.014  0.5821 -0.5166 -0.3613
 5838TIP3   OH238928   0.099   1.757   1.532  0.0971 -0.7011 -0.5723
 5838TIP3    H138929   0.120   1.758   1.626 -0.7546 -1.0255 -0.3726
 5838TIP3    H238930   0.142   1.835   1.498 -2.3380  1.3832  0.7164
 5839TIP3   OH238931   3.425   0.424  15.376  0.1239 -0.2842  0.0719
 5839TIP3    H138932   3.487   0.496  15.392 -1.9468  1.3459  1.3716
 5839TIP3    H238933   3.469   0.368  15.312  2.1101  1.8015 -0.5392
 5840TIP3   OH238934   3.452   6.623   0.980 -0.0365 -0.4342 -0.3345
 5840TIP3    H138935   3.462   6.632   1.075 -1.9877 -0.8622 -0.0419
 5840TIP3    H238936   3.540   6.602   0.948  0.9382  1.0861  1.1893
 5841TIP3   OH238937   6.037   4.765  12.756 -0.4680  0.2261  0.6594
 5841TIP3    H138938   6.109   4.720  12.711 -0.4907  0.1082  0.7407
 5841TIP3    H238939   5.989   4.810  12.686  0.2769  1.1405  0.7215
 5842TIP3   OH238940   4.220   0.927   1.717 -0.1038 -0.1609 -0.3813
 5842TIP3    H138941   4.231   0.995   1.650  0.6027  0.5793  0.4643
 5842TIP3    H238942   4.136   0.947   1.758 -0.2526 -0.2540 -0.6382
 5843TIP3   OH238943   4.799   4.903  11.665  0.2429 -0.5927  0.0076
 5843TIP3    H138944   4.865   4.967  11.639 -0.0500 -0.5642 -0.6929
 5843TIP3    H238945   4.816   4.827  11.610  0.3429 -0.9809  0.5617
 5844TIP3   OH238946   0.830   3.885  10.675  0.2259  0.7200 -0.1493
 5844TIP3    H138947   0.754   3.827  10.677 -1.2179  2.4925  2.2497
 5844TIP3    H238948   0.878   3.865  10.754  0.3120  1.9725  0.1437
 5845TIP3   OH238949   5.559   4.665  11.681 -0.1629  0.4151 -0.1686
 5845TIP3    H138950   5.539   4.693  11.770  0.5757  1.3058 -0.2680
 5845TIP3    H238951   5.596   4.578  11.690  0.9301  0.9363  0.5116
 5846TIP3   OH238952   4.680   4.693  15.289  0.1863 -0.6034 -0.5686
 5846TIP3    H138953   4.627   4.619  15.260  0.8154 -0.8752 -1.0484
 5846TIP3    H238954   4.621   4.746  15.342 -0.0352 -1.9210  0.5639
 5847TIP3   OH238955   4.060   4.202  14.059 -0.4318 -0.7039 -0.4116
 5847TIP3    H138956   4.107   4.244  13.987 -2.3668 -0.3092 -1.5090
 5847TIP3    H238957   4.075   4.260  14.134  0.3836 -0.3117 -0.8741
 5848TIP3   OH238958   1.147   5.936  14.503 -0.1999 -0.4603  0.5423
 5848TIP3    H138959   1.224   5.993  14.493 -0.5873 -0.1341 -0.7560
 5848TIP3    H238960   1.175   5.851  14.469 -0.9595  0.1672 -1.8424
 5849TIP3   OH238961   1.329   6.730   1.133  0.4312  1.0939 -0.2010
 5849TIP3    H138962   1.258   6.793   1.125 -0.9174 -0.2184  0.7985
 5849TIP3    H238963   1.315   6.668   1.062  2.8086  2.7618 -2.3404
 5850TIP3   OH238964   0.152   1.034   4.110 -0.3334 -0.0476  0.0478
 5850TIP3    H138965   0.227   1.071   4.156  0.3538 -0.7452 -0.4823
 5850TIP3    H238966   0.189   0.963   4.057 -1.6706 -1.9895  1.5679
 5851TIP3   OH238967   2.195   0.879   5.557  0.0139 -0.4327 -0.8247
 5851TIP3    H138968   2.226   0.849   5.471  1.7769  0.5495 -0.5753
 5851TIP3    H238969   2.247   0.957   5.576 -1.9050  0.6817  0.1647
 5852TIP3   OH238970   0.173   1.714   1.203  0.0369 -0.2323 -0.1163
 5852TIP3    H138971   0.155   1.620   1.204 -0.8538 -0.0936  1.7838
 5852TIP3    H238972   0.257   1.722   1.158  0.0496 -1.9133 -0.4551
 5853TIP3   OH238973   6.404   3.297   4.594 -0.0335  0.2838 -0.2196
 5853TIP3    H138974   6.400   3.242   4.672 -1.0918  1.0767  0.3189
 5853TIP3    H238975   6.476   3.262   4.543 -0.8224 -1.7474 -0.0279
 5854TIP3   OH238976   3.017   1.053   4.220  0.9359 -1.0250 -0.3113
 5854TIP3    H138977   3.106   1.055   4.255 -0.1111  1.1523  2.6288
 5854TIP3    H238978   2.977   0.976   4.260  0.6202 -0.2150  0.9815
 5855TIP3   OH238979   5.645   4.832   5.418 -0.0842  0.5598 -0.6146
 5855TIP3    H138980   5.650   4.834   5.322  1.1648  2.8571 -0.5720
 5855TIP3    H238981   5.733   4.807   5.446 -0.0054  1.3976 -0.0793
 5856TIP3   OH238982   2.364   2.864  12.955  0.3349 -0.1813  0.1658
 5856TIP3    H138983   2.322   2.839  12.873  1.7849  2.5019 -1.5277
 5856TIP3    H238984   2.389   2.955  12.943  1.1762  0.1437  3.3986
 5857TIP3   OH238985   2.508   0.348   0.646 -0.0901 -0.0955  0.1102
 5857TIP3    H138986   2.542   0.258   0.648  2.4059  0.7896  0.6492
 5857TIP3    H238987   2.463   0.359   0.730  0.7975 -0.4167  0.6350
 5858TIP3   OH238988   4.884   3.702   4.186  0.3301 -0.0413 -0.4777
 5858TIP3    H138989   4.952   3.730   4.125  0.4267  5.1824  1.5573
 5858TIP3    H238990   4.803   3.705   4.135  0.9029 -0.3907 -1.4388
 5859TIP3   OH238991   0.469   2.260  12.370  0.4280  0.0596 -0.0393
 5859TIP3    H138992   0.482   2.210  12.290  0.6972 -0.2635  0.2028
 5859TIP3    H238993   0.422   2.339  12.342 -0.3629 -0.5145 -0.3673
 5860TIP3   OH238994   1.130   0.290  15.545 -0.4357  0.2937 -0.2034
 5860TIP3    H138995   1.063   0.290  15.476 -1.4991 -1.4122  0.7698
 5860TIP3    H238996   1.207   0.251  15.503 -1.2685 -1.3338 -0.3056
 5861TIP3   OH238997   6.315   3.047   1.124 -0.2274  0.6001 -0.1141
 5861TIP3    H138998   6.391   3.019   1.175  0.0111  2.2235  0.4714
 5861TIP3    H238999   6.240   3.017   1.175  0.0216  1.0195  0.5224
 5862TIP3   OH239000   3.009   2.572  10.433  0.0392  0.0400  0.0982
 5862TIP3    H139001   3.020   2.560  10.528 -0.8369 -0.3725  0.1596
 5862TIP3    H239002   3.091   2.541  10.395  0.0346 -0.7119  0.6664
 5863TIP3   OH239003   0.656   3.172  16.822 -0.2128  0.0317  0.6250
 5863TIP3    H139004   0.590   3.129  16.768  0.1516 -0.5516  0.6262
 5863TIP3    H239005   0.727   3.108  16.827  0.7578  1.0189 -0.1670
 5864TIP3   OH239006   6.284   3.466   3.671 -0.1453 -0.8603  0.2663
 5864TIP3    H139007   6.349   3.533   3.694 -3.0364  2.7272 -0.9656
 5864TIP3    H239008   6.289   3.402   3.741  1.3465  1.8425  2.8634
 5865TIP3   OH239009   4.698   4.682   0.033  0.0630 -0.3723  0.2230
 5865TIP3    H139010   4.657   4.728  -0.041  0.5176  0.0326  0.2209
 5865TIP3    H239011   4.624   4.655   0.088 -0.1935  0.6373  0.3828
 5866TIP3   OH239012   3.342   0.215  16.056 -0.7323 -0.2514  0.0435
 5866TIP3    H139013   3.386   0.248  16.135  0.2421  0.5778 -0.7987
 5866TIP3    H239014   3.408   0.159  16.014 -1.4367 -1.1275  0.0882
 5867TIP3   OH239015   5.964   4.893  16.897 -0.6355  0.1435 -1.1328
 5867TIP3    H139016   6.013   4.903  16.815  0.8908  0.3135 -0.2363
 5867TIP3    H239017   5.927   4.980  16.912 -0.5808  0.2205 -1.4263
 5868TIP3   OH239018   0.940   3.135   3.810  0.1179 -0.1536 -0.8184
 5868TIP3    H139019   0.876   3.136   3.739  1.6719 -2.1974 -2.4012
 5868TIP3    H239020   0.933   3.048   3.848 -0.4829  0.8072  1.4374
 5869TIP3   OH239021   4.470   2.911  13.416  0.2341 -0.1409 -0.8499
 5869TIP3    H139022   4.515   2.838  13.373  1.5218  0.0465  0.1076
 5869TIP3    H239023   4.377   2.887  13.413  0.3011 -0.3714 -3.2272
 5870TIP3   OH239024   5.677   2.689  16.405  0.2144  0.2399 -0.2005
 5870TIP3    H139025   5.647   2.605  16.370  0.5663 -0.4060  1.0091
 5870TIP3    H239026   5.698   2.671  16.496  1.5348  1.3493 -0.2571
 5871TIP3   OH239027   5.801   4.889   1.809 -0.3208 -0.1824  0.3062
 5871TIP3    H139028   5.783   4.916   1.900  2.1694  1.9094  0.3060
 5871TIP3    H239029   5.818   4.972   1.764 -1.8874 -1.1456 -2.2368
 5872TIP3   OH239030   5.791   3.675   0.785 -0.1725  0.0118  0.2174
 5872TIP3    H139031   5.783   3.581   0.774 -1.0392 -0.1496  1.9150
 5872TIP3    H239032   5.873   3.698   0.740 -1.4321 -1.0276 -2.8799
 5873TIP3   OH239033   4.052   1.373  14.554 -0.3633 -0.0793  0.0458
 5873TIP3    H139034   3.958   1.373  14.570 -0.5139 -0.3380 -0.7912
 5873TIP3    H239035   4.078   1.465  14.561 -0.5292 -0.0962  1.0477
 5874TIP3   OH239036   6.136   1.686  11.491  1.0087 -0.1551 -0.6794
 5874TIP3    H139037   6.134   1.595  11.521  1.1955  0.2815  0.7537
 5874TIP3    H239038   6.202   1.728  11.548  1.1491  0.8020 -1.5253
 5875TIP3   OH239039   1.170   1.226   4.148 -0.3210  0.5449 -0.4448
 5875TIP3    H139040   1.100   1.273   4.103 -0.1019 -0.5950 -2.0780
 5875TIP3    H239041   1.247   1.241   4.093  0.0555 -0.5462 -0.2352
 5876TIP3   OH239042   2.691   4.880   1.703 -0.4254  0.1869 -0.4015
 5876TIP3    H139043   2.629   4.808   1.705 -1.3414  0.8982  3.1654
 5876TIP3    H239044   2.639   4.957   1.725  1.0748  1.4545 -1.0958
 5877TIP3   OH239045   1.915   4.157  11.076 -0.7379  0.0991 -0.3081
 5877TIP3    H139046   1.825   4.127  11.063 -0.8004  0.7828 -1.7205
 5877TIP3    H239047   1.938   4.198  10.992 -0.3470  3.0826  1.1248
 5878TIP3   OH239048   3.469   3.818  15.304 -0.0499  0.1495 -0.2334
 5878TIP3    H139049   3.466   3.890  15.367  1.6936 -0.6752  0.8736
 5878TIP3    H239050   3.478   3.861  15.219  0.7763  1.2530  0.3844
 5879TIP3   OH239051   6.370   4.797   5.786  0.0879 -0.1741  0.2233
 5879TIP3    H139052   6.375   4.822   5.694 -0.7022  1.2056  0.5265
 5879TIP3    H239053   6.398   4.875   5.834 -3.7068  0.7984  1.2389
 5880TIP3   OH239054   1.484   5.670   6.168 -0.5720 -0.1528 -0.4698
 5880TIP3    H139055   1.518   5.724   6.096  2.3515  1.4369  1.8680
 5880TIP3    H239056   1.442   5.733   6.227  1.6942 -0.4168  1.6392
 5881TIP3   OH239057   2.620   2.369   3.241 -0.0787  0.3051 -0.0735
 5881TIP3    H139058   2.556   2.394   3.174  1.2448 -0.7339 -1.7824
 5881TIP3    H239059   2.682   2.442   3.243  1.0490 -0.5680 -1.5406
 5882TIP3   OH239060   3.356   3.063   6.009  0.7025 -0.0695 -0.0688
 5882TIP3    H139061   3.352   2.977   5.967 -0.5360  0.4813 -1.1277
 5882TIP3    H239062   3.355   3.044   6.103 -0.3679 -1.1833 -0.2855
 5883TIP3   OH239063   0.784   0.384   4.075  0.6163  0.3144  0.1387
 5883TIP3    H139064   0.701   0.418   4.041  0.4301  0.9420  1.1699
 5883TIP3    H239065   0.794   0.298   4.034 -0.3912  0.3587 -0.2242
 5884TIP3   OH239066   3.773   1.552  10.520  0.7786 -0.6030  0.1507
 5884TIP3    H139067   3.695   1.608  10.516  0.9695 -0.3898 -1.6931
 5884TIP3    H239068   3.744   1.473  10.566 -0.4905 -0.4332 -0.3194
 5885TIP3   OH239069   2.603   0.870   1.786 -0.3922 -0.5426  0.3455
 5885TIP3    H139070   2.508   0.882   1.790 -0.6882 -2.4186  0.1613
 5885TIP3    H239071   2.614   0.777   1.766  1.4251  0.1848 -2.8798
 5886TIP3   OH239072   6.624   3.981  17.003 -0.0166  0.4895 -0.0206
 5886TIP3    H139073   6.645   3.899  16.959 -1.1464  0.1188  0.1200
 5886TIP3    H239074   6.637   4.048  16.935  0.5611  0.1719 -0.2337
 5887TIP3   OH239075   3.408   0.773   5.918  0.1455 -0.6699  0.7222
 5887TIP3    H139076   3.378   0.847   5.867  1.8910 -0.7584 -0.5265
 5887TIP3    H239077   3.386   0.696   5.866  1.7590 -0.7746  0.1507
 5888TIP3   OH239078   3.348   4.273  11.902  0.0695 -0.6319  0.0290
 5888TIP3    H139079   3.384   4.265  11.814 -0.8316 -0.9175 -0.3261
 5888TIP3    H239080   3.419   4.311  11.954  0.5787 -0.3792 -0.8343
 5889TIP3   OH239081   5.915   5.987   6.248  0.0820  0.0129 -0.5380
 5889TIP3    H139082   5.970   5.974   6.171 -2.0025 -1.0057 -1.9541
 5889TIP3    H239083   5.848   6.049   6.219 -0.6930 -0.3207  0.4871
 5890TIP3   OH239084   1.792   1.997   4.242  0.0584 -0.0969 -0.0048
 5890TIP3    H139085   1.866   2.039   4.286 -0.0274 -1.2206  1.2814
 5890TIP3    H239086   1.739   2.070   4.209  0.6924  0.7689  0.8343
 5891TIP3   OH239087   3.301   5.520  16.177  0.0713 -0.1721  0.0724
 5891TIP3    H139088   3.349   5.475  16.247 -0.9727 -1.4357  0.0133
 5891TIP3    H239089   3.248   5.451  16.136 -1.7253  1.1379  0.0731
 5892TIP3   OH239090   2.344   1.732   4.099  0.1181  0.9778 -0.6412
 5892TIP3    H139091   2.317   1.786   4.024 -2.9259 -0.8575 -1.0491
 5892TIP3    H239092   2.261   1.703   4.138  1.5619 -2.1696  0.4199
 5893TIP3   OH239093   6.533   0.492   2.218  0.9062  0.0133 -0.1138
 5893TIP3    H139094   6.625   0.487   2.247  1.3777  2.5709 -0.8958
 5893TIP3    H239095   6.486   0.525   2.294  0.6882 -0.8575  0.1415
 5894TIP3   OH239096   6.489   3.427  11.618 -0.7463  0.1646  0.2511
 5894TIP3    H139097   6.554   3.386  11.561 -1.2683 -2.5401  1.4179
 5894TIP3    H239098   6.522   3.515  11.634  1.3510 -0.3142 -1.1091
 5895TIP3   OH239099   2.268   2.519  15.960 -0.2289 -0.2976  0.0955
 5895TIP3    H139100   2.354   2.559  15.965 -0.8645  1.4005 -1.4922
 5895TIP3    H239101   2.267   2.474  15.876 -0.4741 -1.3752  0.6599
 5896TIP3   OH239102   2.410   2.650  12.227  0.3936 -0.2238 -0.1635
 5896TIP3    H139103   2.451   2.613  12.306 -0.2006 -2.1227 -0.6717
 5896TIP3    H239104   2.379   2.573  12.179 -0.6960  0.9826 -1.4650
 5897TIP3   OH239105   5.454   2.563   1.345  0.0520 -0.0293  0.0037
 5897TIP3    H139106   5.470   2.474   1.376 -1.4680 -0.4451 -0.3178
 5897TIP3    H239107   5.539   2.591   1.310  0.7218 -1.0994  0.6847
 5898TIP3   OH239108   5.128   2.156  16.923 -0.7239 -0.2267 -0.0467
 5898TIP3    H139109   5.212   2.119  16.894 -0.0487  0.5670  0.8141
 5898TIP3    H239110   5.062   2.094  16.893  0.3468 -2.0884  1.2543
 5899TIP3   OH239111   0.362   4.400   4.133  0.4834 -0.1920  0.2115
 5899TIP3    H139112   0.401   4.469   4.187  0.6631 -0.6426  0.6756
 5899TIP3    H239113   0.324   4.339   4.197 -1.1281  0.3061 -0.2294
 5900TIP3   OH239114   3.690   4.431   4.365  0.2773 -0.2419  0.4741
 5900TIP3    H139115   3.631   4.397   4.298  0.8917  0.8222 -0.6415
 5900TIP3    H239116   3.677   4.526   4.364 -1.1274 -0.2874  3.2575
 5901TIP3   OH239117   4.514   3.393  12.008 -0.2267 -0.3995  0.4094
 5901TIP3    H139118   4.516   3.340  11.928 -2.5524 -2.8033  1.8164
 5901TIP3    H239119   4.525   3.331  12.079 -0.2884  1.4119  2.0895
 5902TIP3   OH239120   2.190   4.006  10.969  0.1384 -0.1912  0.4404
 5902TIP3    H139121   2.111   3.951  10.965  0.5695 -0.8035  0.0771
 5902TIP3    H239122   2.255   3.951  11.014  0.1390  0.5932  1.4193
 5903TIP3   OH239123   5.616   5.713   1.465 -0.0885 -0.2225  0.2111
 5903TIP3    H139124   5.709   5.735   1.458 -0.1163 -0.4384 -1.1389
 5903TIP3    H239125   5.579   5.741   1.381 -1.3779  0.4645  0.9814
 5904TIP3   OH239126   5.786   6.411   3.706  0.1312 -0.2621 -0.2461
 5904TIP3    H139127   5.705   6.360   3.712 -0.9555  1.3395 -0.6808
 5904TIP3    H239128   5.841   6.377   3.776 -0.0911 -2.7441 -1.1566
 5905TIP3   OH239129   4.469   4.128  10.938  0.1611  0.2822  0.9818
 5905TIP3    H139130   4.430   4.150  11.022 -0.0427 -1.4067  1.3629
 5905TIP3    H239131   4.471   4.210  10.890 -1.2740  0.9485  2.0048
 5906TIP3   OH239132   0.782   2.657   3.072 -0.5243  0.5627 -0.1876
 5906TIP3    H139133   0.876   2.674   3.071 -0.2104 -1.0768 -0.5125
 5906TIP3    H239134   0.755   2.681   3.160  1.0928 -3.1923  1.5501
 5907TIP3   OH239135   5.738   4.419   3.584  0.7165  0.1765  0.2733
 5907TIP3    H139136   5.689   4.339   3.601  0.9969 -0.1816 -0.5151
 5907TIP3    H239137   5.733   4.468   3.665  0.6154 -0.6818  0.8032
 5908TIP3   OH239138   6.369   2.057  12.171 -0.0098 -1.3122 -0.0184
 5908TIP3    H139139   6.430   2.127  12.149 -0.7520  0.5195  3.1702
 5908TIP3    H239140   6.287   2.102  12.191 -0.2964 -2.9238  2.9054
 5909TIP3   OH239141   0.815   4.815  16.241 -0.6753  0.1109  0.4443
 5909TIP3    H139142   0.726   4.784  16.224 -0.5817 -0.1728  0.4680
 5909TIP3    H239143   0.804   4.908  16.263 -0.9382  0.1392  0.2025
 5910TIP3   OH239144   4.475   5.370  17.112  0.1836  0.4177  0.4290
 5910TIP3    H139145   4.514   5.403  17.031 -1.2433  0.5590 -0.2216
 5910TIP3    H239146   4.398   5.321  17.083 -0.5939  0.8448  1.7325
 5911TIP3   OH239147   2.374   3.856   2.234 -0.2003 -0.6844 -0.2381
 5911TIP3    H139148   2.382   3.950   2.216  1.3942 -0.4135  1.5415
 5911TIP3    H239149   2.361   3.816   2.148  0.0596  1.0767 -1.1422
 5912TIP3   OH239150   1.591   5.307   3.882 -0.0601 -0.1239 -0.0681
 5912TIP3    H139151   1.654   5.261   3.939 -1.2336 -0.8875  0.6658
 5912TIP3    H239152   1.603   5.399   3.903 -1.0454 -0.4292  2.1138
 5913TIP3   OH239153   0.644   0.752   0.475 -0.1778 -0.2359 -0.4345
 5913TIP3    H139154   0.645   0.657   0.470 -3.2857 -0.4910  1.6731
 5913TIP3    H239155   0.574   0.779   0.415 -1.2142  0.4716  1.0485
 5914TIP3   OH239156   4.657   1.425   6.146  0.0531  0.1535  0.1754
 5914TIP3    H139157   4.613   1.345   6.116  0.4182 -0.0406  0.1495
 5914TIP3    H239158   4.674   1.410   6.239 -1.0532  0.7430  0.4836
 5915TIP3   OH239159   2.927   0.487   1.608  0.2109 -0.1143  0.0132
 5915TIP3    H139160   2.931   0.572   1.653 -2.0492  1.4379 -2.4173
 5915TIP3    H239161   3.014   0.449   1.621  1.7312  3.1256  0.2400
 5916TIP3   OH239162   0.305   5.379   2.064  0.6940  0.1858 -0.4420
 5916TIP3    H139163   0.394   5.413   2.073  0.9040 -0.7887  1.6907
 5916TIP3    H239164   0.314   5.284   2.068 -0.5116  0.0883  0.6769
 5917TIP3   OH239165   0.135   4.963  14.129 -0.3781 -0.0544 -0.2785
 5917TIP3    H139166   0.221   4.994  14.156  0.0831 -1.5874  0.1420
 5917TIP3    H239167   0.094   5.038  14.088  0.7649  0.9959  0.4379
 5918TIP3   OH239168   4.422   1.202  12.817 -0.5775 -0.0201 -0.0970
 5918TIP3    H139169   4.494   1.258  12.788  0.2167 -0.3030  1.2327
 5918TIP3    H239170   4.440   1.118  12.775  1.7147 -1.0351  2.5739
 5919TIP3   OH239171   2.213   1.731  14.174 -0.0349  0.2120  0.1622
 5919TIP3    H139172   2.190   1.792  14.244 -0.5127  0.3063 -0.0735
 5919TIP3    H239173   2.202   1.645  14.213 -0.4234  0.2624  0.1779
 5920TIP3   OH239174   4.522   4.658  13.315  0.1367 -0.6830  0.0730
 5920TIP3    H139175   4.430   4.646  13.291  0.1448 -0.7579  0.0788
 5920TIP3    H239176   4.519   4.690  13.405 -0.0256  2.5756 -0.9578
 5921TIP3   OH239177   4.489   3.563   1.373  0.2941 -0.2827 -0.2672
 5921TIP3    H139178   4.544   3.491   1.404  1.3517  0.3564 -0.6160
 5921TIP3    H239179   4.496   3.629   1.442 -0.0760 -0.2125 -0.2950
 5922TIP3   OH239180   5.798   2.415   1.705 -0.2204  0.1831  0.2591
 5922TIP3    H139181   5.813   2.322   1.723  1.4372  0.1251 -1.1935
 5922TIP3    H239182   5.858   2.461   1.764  0.3840  0.2449 -0.3961
 5923TIP3   OH239183   3.260   0.044   4.937  0.5788 -0.0600 -0.7028
 5923TIP3    H139184   3.314   0.099   4.995 -0.2536 -0.1962  0.2243
 5923TIP3    H239185   3.179   0.094   4.925 -0.4884 -1.3605  0.7434
 5924TIP3   OH239186   0.946   5.332   5.111  0.2885  0.1048 -0.1158
 5924TIP3    H139187   0.962   5.336   5.017 -3.6449  0.7304 -0.9307
 5924TIP3    H239188   0.866   5.280   5.119  0.2820  0.4237  2.8700
 5925TIP3   OH239189   5.099   4.982   1.972  0.0072 -0.1314  0.2179
 5925TIP3    H139190   5.122   5.072   1.996 -0.6889  0.2993 -0.6637
 5925TIP3    H239191   5.169   4.955   1.913  0.3350 -0.2572  0.6563
 5926TIP3   OH239192   6.457   2.600  10.967  0.2090  0.2371 -0.0739
 5926TIP3    H139193   6.374   2.647  10.964 -0.0103  0.2397  2.7823
 5926TIP3    H239194   6.433   2.508  10.968  0.3943  0.1608 -1.3719
 5927TIP3   OH239195   0.531   1.074  11.549  0.1366 -0.4207  0.3597
 5927TIP3    H139196   0.568   1.017  11.482  0.6880 -0.8099  0.9811
 5927TIP3    H239197   0.573   1.045  11.630 -0.0663  0.4445  0.7786
 5928TIP3   OH239198   1.255   1.685  15.653 -0.7135 -0.2536  0.2030
 5928TIP3    H139199   1.304   1.703  15.572 -0.8073 -0.1638  0.1665
 5928TIP3    H239200   1.185   1.626  15.626 -1.1784  0.3392  0.0819
 5929TIP3   OH239201   6.444   0.247   2.126  0.0898  0.3382  0.2240
 5929TIP3    H139202   6.468   0.336   2.152  0.5913 -0.1343  1.4534
 5929TIP3    H239203   6.374   0.259   2.061 -1.6569  1.5987  2.2138
 5930TIP3   OH239204   1.444   4.747  13.819  0.3446 -0.2338 -0.1115
 5930TIP3    H139205   1.487   4.818  13.868  0.2969 -0.9115  0.9532
 5930TIP3    H239206   1.502   4.672  13.832 -0.3026 -0.7315 -0.0883
 5931TIP3   OH239207   1.879   4.407   5.062  0.6730  0.3334  0.2476
 5931TIP3    H139208   1.830   4.384   4.984  2.8099 -1.3861 -0.7092
 5931TIP3    H239209   1.826   4.374   5.135  0.9175 -2.7651 -0.8144
 5932TIP3   OH239210   1.836   5.485  14.638 -0.1750  0.3094 -0.6550
 5932TIP3    H139211   1.922   5.513  14.605 -0.2405  1.9988  0.4325
 5932TIP3    H239212   1.805   5.560  14.689 -0.9488 -1.3546  1.5015
 5933TIP3   OH239213   5.521   0.579  16.708  0.1133  0.8501 -0.0662
 5933TIP3    H139214   5.467   0.655  16.735 -1.5568  0.1102 -1.1429
 5933TIP3    H239215   5.482   0.505  16.755 -0.0125  0.2568 -1.0765
 5934TIP3   OH239216   4.503   2.236   0.624 -0.1223  0.4152  0.1802
 5934TIP3    H139217   4.437   2.193   0.679  0.0896  0.9412  0.8712
 5934TIP3    H239218   4.473   2.326   0.616  2.1325  1.6671  3.3962
 5935TIP3   OH239219   4.221   1.896   0.585  0.3846 -0.3021  0.7106
 5935TIP3    H139220   4.274   1.947   0.646  0.4700 -0.3968  0.7156
 5935TIP3    H239221   4.275   1.821   0.564  1.0871  0.5931 -0.8393
 5936TIP3   OH239222   4.955   0.152  15.433 -0.5733  0.0627 -0.5658
 5936TIP3    H139223   4.865   0.137  15.462  0.6170 -2.9163  2.2007
 5936TIP3    H239224   4.993   0.207  15.502 -0.0287  0.6190 -1.2946
 5937TIP3   OH239225   4.810   4.707  11.345  0.1781  0.5078  0.5512
 5937TIP3    H139226   4.798   4.717  11.250 -1.6985  0.7516  0.7784
 5937TIP3    H239227   4.886   4.762  11.365  0.9928 -0.0343 -0.8873
 5938TIP3   OH239228   3.598   0.619  12.399 -0.0948 -0.2702  0.0916
 5938TIP3    H139229   3.637   0.601  12.314  2.4399 -3.4994  1.6929
 5938TIP3    H239230   3.509   0.586  12.392  1.0861 -3.7332 -0.4879
 5939TIP3   OH239231   1.359   1.887  15.111 -0.3319  0.8259 -0.5594
 5939TIP3    H139232   1.374   1.933  15.194 -1.7580 -0.4610  0.4816
 5939TIP3    H239233   1.263   1.884  15.103 -0.2830 -1.2911 -0.9235
 5940TIP3   OH239234   2.957   6.375   5.315 -0.2303 -0.1090  0.3608
 5940TIP3    H139235   2.992   6.394   5.228  1.2871 -1.8874  0.5327
 5940TIP3    H239236   2.989   6.447   5.370  1.0389 -0.3625 -0.0257
 5941TIP3   OH239237   6.661   3.844  11.044  0.1396  0.4788  0.5016
 5941TIP3    H139238   6.622   3.760  11.020  1.2691 -0.1304  0.7222
 5941TIP3    H239239   6.630   3.905  10.977 -0.9515 -0.0412  0.5284
 5942TIP3   OH239240   4.296   1.836   1.003 -0.4938 -0.1370 -0.2613
 5942TIP3    H139241   4.284   1.855   1.096 -2.6351  0.8501 -0.6818
 5942TIP3    H239242   4.207   1.834   0.968  0.2734 -0.6513 -2.2699
 5943TIP3   OH239243   4.550   2.216   0.919 -0.3874  0.0081 -0.3825
 5943TIP3    H139244   4.641   2.202   0.942 -0.4373  0.3356  0.0215
 5943TIP3    H239245   4.503   2.212   1.002 -0.8585 -1.0622 -0.6900
 5944TIP3   OH239246   1.437   4.030   2.841 -0.0396 -0.2434 -0.2413
 5944TIP3    H139247   1.361   4.021   2.899 -0.8707  0.2117 -1.2338
 5944TIP3    H239248   1.454   3.941   2.810  0.2818 -0.4573  0.5116
 5945TIP3   OH239249   6.721   5.218   4.027  0.2675  0.3521 -0.0582
 5945TIP3    H139250   6.654   5.245   3.964  0.7418  1.5331 -0.0851
 5945TIP3    H239251   6.721   5.287   4.093  0.0027 -0.7026  1.0853
 5946TIP3   OH239252   3.478   6.413  14.692  0.8999 -0.2982  0.5801
 5946TIP3    H139253   3.412   6.413  14.622  1.8938  1.3831 -0.4182
 5946TIP3    H239254   3.431   6.446  14.768  0.4245  0.3939  0.0079
 5947TIP3   OH239255   1.123   2.457  11.344 -0.5279  0.2404  0.6939
 5947TIP3    H139256   1.180   2.490  11.414 -0.1436  0.9848  0.0555
 5947TIP3    H239257   1.155   2.502  11.265  0.0450 -1.6968 -0.2376
 5948TIP3   OH239258   0.963   1.323   0.546  0.7455  0.1272 -0.4620
 5948TIP3    H139259   0.943   1.252   0.485 -0.2520  0.8364 -1.0052
 5948TIP3    H239260   0.922   1.400   0.506 -2.6233  0.1267  2.5194
 5949TIP3   OH239261   3.167   1.712   3.638 -0.6237  0.3832 -0.1269
 5949TIP3    H139262   3.096   1.747   3.583 -1.7829 -1.0603  0.4038
 5949TIP3    H239263   3.151   1.750   3.724  1.0767  2.4805 -0.6276
 5950TIP3   OH239264   0.446   3.549  12.707 -0.2067 -0.2616 -0.3317
 5950TIP3    H139265   0.518   3.537  12.768 -1.3156  0.9931  1.2806
 5950TIP3    H239266   0.378   3.488  12.737 -1.9375  2.4568  1.6761
 5951TIP3   OH239267   3.157   3.490  13.071 -0.3292 -0.3018 -0.6671
 5951TIP3    H139268   3.129   3.507  13.160  0.9565  0.8008 -0.4409
 5951TIP3    H239269   3.125   3.402  13.051 -2.4456  0.2515  0.1133
 5952TIP3   OH239270   0.558   0.198  16.971  0.2362 -0.0915  0.1432
 5952TIP3    H139271   0.527   0.140  16.901  0.8645  0.6231 -0.7468
 5952TIP3    H239272   0.503   0.276  16.963 -0.7180 -0.5829  1.4394
 5953TIP3   OH239273   6.424   4.958   4.130  0.9267  0.9785  0.2682
 5953TIP3    H139274   6.361   4.898   4.090 -0.5476  2.5740  0.0655
 5953TIP3    H239275   6.467   4.907   4.199  0.8510 -0.7241 -0.9021
 5954TIP3   OH239276   4.597   0.544  11.588 -0.2925  0.6568 -0.1166
 5954TIP3    H139277   4.659   0.497  11.533  0.2840  0.8831  0.3323
 5954TIP3    H239278   4.571   0.620  11.536  1.2911  1.6129  0.4378
 5955TIP3   OH239279   4.767   4.505   4.844  0.2723 -0.2364  0.0332
 5955TIP3    H139280   4.838   4.569   4.849 -0.6423  0.8574 -0.4967
 5955TIP3    H239281   4.810   4.420   4.852  1.7270  0.3688 -1.0345
 5956TIP3   OH239282   0.597   3.165  13.533 -0.7770 -0.0735 -0.0274
 5956TIP3    H139283   0.642   3.094  13.580 -2.3400 -0.4819  0.9333
 5956TIP3    H239284   0.599   3.138  13.441 -0.3036 -0.7523  0.1735
 5957TIP3   OH239285   4.389   2.957   5.056 -0.0933 -0.1570  0.2405
 5957TIP3    H139286   4.365   2.869   5.085  0.8313 -0.2876  0.6386
 5957TIP3    H239287   4.429   2.997   5.133  1.1410 -0.0275 -0.4504
 5958TIP3   OH239288   3.447   2.002  14.090 -0.1846  0.0495  0.1786
 5958TIP3    H139289   3.352   2.014  14.092 -0.2432 -0.2952 -0.2946
 5958TIP3    H239290   3.475   2.045  14.009  0.1058  0.4074  0.4617
 5959TIP3   OH239291   0.841   2.662   1.069 -0.3777 -0.4941 -0.2013
 5959TIP3    H139292   0.883   2.723   1.130  0.2363 -0.3590 -0.7392
 5959TIP3    H239293   0.748   2.684   1.071 -0.4269 -0.7690  0.9905
 5960TIP3   OH239294   5.972   4.129   1.883  0.9696 -0.3265  0.1968
 5960TIP3    H139295   5.941   4.040   1.899 -1.8927  0.5053 -0.0746
 5960TIP3    H239296   5.913   4.184   1.935  3.7718  1.3684  1.7695
 5961TIP3   OH239297   0.227   5.158  12.492  0.3138 -0.7030 -0.2656
 5961TIP3    H139298   0.173   5.236  12.482  0.3177 -0.4657  1.2707
 5961TIP3    H239299   0.188   5.094  12.433 -1.2445 -0.3194  0.2994
 5962TIP3   OH239300   4.454   5.252  15.204  0.2543  0.1108  0.3948
 5962TIP3    H139301   4.476   5.255  15.298  2.4176  0.9130 -0.0673
 5962TIP3    H239302   4.528   5.205  15.164 -0.6555 -0.2556 -0.9192
 5963TIP3   OH239303   6.753   2.440  11.919 -0.4286 -0.0185  0.4979
 5963TIP3    H139304   6.794   2.524  11.938 -0.5341  0.1650 -0.0586
 5963TIP3    H239305   6.663   2.449  11.952  0.0495 -0.5415  2.0264
 5964TIP3   OH239306   0.720   6.454   1.190  0.9064  0.0298 -0.0314
 5964TIP3    H139307   0.735   6.528   1.250 -0.3600  1.0710 -0.9245
 5964TIP3    H239308   0.805   6.412   1.182  1.6075  1.2322  0.7393
 5965TIP3   OH239309   3.820   3.151   1.673  0.0311 -0.1877  0.4080
 5965TIP3    H139310   3.853   3.154   1.583  1.7121 -2.0417  0.8780
 5965TIP3    H239311   3.732   3.113   1.665 -0.4221  1.0058 -0.5448
 5966TIP3   OH239312   6.238   0.941   0.606 -0.3158  0.2085  0.7748
 5966TIP3    H139313   6.280   0.870   0.557  1.0834  1.8722 -0.5982
 5966TIP3    H239314   6.144   0.927   0.593 -0.0182  0.0992 -1.7640
 5967TIP3   OH239315   3.202   6.610  16.563 -0.1961 -0.0018  0.0036
 5967TIP3    H139316   3.169   6.647  16.645  1.9750  3.5567 -0.5343
 5967TIP3    H239317   3.291   6.584  16.583 -0.3743 -1.2048 -0.7150
 5968TIP3   OH239318   3.749   3.358  13.388  0.5998 -0.9129 -0.5989
 5968TIP3    H139319   3.695   3.434  13.366 -0.6568 -1.1959  1.2334
 5968TIP3    H239320   3.807   3.347  13.313 -1.0835  0.1499 -2.1512
 5969TIP3   OH239321   0.774   1.768  12.103 -0.4841 -0.0664  0.6674
 5969TIP3    H139322   0.701   1.785  12.043 -1.6608 -1.8544  1.4855
 5969TIP3    H239323   0.746   1.805  12.187  0.4694  1.0468  0.5117
 5970TIP3   OH239324   2.331   6.155   3.211  0.5646  0.7676  0.3610
 5970TIP3    H139325   2.274   6.229   3.191 -0.2306  0.5432  1.6817
 5970TIP3    H239326   2.271   6.081   3.223  1.2058  0.3096  0.8204
 5971TIP3   OH239327   3.693   3.658  13.569  0.3778  0.3945 -0.4332
 5971TIP3    H139328   3.783   3.689  13.562  0.5015 -0.0508 -0.9192
 5971TIP3    H239329   3.689   3.583  13.510  0.2245 -0.8202  1.0557
 5972TIP3   OH239330   0.574   4.549  17.153 -0.5438 -0.1828  0.2639
 5972TIP3    H139331   0.530   4.615  17.100 -1.8982 -1.8915 -0.8561
 5972TIP3    H239332   0.520   4.540  17.231 -1.7627 -1.6197 -0.6884
 5973TIP3   OH239333   2.638   6.725  12.279 -0.1271 -0.3763  0.0909
 5973TIP3    H139334   2.707   6.723  12.213 -0.0881  1.5393  0.0225
 5973TIP3    H239335   2.572   6.784  12.242 -2.1278 -2.5645 -0.1106
 5974TIP3   OH239336   4.174   6.015   1.618  0.4476 -0.1226 -0.3877
 5974TIP3    H139337   4.123   6.073   1.561  0.6549 -1.3326 -1.8825
 5974TIP3    H239338   4.124   5.933   1.620  1.0063 -0.4609  0.2855
 5975TIP3   OH239339   4.927   3.374  11.335  0.4019 -0.8136  0.6227
 5975TIP3    H139340   4.932   3.299  11.394  1.2100 -0.9089  0.4416
 5975TIP3    H239341   5.018   3.394  11.314  0.1358 -0.5429 -0.2974
 5976TIP3   OH239342   6.661   5.280  12.285  0.3481 -0.4954 -0.2075
 5976TIP3    H139343   6.609   5.233  12.349  0.0633  0.0594 -0.0262
 5976TIP3    H239344   6.604   5.287  12.208 -0.2306  0.9374  0.3103
 5977TIP3   OH239345   2.140   2.468  14.229 -0.0412  0.4627  0.2660
 5977TIP3    H139346   2.088   2.547  14.241 -2.5524 -0.9620 -0.3515
 5977TIP3    H239347   2.203   2.469  14.301 -1.4107  1.9691  1.5319
 5978TIP3   OH239348   3.250   1.764   2.477  0.0323 -0.1567  0.2344
 5978TIP3    H139349   3.269   1.711   2.554  1.3348 -0.2239 -0.1112
 5978TIP3    H239350   3.328   1.817   2.464  1.0807 -2.1626 -2.6767
 5979TIP3   OH239351   6.743   1.857  16.334  0.5651  0.2627 -0.1912
 5979TIP3    H139352   6.723   1.783  16.276  0.8887 -0.8000  0.9951
 5979TIP3    H239353   6.796   1.818  16.404  0.3614  1.5385  0.7029
 5980TIP3   OH239354   2.597   3.132   2.146  0.7408 -0.1130  0.2289
 5980TIP3    H139355   2.648   3.117   2.225 -1.4118 -0.4953  1.6438
 5980TIP3    H239356   2.619   3.222   2.120  1.7068 -0.0913  1.0820
 5981TIP3   OH239357   1.788   0.291  14.390 -0.2648 -0.7192  0.4156
 5981TIP3    H139358   1.742   0.210  14.368  0.6833 -1.5463  1.3396
 5981TIP3    H239359   1.831   0.317  14.308 -3.1290  0.6665 -0.7691
 5982TIP3   OH239360   3.531   2.099  13.120 -0.0158  0.3793 -0.2963
 5982TIP3    H139361   3.459   2.046  13.086 -0.1727  1.5676 -1.9600
 5982TIP3    H239362   3.489   2.172  13.165  0.0956  1.2838 -1.6046
 5983TIP3   OH239363   3.210   1.488   0.262  0.7452  0.3042 -0.2085
 5983TIP3    H139364   3.157   1.474   0.340 -0.1694 -4.1162 -1.3531
 5983TIP3    H239365   3.300   1.495   0.295  0.4087 -1.7263  1.3301
 5984TIP3   OH239366   4.541   5.635   5.755 -0.2691 -0.0287 -0.3738
 5984TIP3    H139367   4.521   5.633   5.661 -2.0509  0.7200 -0.0457
 5984TIP3    H239368   4.535   5.544   5.783 -0.2363 -0.1895 -0.8742
 5985TIP3   OH239369   0.973   2.216  16.532 -0.4983 -0.0552 -0.4837
 5985TIP3    H139370   0.888   2.240  16.495  0.2132  1.5421 -1.1909
 5985TIP3    H239371   1.037   2.245  16.467  0.6541  0.0051  0.6263
 5986TIP3   OH239372   0.069   6.260  11.015 -0.7657  0.1618  0.3625
 5986TIP3    H139373  -0.026   6.258  11.030 -0.6287  1.4663  1.6930
 5986TIP3    H239374   0.106   6.281  11.101  0.7268 -0.0818 -0.1889
 5987TIP3   OH239375   6.792   3.223   4.490  0.5658 -0.0966  0.4161
 5987TIP3    H139376   6.768   3.315   4.492 -0.5954 -0.3834  0.6507
 5987TIP3    H239377   6.867   3.218   4.431 -0.0679  0.8361 -0.4903
 5988TIP3   OH239378   1.194   4.357  11.768 -0.0550 -0.3161 -0.0387
 5988TIP3    H139379   1.208   4.368  11.862  0.5946 -0.0379 -0.1681
 5988TIP3    H239380   1.173   4.445  11.737  1.1658 -0.1433 -0.3945
 5989TIP3   OH239381   2.656   6.368   4.591  0.7512  0.0415 -0.2674
 5989TIP3    H139382   2.724   6.308   4.620  1.4644 -0.5987 -3.0474
 5989TIP3    H239383   2.586   6.311   4.558  0.4834  0.7078 -0.8755
 5990TIP3   OH239384   1.224   2.143   4.470 -0.0229  0.3480  0.1420
 5990TIP3    H139385   1.261   2.119   4.385 -1.7258  0.2027 -0.5919
 5990TIP3    H239386   1.274   2.220   4.497  0.7000  0.2496 -0.8660
 5991TIP3   OH239387   6.388   3.159  16.877  0.3352 -0.1739  0.7877
 5991TIP3    H139388   6.480   3.138  16.896  0.4504  1.8066  3.0045
 5991TIP3    H239389   6.340   3.124  16.952 -0.1819  1.8700  1.4953
 5992TIP3   OH239390   3.036   5.498   5.407  0.2367  0.3019  0.2834
 5992TIP3    H139391   3.046   5.407   5.433 -0.1478 -0.4197 -1.8857
 5992TIP3    H239392   2.955   5.527   5.450 -0.8381 -1.0756 -0.7307
 5993TIP3   OH239393   3.934   6.539   4.814 -0.2336  0.2522 -0.0746
 5993TIP3    H139394   3.899   6.451   4.799 -2.0073  0.7483  0.9672
 5993TIP3    H239395   3.910   6.560   4.904 -0.7909  2.2251 -0.6288
 5994TIP3   OH239396   3.777   2.265   2.847  0.1931  0.1258 -0.0795
 5994TIP3    H139397   3.816   2.352   2.836  0.3452  0.1464  0.6263
 5994TIP3    H239398   3.691   2.273   2.806  0.2804  0.5529 -0.1885
 5995TIP3   OH239399   5.592   3.869  13.263  0.1472  0.5475 -0.2535
 5995TIP3    H139400   5.684   3.876  13.289 -0.9799  0.7572  4.4649
 5995TIP3    H239401   5.568   3.779  13.283 -0.9278  0.8032 -0.3272
 5996TIP3   OH239402   0.904   3.713   0.447 -0.0589  0.8213 -0.3203
 5996TIP3    H139403   0.856   3.695   0.528 -0.5978  2.6728 -0.1991
 5996TIP3    H239404   0.918   3.807   0.447  0.1129  0.8450 -2.2946
 5997TIP3   OH239405   3.321   6.734  12.576 -0.2923  0.0389 -0.0985
 5997TIP3    H139406   3.376   6.701  12.505  1.5183  0.5465  1.0043
 5997TIP3    H239407   3.269   6.659  12.604 -0.6541 -0.2920 -1.5952
 5998TIP3   OH239408   1.629   0.807   1.508  0.1005  0.4085  0.5049
 5998TIP3    H139409   1.666   0.893   1.528  1.1080 -0.2657  1.7162
 5998TIP3    H239410   1.661   0.750   1.579  0.9858 -1.3707 -1.1998
 5999TIP3   OH239411   5.686   4.853   3.575  0.5596 -0.1260 -0.7754
 5999TIP3    H139412   5.700   4.938   3.616 -0.1811 -0.7197  0.7803
 5999TIP3    H239413   5.629   4.872   3.500 -2.1412  0.4260  1.2794
 6000TIP3   OH239414   5.439   1.323  16.673 -0.2036  0.3645  0.1333
 6000TIP3    H139415   5.448   1.238  16.717  0.2135 -0.8721 -2.1641
 6000TIP3    H239416   5.349   1.349  16.689 -0.6992 -1.1225 -0.0792
 6001TIP3   OH239417   1.047   1.870   1.082 -0.2682 -0.7079  0.2393
 6001TIP3    H139418   0.976   1.862   1.147  0.0219  0.7882  0.7810
 6001TIP3    H239419   1.083   1.958   1.098  1.1703 -1.1373 -0.5809
 6002TIP3   OH239420   5.145   0.943   4.141  0.3328  0.4481 -0.0803
 6002TIP3    H139421   5.124   1.019   4.194 -1.8606  0.0697 -0.3178
 6002TIP3    H239422   5.129   0.868   4.199  1.0722  0.1198 -0.2891
 6003TIP3   OH239423   6.632   5.428  15.232 -0.2763 -0.3286 -0.3793
 6003TIP3    H139424   6.573   5.354  15.213 -1.9374  1.0745 -0.9730
 6003TIP3    H239425   6.624   5.484  15.155  0.4170  0.8114  0.3611
 6004TIP3   OH239426   2.231   5.751  11.392  0.2256 -0.3922 -0.2857
 6004TIP3    H139427   2.206   5.788  11.476  3.2567  3.7624 -0.8985
 6004TIP3    H239428   2.324   5.727  11.403  0.2469 -1.3068 -2.0161
 6005TIP3   OH239429   4.656   4.378   6.120 -0.1309 -0.8061 -0.0608
 6005TIP3    H139430   4.685   4.419   6.038  0.3666  0.3629  0.6740
 6005TIP3    H239431   4.587   4.435   6.153  2.2200  1.0116  2.2296
 6006TIP3   OH239432   2.974   4.014   1.985 -0.2973 -0.0396 -0.4619
 6006TIP3    H139433   2.892   4.060   1.970 -0.5668  0.5912  2.3260
 6006TIP3    H239434   3.039   4.062   1.933 -1.2815  1.0016 -0.7572
 6007TIP3   OH239435   5.915   6.704   3.697  0.1663 -0.3049 -0.1734
 6007TIP3    H139436   5.822   6.683   3.691  0.3895 -1.4068  0.1430
 6007TIP3    H239437   5.948   6.647   3.766  0.8604  0.8708  0.4955
 6008TIP3   OH239438   5.315   2.444   1.643  0.4986  0.3756  0.1014
 6008TIP3    H139439   5.272   2.362   1.619 -1.1289  0.3310  2.7774
 6008TIP3    H239440   5.265   2.511   1.597  0.3192  0.0294 -0.2130
 6009TIP3   OH239441   2.931   5.364   5.769  0.0903  0.4273 -0.3914
 6009TIP3    H139442   2.944   5.324   5.855 -0.8172  0.4262 -0.2388
 6009TIP3    H239443   2.877   5.301   5.722 -1.2037  1.3634 -0.2142
 6010TIP3   OH239444   5.649   2.581  12.841  0.1773 -0.6777  0.0111
 6010TIP3    H139445   5.668   2.559  12.932 -1.7876  2.4093  1.3195
 6010TIP3    H239446   5.556   2.565  12.830 -0.0365  0.8571 -0.7956
 6011TIP3   OH239447   1.434   6.645   0.306 -0.5147 -0.4857  0.1200
 6011TIP3    H139448   1.362   6.699   0.273 -1.9526 -1.5614  1.3553
 6011TIP3    H239449   1.460   6.686   0.388  0.0020 -0.3620 -0.0986
 6012TIP3   OH239450   1.479   6.147   2.443  0.4171  0.1787 -0.8502
 6012TIP3    H139451   1.527   6.107   2.370  2.6958  0.3439  0.4324
 6012TIP3    H239452   1.535   6.129   2.519 -1.1452  1.2645  0.6069
 6013TIP3   OH239453   1.478   4.939   4.979 -0.2465 -0.8395  0.6075
 6013TIP3    H139454   1.570   4.938   5.004 -0.1857 -1.9805  0.4137
 6013TIP3    H239455   1.470   4.869   4.913 -1.0970 -0.2576  0.0653
 6014TIP3   OH239456   5.677   0.620  13.033 -0.0929 -0.3530  0.0818
 6014TIP3    H139457   5.678   0.558  12.960 -2.2376  1.1940 -1.3838
 6014TIP3    H239458   5.605   0.590  13.089 -0.0141 -0.1757  0.2774
 6015TIP3   OH239459   0.109   3.682  15.656  0.7556 -0.4489  0.0500
 6015TIP3    H139460   0.032   3.738  15.669  1.4084  1.4571 -3.1311
 6015TIP3    H239461   0.155   3.685  15.739 -0.5886  1.7045  0.8006
 6016TIP3   OH239462   2.105   6.648  16.209  0.7779  0.0679 -0.5034
 6016TIP3    H139463   2.136   6.620  16.295 -3.8930 -1.8565  0.9019
 6016TIP3    H239464   2.117   6.571  16.153  0.9337  0.2071 -0.6587
 6017TIP3   OH239465   5.245   5.971  14.149  0.0797  0.4097 -0.3738
 6017TIP3    H139466   5.181   6.009  14.209  0.6812  1.0324 -0.1124
 6017TIP3    H239467   5.229   6.015  14.066  1.4283  2.0253  0.1715
 6018TIP3   OH239468   1.497   2.586   2.661 -0.3436 -0.7512  0.0382
 6018TIP3    H139469   1.508   2.553   2.750  1.5094 -1.7735 -0.5163
 6018TIP3    H239470   1.542   2.670   2.661  0.9744 -1.4375 -0.2880
 6019TIP3   OH239471   1.674   1.070   5.491  0.1961 -0.0782  0.7515
 6019TIP3    H139472   1.755   1.025   5.518  0.4792 -0.1501 -0.1680
 6019TIP3    H239473   1.626   1.004   5.442  0.3268  0.4262 -0.0765
 6020TIP3   OH239474   2.842   0.399  13.139 -0.0234 -0.2512 -0.0925
 6020TIP3    H139475   2.921   0.423  13.187 -0.8706  1.8351  0.4074
 6020TIP3    H239476   2.789   0.351  13.202  0.1864 -0.2685  0.0704
 6021TIP3   OH239477   4.149   0.331  12.239  0.5753  0.0890 -0.1251
 6021TIP3    H139478   4.208   0.396  12.279 -0.8422 -0.3390  3.0065
 6021TIP3    H239479   4.061   0.368  12.253 -0.1017 -1.0949 -1.1085
 6022TIP3   OH239480   0.405   1.752   1.054  0.1610  0.2829 -0.0946
 6022TIP3    H139481   0.462   1.829   1.053 -0.3481  0.6713 -1.1349
 6022TIP3    H239482   0.445   1.693   0.989  0.5865 -0.3712  0.7450
 6023TIP3   OH239483   0.184   5.248  15.784  0.4203  0.2491 -0.2379
 6023TIP3    H139484   0.089   5.231  15.787  0.3450  0.7435  0.5885
 6023TIP3    H239485   0.198   5.313  15.853  0.9865  2.0619 -1.9713
 6024TIP3   OH239486   4.049   4.633   6.556 -0.0793 -0.4291  0.6751
 6024TIP3    H139487   4.086   4.695   6.618 -0.2356  1.4832 -1.0174
 6024TIP3    H239488   3.964   4.610   6.592 -0.1478  0.6052  1.2035
 6025TIP3   OH239489   0.568   4.356  16.606  0.6875 -0.3611  0.4912
 6025TIP3    H139490   0.483   4.319  16.583 -0.4390  1.4065  1.5727
 6025TIP3    H239491   0.629   4.282  16.599 -0.7851 -1.5018 -1.0359
 6026TIP3   OH239492   6.046   4.107   2.743  0.4835 -0.0454  0.0698
 6026TIP3    H139493   5.952   4.116   2.725  0.4087  0.4002  0.6295
 6026TIP3    H239494   6.068   4.019   2.713  0.1115  0.2122 -1.0094
 6027TIP3   OH239495   4.778   6.787  13.475 -0.1303  0.4434  0.2789
 6027TIP3    H139496   4.745   6.857  13.418  0.9237 -0.2137 -1.1850
 6027TIP3    H239497   4.873   6.793  13.468  0.0119  0.1798  1.7905
 6028TIP3   OH239498   5.456   4.757  14.127 -0.1372  0.5189 -0.5064
 6028TIP3    H139499   5.492   4.775  14.040 -1.9949 -0.1746 -1.4839
 6028TIP3    H239500   5.366   4.790  14.123 -0.4794 -0.1465  0.9216
 6029TIP3   OH239501   1.460   5.609   4.845 -0.7548 -0.2476 -0.3279
 6029TIP3    H139502   1.465   5.521   4.882  1.1138  0.9938  2.7703
 6029TIP3    H239503   1.478   5.597   4.751  1.7271 -2.9355  0.3630
 6030TIP3   OH239504   5.603   6.316  15.060  0.5809 -0.1227  0.0278
 6030TIP3    H139505   5.699   6.313  15.055  0.6959  1.8764 -0.0992
 6030TIP3    H239506   5.576   6.341  14.971 -0.0242 -0.3226  0.1517
 6031TIP3   OH239507   3.818   0.596   3.508 -0.1345  0.7259  0.0883
 6031TIP3    H139508   3.843   0.504   3.503  0.6812  0.9582 -0.3014
 6031TIP3    H239509   3.722   0.595   3.507 -0.1617 -0.1668  1.2170
 6032TIP3   OH239510   4.976   1.393  14.381 -0.1143  0.1343  0.3405
 6032TIP3    H139511   4.902   1.356  14.429  1.1807 -0.2090  2.1980
 6032TIP3    H239512   4.980   1.341  14.301 -1.1150 -0.6863  0.7834
 6033TIP3   OH239513   2.897   6.641   1.738 -0.4618 -0.5198  0.4225
 6033TIP3    H139514   2.963   6.592   1.689  0.1720 -0.3730  1.1314
 6033TIP3    H239515   2.816   6.592   1.722  0.2954 -2.3514  1.8409
 6034TIP3   OH239516   0.764   2.043  14.802 -0.3498  0.0714  0.7618
 6034TIP3    H139517   0.757   2.101  14.878  0.0974 -0.7425  1.4404
 6034TIP3    H239518   0.858   2.037  14.785 -0.3150 -1.1851  1.2942
 6035TIP3   OH239519   4.137   4.409  13.923  0.0824 -0.0175 -0.1981
 6035TIP3    H139520   4.186   4.479  13.966  0.9461 -1.1935  0.8233
 6035TIP3    H239521   4.047   4.441  13.920  0.4701  1.1640  0.1448
 6036TIP3   OH239522   5.380   6.452  12.754 -0.0344  0.0576  0.4674
 6036TIP3    H139523   5.294   6.449  12.713  0.5943 -2.2343 -0.8571
 6036TIP3    H239524   5.436   6.497  12.691  0.0357  0.3614  0.7415
 6037TIP3   OH239525   3.812   2.709  12.300 -0.0098  0.0071 -0.0878
 6037TIP3    H139526   3.776   2.720  12.212  0.1850 -0.5168 -0.2382
 6037TIP3    H239527   3.736   2.709  12.358 -0.1877 -0.2662 -0.3187
 6038TIP3   OH239528   2.061   0.503  12.753  0.2648  0.1452 -0.2255
 6038TIP3    H139529   2.026   0.461  12.832  0.1962 -0.7596 -0.7156
 6038TIP3    H239530   2.155   0.483  12.755  0.1760 -0.3475 -0.6348
 6039TIP3   OH239531   6.234   3.927  13.177  0.1817 -0.5566  0.0738
 6039TIP3    H139532   6.282   3.947  13.097  1.0058  0.1501  0.7355
 6039TIP3    H239533   6.204   3.836  13.165  3.3406 -1.7639  0.4345
 6040TIP3   OH239534   5.632   4.900  14.922 -0.0809  0.1347  0.4429
 6040TIP3    H139535   5.646   4.896  14.828 -0.0216  1.1444  0.3977
 6040TIP3    H239536   5.720   4.899  14.960 -0.1186 -2.1726  0.6128
 6041TIP3   OH239537   2.782   2.332  12.306  0.0473 -0.4023 -0.1286
 6041TIP3    H139538   2.725   2.278  12.251 -1.8561  1.2343  0.1417
 6041TIP3    H239539   2.770   2.297  12.394 -1.7447  0.8015  0.1639
 6042TIP3   OH239540   6.235   3.136  14.177 -0.0102 -0.5741 -0.1474
 6042TIP3    H139541   6.233   3.043  14.156 -0.5273 -0.3426 -1.1939
 6042TIP3    H239542   6.143   3.161  14.181  0.1271 -0.1135  0.1936
 6043TIP3   OH239543   6.148   2.060  14.620  0.4638  0.4269  0.2244
 6043TIP3    H139544   6.182   2.123  14.556  0.0669  0.7285  0.3088
 6043TIP3    H239545   6.058   2.044  14.593 -0.2272  1.7660  1.6048
 6044TIP3   OH239546   3.516   0.095  13.209  0.0292  0.1220 -0.3661
 6044TIP3    H139547   3.513   0.017  13.264  0.3146  0.6511  0.4216
 6044TIP3    H239548   3.609   0.108  13.191  0.0046  0.3983 -0.3054
 6045TIP3   OH239549   0.206   1.288   2.797 -1.0898  0.0800  0.4303
 6045TIP3    H139550   0.165   1.373   2.814  0.6702  1.6218 -2.2867
 6045TIP3    H239551   0.134   1.231   2.775 -2.2152  1.1912  1.0845
 6046TIP3   OH239552   2.905   5.988  13.144  0.1328 -0.1516  0.6579
 6046TIP3    H139553   2.986   5.992  13.094  0.5349 -0.6063  1.2510
 6046TIP3    H239554   2.855   5.916  13.104  0.3641 -0.3802  0.7741
 6047TIP3   OH239555   0.078   5.191   5.385 -0.5647  0.0675  0.2683
 6047TIP3    H139556   0.067   5.176   5.479  1.0715  0.1207  0.4926
 6047TIP3    H239557   0.095   5.284   5.377 -0.4238  0.0148 -0.0621
 6048TIP3   OH239558   4.417   0.226  15.723 -0.0935 -0.6327  0.0317
 6048TIP3    H139559   4.494   0.267  15.763 -0.8518  1.1919 -0.2726
 6048TIP3    H239560   4.375   0.297  15.675 -3.7203 -0.6836  2.7375
 6049TIP3   OH239561   3.512   3.073  16.846 -0.0176  0.1237  0.1587
 6049TIP3    H139562   3.537   3.001  16.904 -1.3016 -2.2887 -2.0745
 6049TIP3    H239563   3.594   3.119  16.829  0.4898  0.6455  3.3579
 6050TIP3   OH239564   5.709   6.012   4.978  0.1915 -0.0609  0.6119
 6050TIP3    H139565   5.626   5.991   4.935  0.5478 -1.2251  0.4623
 6050TIP3    H239566   5.684   6.037   5.067 -0.3370 -0.1530  0.4932
 6051TIP3   OH239567   0.145   4.887  10.787  0.0496 -0.0994  0.6250
 6051TIP3    H139568   0.057   4.860  10.813  0.0754 -1.1220 -0.2612
 6051TIP3    H239569   0.137   4.906  10.693  0.8609 -0.6310  0.4372
 6052TIP3   OH239570   6.433   0.286   4.454 -0.4070 -0.1553  0.5552
 6052TIP3    H139571   6.496   0.276   4.525  0.1113  1.1795  0.3199
 6052TIP3    H239572   6.353   0.247   4.487  0.1272 -0.5370  1.4445
 6053TIP3   OH239573   4.866   2.097   0.737  0.1353 -0.1176  1.1645
 6053TIP3    H139574   4.933   2.102   0.669  0.2978  0.0350  1.3340
 6053TIP3    H239575   4.784   2.112   0.691  0.2055 -0.4325  0.9349
 6054TIP3   OH239576   4.923   4.592  15.329  0.0824 -0.7799 -0.3003
 6054TIP3    H139577   4.835   4.629  15.335  0.3479 -0.4322  2.0123
 6054TIP3    H239578   4.972   4.634  15.399  0.9700 -3.9396  1.1348
 6055TIP3   OH239579   1.614   0.332   5.835 -0.7170  0.0964 -0.3219
 6055TIP3    H139580   1.567   0.263   5.788 -1.6434 -0.4812  1.3600
 6055TIP3    H239581   1.703   0.298   5.845 -1.0371 -0.6660  0.0655
 6056TIP3   OH239582   4.777   1.102   1.317 -0.1871  0.6144  0.1328
 6056TIP3    H139583   4.838   1.124   1.247  0.1281 -0.4816  0.0481
 6056TIP3    H239584   4.789   1.008   1.332  0.7550  1.0529  2.6018
 6057TIP3   OH239585   5.962   1.179   4.327  0.5296  0.3008 -0.5336
 6057TIP3    H139586   5.971   1.232   4.248  2.2521  1.8437  0.6297
 6057TIP3    H239587   6.044   1.131   4.334  0.8932  1.0660  0.8998
 6058TIP3   OH239588   5.433   3.226  12.852 -0.0211 -0.7572  0.2169
 6058TIP3    H139589   5.452   3.215  12.759 -1.0730  0.0201 -0.1179
 6058TIP3    H239590   5.443   3.320  12.867 -0.0720 -0.8493  0.8375
 6059TIP3   OH239591   4.392   6.417  16.354 -0.0615  0.0861  0.7790
 6059TIP3    H139592   4.421   6.330  16.381 -1.2016 -1.4737 -2.5055
 6059TIP3    H239593   4.297   6.409  16.344  0.1165  0.4955 -2.8649
 6060TIP3   OH239594   4.923   3.003   4.040  1.0338  0.3176 -0.2709
 6060TIP3    H139595   4.901   3.052   4.119 -2.1902  1.6425 -1.7943
 6060TIP3    H239596   5.010   3.033   4.016  1.4938  0.9616  1.9456
 6061TIP3   OH239597   4.181   4.862  13.242 -0.3754  0.0017  0.5591
 6061TIP3    H139598   4.131   4.852  13.162  0.3927  0.1237  0.0508
 6061TIP3    H239599   4.134   4.809  13.307 -1.1713  0.1558  0.1158
 6062TIP3   OH239600   2.072   1.159   4.688 -0.4014  0.2341  0.4928
 6062TIP3    H139601   1.994   1.210   4.669 -0.6242 -0.1118  0.4586
 6062TIP3    H239602   2.144   1.211   4.653 -0.7342 -0.0612 -0.7008
 6063TIP3   OH239603   0.765   4.111  13.777 -0.0711 -0.2411 -0.6750
 6063TIP3    H139604   0.721   4.080  13.856 -1.1775  0.9386 -0.8011
 6063TIP3    H239605   0.793   4.031  13.733 -0.9010 -0.9778  0.0959
 6064TIP3   OH239606   3.503   6.380  16.006 -0.1878  0.0246 -0.2088
 6064TIP3    H139607   3.580   6.433  15.983 -0.0108  0.0781  0.4911
 6064TIP3    H239608   3.429   6.436  15.985 -0.0137  0.3468  0.0274
 6065TIP3   OH239609   3.409   6.061  17.167 -0.3886 -0.2224 -1.0911
 6065TIP3    H139610   3.411   6.081  17.073  0.5867  0.7754 -0.8713
 6065TIP3    H239611   3.321   6.084  17.195 -0.7481 -0.7110 -1.8000
 6066TIP3   OH239612   2.112   4.016   3.817  0.2924 -0.0669  0.0582
 6066TIP3    H139613   2.069   4.032   3.733  0.0275  1.3335  0.4270
 6066TIP3    H239614   2.084   4.090   3.872  2.1938  0.2168  0.6920
 6067TIP3   OH239615   4.334   4.778  16.886  0.2152  0.0930 -0.2098
 6067TIP3    H139616   4.310   4.870  16.896  0.0392 -0.0394  0.6841
 6067TIP3    H239617   4.422   4.772  16.924  0.6045  0.0632 -1.0951
 6068TIP3   OH239618   6.358   0.846  11.515 -0.2176  0.5996 -0.3784
 6068TIP3    H139619   6.425   0.915  11.511  0.6002 -0.1452 -0.0557
 6068TIP3    H239620   6.363   0.803  11.429  0.1890  0.1330 -0.1291
 6069TIP3   OH239621   4.226   4.486   4.449  0.1310  0.3972 -0.2385
 6069TIP3    H139622   4.181   4.445   4.523  1.0546 -2.2887 -1.0462
 6069TIP3    H239623   4.162   4.484   4.378 -0.1182  1.1990 -0.0398
 6070TIP3   OH239624   3.236   1.603  15.516 -0.4349 -0.6761  0.0202
 6070TIP3    H139625   3.283   1.682  15.542  0.2704  0.0206 -3.0300
 6070TIP3    H239626   3.266   1.536  15.578  0.8565  0.8652  1.1300
 6071TIP3   OH239627   3.008   1.583   5.862 -0.4484 -0.1540  0.5994
 6071TIP3    H139628   2.967   1.501   5.835  2.6407 -1.4510 -0.6383
 6071TIP3    H239629   3.044   1.620   5.781  0.3776  1.1155  1.5066
 6072TIP3   OH239630   4.510   3.101  16.575  0.2171 -0.7178  0.4893
 6072TIP3    H139631   4.554   3.183  16.599  1.1302 -0.9367 -0.3541
 6072TIP3    H239632   4.574   3.033  16.598 -0.5254 -1.2090  1.1576
 6073TIP3   OH239633   6.363   2.330  14.022 -0.0525 -0.0668 -0.3274
 6073TIP3    H139634   6.454   2.358  14.029 -0.7415  2.5647 -0.8323
 6073TIP3    H239635   6.360   2.279  13.941  1.3987 -2.3489  0.9776
 6074TIP3   OH239636   2.423   2.724   6.701  0.0248 -0.1951  0.1812
 6074TIP3    H139637   2.453   2.718   6.610  0.3865  2.7196  0.0191
 6074TIP3    H239638   2.328   2.735   6.695  0.1108  0.5554  0.0966
 6075TIP3   OH239639   5.570   2.396   2.165  0.1547 -0.0935  0.1147
 6075TIP3    H139640   5.651   2.413   2.117  0.3489  2.6793  1.2228
 6075TIP3    H239641   5.589   2.422   2.255 -0.9230 -2.8843  1.2868
 6076TIP3   OH239642   0.356   1.923  16.719  0.2643  0.3347 -0.1477
 6076TIP3    H139643   0.410   1.865  16.772  1.7827  1.0349 -0.8731
 6076TIP3    H239644   0.375   2.011  16.752  0.3652  0.6772 -1.0844
 6077TIP3   OH239645   0.199   4.893   0.105  0.3749 -0.3461  0.0961
 6077TIP3    H139646   0.139   4.937   0.165  0.1234 -0.0691 -0.3580
 6077TIP3    H239647   0.193   4.800   0.129  1.6839 -0.0685  1.7639
 6078TIP3   OH239648   4.434   1.490  15.264  0.0723 -0.0173 -0.3383
 6078TIP3    H139649   4.475   1.424  15.320 -1.1057  0.5852  1.3035
 6078TIP3    H239650   4.453   1.460  15.175  0.0587 -2.2774  0.3357
 6079TIP3   OH239651   6.339   6.445   2.087 -0.5290 -0.1116 -0.0546
 6079TIP3    H139652   6.308   6.446   1.996 -2.3969 -1.1464  0.5175
 6079TIP3    H239653   6.325   6.355   2.117 -0.3094  0.2992  1.3684
 6080TIP3   OH239654   3.107   0.419  16.849 -0.4312 -0.3287 -0.0747
 6080TIP3    H139655   3.179   0.465  16.806 -1.2907 -0.6025 -1.8928
 6080TIP3    H239656   3.145   0.386  16.930  0.9839  1.0874 -0.1081
 6081TIP3   OH239657   1.530   2.844   2.345  0.2134  0.6165 -0.4658
 6081TIP3    H139658   1.482   2.878   2.421  0.8904  0.3918  0.0650
 6081TIP3    H239659   1.461   2.817   2.284 -0.3538  2.5598 -0.7531
 6082TIP3   OH239660   5.912   6.091   4.499  0.1193 -0.0008  0.3791
 6082TIP3    H139661   5.892   6.060   4.411 -0.9589  2.8437 -0.4837
 6082TIP3    H239662   6.005   6.072   4.511  0.8764  1.5237 -2.3231
 6083TIP3   OH239663   4.808   4.256   5.215  0.5083 -0.0779  0.0484
 6083TIP3    H139664   4.846   4.263   5.303 -0.0692 -2.0361  0.5183
 6083TIP3    H239665   4.715   4.239   5.231  0.0089  1.4871 -1.0170
 6084TIP3   OH239666   5.475   3.204   4.753 -0.5212 -0.4402 -0.1901
 6084TIP3    H139667   5.429   3.255   4.820  0.3963 -0.5189  0.5172
 6084TIP3    H239668   5.557   3.253   4.738  0.3596 -1.6598  0.4722
 6085TIP3   OH239669   5.560   5.292  16.119  0.1334 -0.2113 -0.6038
 6085TIP3    H139670   5.627   5.224  16.113 -1.4458 -1.8770 -0.2550
 6085TIP3    H239671   5.499   5.272  16.048 -0.3796  0.8282 -0.4799
 6086TIP3   OH239672   1.369   4.458   0.503 -0.3754 -0.4460  0.4462
 6086TIP3    H139673   1.431   4.393   0.535 -0.2758 -0.7280 -0.2917
 6086TIP3    H239674   1.399   4.479   0.414 -0.7064  0.2242  0.4783
 6087TIP3   OH239675   5.212   1.727   1.963  0.0921 -0.1934  0.2975
 6087TIP3    H139676   5.296   1.693   1.933 -0.8816 -1.8297 -0.7400
 6087TIP3    H239677   5.215   1.719   2.058 -0.0641 -3.4480  0.1608
 6088TIP3   OH239678   5.537   6.238  14.237  0.0029 -0.2332 -0.1936
 6088TIP3    H139679   5.597   6.269  14.169 -1.1705  0.8169 -0.8026
 6088TIP3    H239680   5.583   6.167  14.280  1.0286 -0.5124 -1.6980
 6089TIP3   OH239681   2.356   2.559   6.960  0.0696  0.4220 -0.0459
 6089TIP3    H139682   2.386   2.480   6.916 -0.2239  0.3662 -0.1514
 6089TIP3    H239683   2.382   2.630   6.902 -0.7969  0.3129 -0.5907
 6090TIP3   OH239684   4.885   3.992   2.040 -0.3690 -0.6214 -0.0125
 6090TIP3    H139685   4.873   3.900   2.017  1.6071 -0.7403 -0.7610
 6090TIP3    H239686   4.978   3.998   2.064 -0.5691  1.0972  0.4031
 6091TIP3   OH239687   0.523   0.463   2.303 -0.2510 -0.2773  0.8169
 6091TIP3    H139688   0.585   0.528   2.267 -1.3716  0.7845  0.7439
 6091TIP3    H239689   0.437   0.499   2.283 -0.9069 -1.7032  0.9798
 6092TIP3   OH239690   4.683   1.641  13.313  0.0793 -0.1272  0.8684
 6092TIP3    H139691   4.762   1.686  13.343 -0.6707  1.2742  0.8338
 6092TIP3    H239692   4.709   1.598  13.231  1.4771 -1.9082  2.1831
 6093TIP3   OH239693   4.725   3.894   4.816  0.0961  0.2715  0.1012
 6093TIP3    H139694   4.675   3.938   4.885 -0.0655 -3.2447  2.4947
 6093TIP3    H239695   4.757   3.814   4.857  0.0846 -2.0600 -3.9191
 6094TIP3   OH239696   4.213   2.327  10.496 -0.6829  0.2346  0.2376
 6094TIP3    H139697   4.193   2.416  10.523  0.3156  0.4831  0.2136
 6094TIP3    H239698   4.269   2.337  10.418  1.2948 -0.3335  1.5066
 6095TIP3   OH239699   1.578   1.470   3.625  0.4399  0.1683 -0.3433
 6095TIP3    H139700   1.548   1.468   3.534  0.7986 -1.6040 -0.4515
 6095TIP3    H239701   1.502   1.439   3.675  0.5294  0.2970 -0.1274
 6096TIP3   OH239702   4.132   4.545  12.988  0.2591 -0.4588 -0.6608
 6096TIP3    H139703   4.123   4.513  12.898 -1.4749  1.9454 -1.4615
 6096TIP3    H239704   4.183   4.626  12.979  2.2106 -1.4058  0.9196
 6097TIP3   OH239705   1.114   3.790  16.837  0.2941 -0.3285  0.3705
 6097TIP3    H139706   1.206   3.817  16.838  0.0068  0.6946  0.0628
 6097TIP3    H239707   1.102   3.749  16.751  0.1820  0.5836 -0.0606
 6098TIP3   OH239708   5.624   1.891   3.945  0.8589 -0.0146  0.2837
 6098TIP3    H139709   5.553   1.946   3.980  1.0004  0.5259 -0.2601
 6098TIP3    H239710   5.638   1.924   3.856  2.9420  1.0117  0.9378
 6099TIP3   OH239711   0.576   1.230   0.274  0.9746 -0.5499 -0.1761
 6099TIP3    H139712   0.665   1.258   0.249  1.1278 -1.4398 -0.6346
 6099TIP3    H239713   0.531   1.217   0.191 -0.0889  1.3549  0.0359
 6100TIP3   OH239714   4.770   5.641   0.938 -0.0233  0.0797 -0.8481
 6100TIP3    H139715   4.754   5.722   0.890  1.4584  0.1645 -1.2329
 6100TIP3    H239716   4.839   5.663   1.001  0.8304 -1.0284 -1.3693
 6101TIP3   OH239717   5.131   4.282   4.814  0.7458  0.2889 -0.2229
 6101TIP3    H139718   5.100   4.325   4.734 -1.1782  1.6543  1.1539
 6101TIP3    H239719   5.055   4.236   4.848  1.8349 -1.2395  0.2836
 6102TIP3   OH239720   2.483   3.220   5.698 -0.4585 -0.4023 -0.0858
 6102TIP3    H139721   2.402   3.222   5.646  0.2462  0.2631 -1.1952
 6102TIP3    H239722   2.487   3.130   5.731 -1.6473 -0.4496 -0.0070
 6103TIP3   OH239723   2.019   1.069  11.594  0.2223 -0.0181  0.5588
 6103TIP3    H139724   1.965   0.990  11.585 -0.4042  0.3457  1.0928
 6103TIP3    H239725   1.971   1.124  11.656  0.4769  0.9366 -0.0799
 6104TIP3   OH239726   4.759   4.607  14.235  0.1395 -0.3289  0.6823
 6104TIP3    H139727   4.700   4.543  14.274 -1.8578  1.7208  1.2957
 6104TIP3    H239728   4.748   4.686  14.289  1.9776  0.7507 -0.4009
 6105TIP3   OH239729   1.152   5.157   0.358  0.0328  0.2498 -0.1756
 6105TIP3    H139730   1.064   5.121   0.351  0.1955 -0.1237 -0.3554
 6105TIP3    H239731   1.140   5.248   0.385 -0.3974  0.1479 -0.0357
 6106TIP3   OH239732   3.834   2.561  11.697 -0.7672 -0.3903  0.2349
 6106TIP3    H139733   3.840   2.623  11.625 -1.2769 -1.6063 -0.8908
 6106TIP3    H239734   3.745   2.570  11.730 -0.2732  0.7986  1.3459
 6107TIP3   OH239735   0.800   5.367  15.502  0.1537  0.4559  0.1832
 6107TIP3    H139736   0.834   5.311  15.432 -0.2260  0.7766 -0.2601
 6107TIP3    H239737   0.876   5.420  15.528 -0.2223  1.9583 -1.5680
 6108TIP3   OH239738   5.142   5.164   3.895 -0.5051  0.1054  0.9213
 6108TIP3    H139739   5.141   5.130   3.984 -0.8436  0.0587  0.8988
 6108TIP3    H239740   5.170   5.255   3.904 -0.7645  0.1670  1.0980
 6109TIP3   OH239741   2.019   3.885  16.950 -0.0213  0.3055 -0.0172
 6109TIP3    H139742   1.932   3.926  16.952  0.2554  0.9295 -0.4306
 6109TIP3    H239743   2.068   3.937  16.887  0.9557  0.5807  0.9451
 6110TIP3   OH239744   3.980   1.018  15.966 -0.4828 -0.8612  0.0194
 6110TIP3    H139745   3.941   1.091  15.918 -2.0625 -1.4941  0.2901
 6110TIP3    H239746   3.979   1.046  16.058  0.6765 -0.4734 -0.0687
 6111TIP3   OH239747   2.858   5.925  12.207 -0.3712  0.2385 -0.1732
 6111TIP3    H139748   2.865   5.872  12.286 -0.7648  0.8814  0.2941
 6111TIP3    H239749   2.770   5.909  12.174 -0.9174  1.4851  0.6151
 6112TIP3   OH239750   2.054   3.723   1.833  0.2391  0.2172  0.1330
 6112TIP3    H139751   2.096   3.795   1.881  0.1346  0.4263 -0.0883
 6112TIP3    H239752   1.987   3.765   1.780 -0.9263 -0.2255  1.2301
 6113TIP3   OH239753   4.183   5.552   4.129 -0.4028  0.1584  0.5035
 6113TIP3    H139754   4.204   5.565   4.036 -0.3088 -1.5436  0.2519
 6113TIP3    H239755   4.267   5.559   4.174 -0.1807 -0.6879  0.2374
 6114TIP3   OH239756   4.431   3.538  12.247  0.4580  0.0374  0.0046
 6114TIP3    H139757   4.473   3.479  12.184  1.1290  0.7565 -0.2239
 6114TIP3    H239758   4.363   3.484  12.287  1.3995 -1.0611  0.1767
 6115TIP3   OH239759   2.149   3.778   4.594 -0.0153  0.6176  0.4699
 6115TIP3    H139760   2.089   3.811   4.527 -0.0156 -0.3186 -0.0145
 6115TIP3    H239761   2.096   3.772   4.673 -0.8611 -1.1293 -0.1838
 6116TIP3   OH239762   2.701   2.576   5.244  0.0866 -0.2771 -0.3042
 6116TIP3    H139763   2.648   2.524   5.183  0.0740 -1.2850  0.5236
 6116TIP3    H239764   2.665   2.664   5.239 -2.1127 -1.0466  0.6928
 6117TIP3   OH239765   0.047   1.661   3.365  1.1568 -0.1461  0.4578
 6117TIP3    H139766   0.067   1.624   3.451  0.9087 -0.9342  0.1856
 6117TIP3    H239767   0.120   1.719   3.346 -0.4433  2.8746  2.7610
 6118TIP3   OH239768   2.325   3.132  16.464  0.1968 -0.7926  0.6185
 6118TIP3    H139769   2.419   3.153  16.468  0.1335  0.2414 -1.6448
 6118TIP3    H239770   2.283   3.203  16.513  0.1700  3.8263 -4.9985
 6119TIP3   OH239771   4.312   1.733  14.759 -0.1433  0.4666 -0.0986
 6119TIP3    H139772   4.224   1.728  14.723  0.3031  1.4656 -1.4072
 6119TIP3    H239773   4.307   1.683  14.841 -2.0087  0.8621  0.0752
 6120TIP3   OH239774   0.527   0.606   4.245  0.1035 -0.4417 -0.2884
 6120TIP3    H139775   0.437   0.585   4.269  0.2534  0.4817  1.2306
 6120TIP3    H239776   0.580   0.565   4.313  0.6284  1.2507  0.3859
 6121TIP3   OH239777   5.555   4.626  12.689  0.0039  0.3485  0.2996
 6121TIP3    H139778   5.642   4.613  12.727  0.1249  0.7779  0.1788
 6121TIP3    H239779   5.517   4.538  12.684  0.5051  0.1378  0.1706
 6122TIP3   OH239780   3.408   2.858   0.144 -0.1063 -0.6077 -0.8638
 6122TIP3    H139781   3.449   2.794   0.201  0.2476 -0.2715 -0.7338
 6122TIP3    H239782   3.319   2.826   0.132 -0.7423  0.2113  1.2695
 6123TIP3   OH239783   6.016   2.923   3.910  0.1831  0.2718 -0.2171
 6123TIP3    H139784   5.997   2.975   3.989 -1.8972 -0.2617 -0.3057
 6123TIP3    H239785   6.111   2.921   3.905  0.3414  2.6292  0.7421
 6124TIP3   OH239786   1.722   1.560   6.232  0.2138  0.3153  0.6845
 6124TIP3    H139787   1.811   1.543   6.262  1.0746  0.6027 -1.5406
 6124TIP3    H239788   1.671   1.484   6.263  1.4734 -0.4280  0.9902
 6125TIP3   OH239789   3.711   4.334  17.062  0.0065  0.2533 -0.3345
 6125TIP3    H139790   3.644   4.376  17.007 -0.2292  0.4644  0.1138
 6125TIP3    H239791   3.668   4.257  17.098  0.1034  0.2208 -0.2887
 6126TIP3   OH239792   1.558   4.955  10.979 -0.3432  0.1779  0.2593
 6126TIP3    H139793   1.612   5.004  10.916 -2.2092  0.9588 -0.8063
 6126TIP3    H239794   1.545   4.869  10.938 -0.0511  0.0422  0.4467
 6127TIP3   OH239795   1.074   6.059  16.767 -0.5728  0.0278 -0.4863
 6127TIP3    H139796   1.128   6.133  16.738 -0.8554  0.0366 -0.9943
 6127TIP3    H239797   1.109   6.037  16.853 -0.1930  0.4665 -0.5222
 6128TIP3   OH239798   2.806   2.851  11.259 -0.5032  0.0786  0.1776
 6128TIP3    H139799   2.745   2.902  11.313 -0.1075 -0.9821  1.6903
 6128TIP3    H239800   2.823   2.772  11.310  2.5802  0.5658  0.1133
 6129TIP3   OH239801   1.644   6.260  10.913  0.5579  0.1588  0.1903
 6129TIP3    H139802   1.650   6.243  10.818  0.6587 -0.6687  0.3356
 6129TIP3    H239803   1.718   6.316  10.932  0.1623  0.8772 -0.3351
 6130TIP3   OH239804   4.032   2.731   4.582  0.6104  0.2330  0.6963
 6130TIP3    H139805   4.052   2.692   4.667 -0.2209  0.8659  1.2020
 6130TIP3    H239806   3.990   2.814   4.603 -2.1376 -0.7960 -0.2321
 6131TIP3   OH239807   5.618   1.064  11.699  0.3610  0.7316  0.7752
 6131TIP3    H139808   5.586   0.981  11.664 -1.8240  1.0984  1.7563
 6131TIP3    H239809   5.710   1.047  11.721 -0.0608 -1.4442  1.0396
 6132TIP3   OH239810   6.163   1.309  14.608  0.5190  0.2151  0.6346
 6132TIP3    H139811   6.090   1.254  14.580 -0.1841  1.7167 -0.6638
 6132TIP3    H239812   6.213   1.254  14.668 -0.4259 -1.6302 -0.1834
 6133TIP3   OH239813   2.835   0.497   2.413 -0.3259 -0.0431  0.0531
 6133TIP3    H139814   2.877   0.573   2.374 -1.2702  0.4861  0.0378
 6133TIP3    H239815   2.819   0.522   2.504 -0.4971 -0.2763  0.0897
 6134TIP3   OH239816   5.957   4.078  12.907  0.5772  0.1011  0.3579
 6134TIP3    H139817   6.006   4.145  12.859 -0.4747  0.2553 -0.5214
 6134TIP3    H239818   6.025   4.029  12.954  1.6178  0.2070 -0.9543
 6135TIP3   OH239819   5.678   5.334  12.896 -0.1904 -0.2632 -0.2459
 6135TIP3    H139820   5.642   5.410  12.941  1.4018  0.5921 -0.3260
 6135TIP3    H239821   5.703   5.367  12.809  1.3293 -0.6193  0.0288
 6136TIP3   OH239822   1.510   3.415   4.906  0.2535 -0.3049 -0.2889
 6136TIP3    H139823   1.493   3.454   4.991  0.9641 -0.3108 -0.1366
 6136TIP3    H239824   1.458   3.467   4.844 -1.9545 -1.5949  0.3743
 6137TIP3   OH239825   3.090   1.762   4.222  0.3161  0.2504 -0.0452
 6137TIP3    H139826   3.029   1.735   4.291  1.0471  0.8601  0.8775
 6137TIP3    H239827   3.171   1.714   4.243  0.3009 -0.2053 -0.9848
 6138TIP3   OH239828   3.086   3.699  11.226  0.0896 -0.3153 -0.3533
 6138TIP3    H139829   3.037   3.717  11.306 -0.7488 -0.1540 -0.8966
 6138TIP3    H239830   3.031   3.732  11.156 -0.2890 -2.5409 -1.1900
 6139TIP3   OH239831   6.665   2.501  15.046  0.2279  0.0365  0.3179
 6139TIP3    H139832   6.605   2.428  15.029 -1.5397  1.3938  0.4623
 6139TIP3    H239833   6.616   2.579  15.020  1.1621  1.3848  2.3685
 6140TIP3   OH239834   0.995   3.567  16.673 -0.3898 -0.2253 -0.4250
 6140TIP3    H139835   1.011   3.476  16.700 -1.9423 -0.2739  0.4489
 6140TIP3    H239836   0.910   3.563  16.629 -0.4620  0.8176 -0.3887
 6141TIP3   OH239837   5.820   0.432  11.979 -0.1769 -0.6090 -0.0740
 6141TIP3    H139838   5.791   0.399  11.894  1.1991  0.8757 -1.1714
 6141TIP3    H239839   5.914   0.414  11.981 -0.0078  0.3026  0.6751
 6142TIP3   OH239840   2.506   5.575  11.853 -0.1124  0.1714 -0.2554
 6142TIP3    H139841   2.541   5.486  11.849 -0.8704 -0.1466 -0.0563
 6142TIP3    H239842   2.583   5.631  11.861  0.4878 -0.3172 -2.2209
 6143TIP3   OH239843   0.357   3.206  11.034 -0.1827 -0.0355  0.0713
 6143TIP3    H139844   0.314   3.173  11.113 -0.7622  2.1658  0.7548
 6143TIP3    H239845   0.431   3.257  11.067  0.3982 -0.2333 -0.8948
 6144TIP3   OH239846   5.249   6.668  12.443 -0.0816  0.6014  0.3639
 6144TIP3    H139847   5.253   6.580  12.479  0.1226  1.6675  3.2173
 6144TIP3    H239848   5.158   6.680  12.418 -0.6197  0.2748  2.0207
 6145TIP3   OH239849   2.188   6.692  15.050  0.2712 -0.1068 -0.0590
 6145TIP3    H139850   2.148   6.718  14.967 -0.0418 -0.0653  0.1057
 6145TIP3    H239851   2.125   6.720  15.117  0.5967  0.0087  0.2018
 6146TIP3   OH239852   3.712   5.556   3.685 -0.1350 -0.0328  0.6681
 6146TIP3    H139853   3.690   5.496   3.613 -1.0037 -0.4232  1.2258
 6146TIP3    H239854   3.800   5.587   3.665 -0.0957 -0.6594 -0.2059
 6147TIP3   OH239855   1.833   6.089  13.699  0.1545  0.0953  0.1449
 6147TIP3    H139856   1.791   6.028  13.638 -1.0053 -0.9478  1.8869
 6147TIP3    H239857   1.926   6.068  13.694 -0.0815 -0.9425 -0.2287
 6148TIP3   OH239858   3.401   0.073   4.691  0.0904  0.1722  0.3633
 6148TIP3    H139859   3.430   0.165   4.694 -1.9443  0.8540  1.1535
 6148TIP3    H239860   3.332   0.068   4.756  0.8657 -2.2380  1.1045
 6149TIP3   OH239861   1.132   2.266   5.972  0.3660  0.3176  0.5660
 6149TIP3    H139862   1.174   2.181   5.985  1.3269  1.1468  3.9440
 6149TIP3    H239863   1.039   2.247   5.977  0.4946 -0.7310 -0.5305
 6150TIP3   OH239864   6.429   5.997   1.421 -0.0591  0.3251  0.0902
 6150TIP3    H139865   6.358   6.061   1.410  0.1193  0.3200 -1.2390
 6150TIP3    H239866   6.503   6.036   1.375  0.0509 -0.8233 -0.7384
 6151TIP3   OH239867   6.457   4.953  14.282 -0.1765 -0.1147 -0.4476
 6151TIP3    H139868   6.415   5.025  14.235 -0.4673 -0.2208 -0.3518
 6151TIP3    H239869   6.417   4.874  14.246  0.9755 -0.3072 -1.4016
 6152TIP3   OH239870   0.192   4.838  13.429 -0.7740  0.1474 -0.2406
 6152TIP3    H139871   0.096   4.830  13.427 -0.8824 -1.9847  3.3315
 6152TIP3    H239872   0.211   4.916  13.377 -4.5682  1.3352 -0.1620
 6153TIP3   OH239873   6.124   3.364  10.878  0.1601 -0.3267 -0.2853
 6153TIP3    H139874   6.117   3.307  10.801 -0.6861 -0.4895 -0.1039
 6153TIP3    H239875   6.162   3.445  10.845  1.7928 -1.1334 -0.4700
 6154TIP3   OH239876   1.181   5.027   3.260 -0.2243 -0.2285  0.6028
 6154TIP3    H139877   1.198   5.115   3.295  0.0719 -0.0560  0.0430
 6154TIP3    H239878   1.266   4.982   3.267 -0.3928 -0.5023  0.9594
 6155TIP3   OH239879   2.325   5.137   3.665 -0.3126  0.3038  0.0401
 6155TIP3    H139880   2.408   5.091   3.681 -1.3336 -1.0906  1.6942
 6155TIP3    H239881   2.325   5.154   3.571  1.6368 -0.0815 -0.0697
 6156TIP3   OH239882   4.263   4.597   2.332 -0.3179 -0.3541 -0.1382
 6156TIP3    H139883   4.258   4.669   2.268  1.0825  0.9143  1.1070
 6156TIP3    H239884   4.196   4.618   2.397  0.4570  0.1630  0.5162
 6157TIP3   OH239885   2.551   2.513  12.716 -0.3046  0.0593 -0.4206
 6157TIP3    H139886   2.517   2.509  12.805 -1.9572 -0.8485 -1.0557
 6157TIP3    H239887   2.646   2.520  12.727 -0.4113 -0.7851  1.3943
 6158TIP3   OH239888   1.482   1.071   2.719  0.4340  0.0858 -0.4208
 6158TIP3    H139889   1.495   1.106   2.631  0.7579  1.3634  0.1230
 6158TIP3    H239890   1.564   1.090   2.765  1.2305 -2.7127 -0.4939
 6159TIP3   OH239891   6.558   1.351   1.219 -0.2681 -0.0452  0.0496
 6159TIP3    H139892   6.607   1.388   1.146 -1.3751  0.4150 -0.4792
 6159TIP3    H239893   6.552   1.422   1.282 -2.1634  0.6477 -0.8516
 6160TIP3   OH239894   2.525   1.358  13.289 -0.3616  0.1024  0.0544
 6160TIP3    H139895   2.533   1.389  13.380 -0.1155 -2.2109  0.8818
 6160TIP3    H239896   2.445   1.306  13.289 -0.0123 -0.4409 -0.9049
 6161TIP3   OH239897   2.474   3.789   3.325  0.1893  0.3440  0.4244
 6161TIP3    H139898   2.404   3.748   3.376  0.4386 -0.7631 -0.1044
 6161TIP3    H239899   2.550   3.733   3.337  0.0262 -0.4858 -1.8597
 6162TIP3   OH239900   0.418   5.357  17.164  0.0779  0.3187  0.2007
 6162TIP3    H139901   0.464   5.277  17.186  0.8057  0.2646 -1.4294
 6162TIP3    H239902   0.412   5.405  17.247 -0.0408 -1.2204  1.1180
 6163TIP3   OH239903   4.031   5.489  11.238  0.5515  0.3537  0.0239
 6163TIP3    H139904   4.048   5.428  11.167  2.8678  2.0331 -0.9765
 6163TIP3    H239905   3.960   5.544  11.206  1.7280  1.2382 -1.1262
 6164TIP3   OH239906   1.499   6.128  15.494 -0.0229  0.2448 -0.3516
 6164TIP3    H139907   1.511   6.221  15.477 -2.1013  0.7741  0.7404
 6164TIP3    H239908   1.404   6.115  15.495  0.1877 -1.6664  0.5883
 6165TIP3   OH239909   2.987   5.961  13.653  0.1579  0.2687 -0.0239
 6165TIP3    H139910   2.945   5.904  13.589  0.9213  0.6002 -0.8399
 6165TIP3    H239911   2.924   6.031  13.668  0.4502  0.8425 -1.3494
 6166TIP3   OH239912   4.130   0.236   5.367  0.2168  0.4495 -0.0433
 6166TIP3    H139913   4.145   0.208   5.458  0.7936 -0.4101 -0.3930
 6166TIP3    H239914   4.201   0.296   5.349  0.3664  0.2659 -0.0705
 6167TIP3   OH239915   4.515   4.031   4.368 -0.8634  0.5118  0.1337
 6167TIP3    H139916   4.563   3.968   4.421  0.3910  0.3546 -1.1465
 6167TIP3    H239917   4.423   4.014   4.389 -0.6035 -2.0920 -0.5243
 6168TIP3   OH239918   6.125   5.961   6.672  0.1179 -0.1553 -0.0792
 6168TIP3    H139919   6.104   5.895   6.606 -0.1068 -1.4143  1.1977
 6168TIP3    H239920   6.041   5.978   6.716  0.6745 -1.0823  1.4016
 6169TIP3   OH239921   0.106   1.252   0.776  0.8078 -0.4174 -0.1082
 6169TIP3    H139922   0.119   1.313   0.849  3.1170  1.3017 -1.7952
 6169TIP3    H239923   0.100   1.166   0.818  0.1099  0.6702  2.1918
 6170TIP3   OH239924   5.089   3.368  17.131  0.4927 -0.7562 -0.2840
 6170TIP3    H139925   5.139   3.448  17.116  0.9469 -1.1018 -0.6303
 6170TIP3    H239926   5.095   3.353  17.226 -0.9817  0.5121  0.0427
 6171TIP3   OH239927   3.778   6.235  15.940 -0.5156 -0.0517 -0.3281
 6171TIP3    H139928   3.683   6.248  15.936 -0.6677 -1.1031 -0.3491
 6171TIP3    H239929   3.803   6.215  15.850 -0.5957 -1.8030  0.0136
 6172TIP3   OH239930   5.415   3.591  16.371 -0.7891 -0.0452  0.5341
 6172TIP3    H139931   5.380   3.504  16.390 -0.2207 -0.1126  1.3258
 6172TIP3    H239932   5.352   3.630  16.311 -1.4442 -0.7150  0.7783
 6173TIP3   OH239933   4.880   5.731   1.265  0.6399 -0.1776  0.0892
 6173TIP3    H139934   4.799   5.700   1.306  1.1955 -0.5688  0.8982
 6173TIP3    H239935   4.858   5.819   1.233 -0.4384 -0.7159 -0.7056
 6174TIP3   OH239936   5.668   5.307   5.315  0.1247 -0.4281 -0.5135
 6174TIP3    H139937   5.758   5.321   5.284 -0.1965  1.7864 -0.6104
 6174TIP3    H239938   5.674   5.318   5.410 -0.2479  1.3750 -0.6544
 6175TIP3   OH239939   2.346   5.008   2.163 -0.0957 -0.3102  0.1701
 6175TIP3    H139940   2.347   4.922   2.121 -0.3333 -0.3884  0.3199
 6175TIP3    H239941   2.427   5.012   2.214 -1.1040 -1.3671  1.9847
 6176TIP3   OH239942   0.820   5.750   5.091  0.5779  0.4067  0.2046
 6176TIP3    H139943   0.901   5.738   5.141  0.6186  0.1866  0.0835
 6176TIP3    H239944   0.785   5.662   5.080  1.0872  0.3467 -1.0286
 6177TIP3   OH239945   6.705   5.649   3.944  0.1953 -0.2381 -0.0798
 6177TIP3    H139946   6.659   5.719   3.897  1.7596 -0.2577 -1.7479
 6177TIP3    H239947   6.704   5.678   4.036 -1.8186  0.4464 -0.2508
 6178TIP3   OH239948   1.051   6.763  16.551  0.0798  0.7757  0.5649
 6178TIP3    H139949   1.044   6.744  16.645 -0.1318  0.1025  0.4217
 6178TIP3    H239950   0.966   6.737  16.516 -0.1158  1.7475  0.3025
 6179TIP3   OH239951   0.511   3.530  10.369  0.1964 -0.4749 -0.0017
 6179TIP3    H139952   0.512   3.434  10.364 -2.6442 -0.5792 -0.0189
 6179TIP3    H239953   0.457   3.558  10.295  1.6244  1.2289 -0.4681
 6180TIP3   OH239954   5.086   2.506  10.693  0.2277  0.3128 -0.3374
 6180TIP3    H139955   5.046   2.591  10.676 -0.8955 -0.2150 -0.4563
 6180TIP3    H239956   5.154   2.498  10.627  0.5770  1.2605 -0.1059
 6181TIP3   OH239957   6.303   4.170  11.556 -0.4648 -0.0547 -0.6141
 6181TIP3    H139958   6.297   4.074  11.561 -0.3981 -0.1322 -1.8083
 6181TIP3    H239959   6.212   4.199  11.557 -0.5035  0.0628  2.1632
 6182TIP3   OH239960   1.815   0.104   6.698 -0.3139 -0.2643 -0.2341
 6182TIP3    H139961   1.846   0.013   6.697  1.8909  0.3599  1.5692
 6182TIP3    H239962   1.737   0.102   6.754  0.0927 -0.9584  0.3264
 6183TIP3   OH239963   4.180   5.265   4.703 -0.1373  0.5625 -0.3725
 6183TIP3    H139964   4.089   5.236   4.702 -0.3020  0.8745 -3.0155
 6183TIP3    H239965   4.192   5.305   4.788 -2.2022 -0.2863  0.3763
 6184TIP3   OH239966   4.294   3.936  14.325  0.6852 -0.0217  0.0703
 6184TIP3    H139967   4.259   3.869  14.266 -1.9149 -0.3542  1.8373
 6184TIP3    H239968   4.344   3.995  14.268  0.8078 -1.9492 -1.9350
 6185TIP3   OH239969   1.034   0.810  12.763 -0.5641  0.9119  0.9119
 6185TIP3    H139970   0.962   0.752  12.788  1.6863 -2.1770  0.6937
 6185TIP3    H239971   1.106   0.785  12.820  1.4660  1.2644 -1.3614
 6186TIP3   OH239972   5.682   0.683   2.646  0.0084  0.4663 -0.0970
 6186TIP3    H139973   5.600   0.634   2.639  0.0875 -0.2425  2.6234
 6186TIP3    H239974   5.654   0.775   2.648 -0.9046  0.1973  1.8545
 6187TIP3   OH239975   1.598   5.826  12.792  0.1769 -0.1878  0.3791
 6187TIP3    H139976   1.581   5.920  12.787 -0.2848 -0.2658  0.3637
 6187TIP3    H239977   1.612   5.799  12.701  3.1010  0.3285  0.5848
 6188TIP3   OH239978   2.202   1.644   2.479  0.2674  0.3520  0.1292
 6188TIP3    H139979   2.141   1.674   2.412  0.7222  1.8595  0.3696
 6188TIP3    H239980   2.148   1.590   2.537 -0.4335  0.1719 -0.6655
 6189TIP3   OH239981   1.772   4.188   4.560 -0.3532  0.0376 -0.2399
 6189TIP3    H139982   1.865   4.206   4.544  0.2873 -1.1401  1.7555
 6189TIP3    H239983   1.766   4.178   4.655 -2.8383  1.5640 -0.1730
 6190TIP3   OH239984   0.080   4.438  10.995 -0.1502 -0.2657 -0.1420
 6190TIP3    H139985   0.006   4.447  10.935  0.2327 -0.8329 -0.7114
 6190TIP3    H239986   0.157   4.435  10.939  0.1733 -1.3738  0.3247
 6191TIP3   OH239987   2.786   4.666   0.966 -0.5562  0.1351 -0.0731
 6191TIP3    H139988   2.712   4.725   0.983  0.4107  1.4037 -0.1601
 6191TIP3    H239989   2.756   4.612   0.893 -2.2563 -0.9486  1.3371
 6192TIP3   OH239990   0.155   1.241   1.787  0.3014 -0.3849  0.2834
 6192TIP3    H139991   0.112   1.280   1.863  0.4303 -1.2318  0.7981
 6192TIP3    H239992   0.237   1.206   1.821  2.5965  3.1367 -1.0443
 6193TIP3   OH239993   6.705   3.260   3.801  0.0949  0.6042  0.0412
 6193TIP3    H139994   6.738   3.350   3.804 -0.9026  0.9524  1.0498
 6193TIP3    H239995   6.712   3.235   3.709  0.2581  1.7603 -0.2740
 6194TIP3   OH239996   4.118   5.915  15.738  0.1336 -0.0849 -0.2401
 6194TIP3    H139997   4.160   5.835  15.770 -0.9096 -0.7863 -0.5816
 6194TIP3    H239998   4.191   5.974  15.718  0.8946 -0.7405  0.5479
 6195TIP3   OH239999   5.623   1.746   6.346 -0.0427 -0.3196  0.4543
 6195TIP3    H140000   5.662   1.680   6.289 -0.2318  0.2288 -0.3273
 6195TIP3    H240001   5.530   1.745   6.324 -0.1760 -0.3645  1.0216
 6196TIP3   OH240002   6.204   6.623   2.919 -0.1563 -0.2511 -0.2630
 6196TIP3    H140003   6.153   6.561   2.866  0.6408 -0.6003 -0.6309
 6196TIP3    H240004   6.291   6.623   2.879 -0.0946  0.9905 -0.1668
 6197TIP3   OH240005   5.806   2.560   5.486  0.2731 -0.1257  0.3569
 6197TIP3    H140006   5.812   2.575   5.391  0.5722  0.4261  0.4585
 6197TIP3    H240007   5.771   2.642   5.521 -0.2150 -0.4722  0.6810
 6198TIP3   OH240008   2.981   3.874   0.489 -0.4219  0.0864 -0.3982
 6198TIP3    H140009   3.032   3.822   0.427 -0.8522 -2.1552  1.0350
 6198TIP3    H240010   2.893   3.874   0.453 -0.3954 -0.0445 -0.4629
 6199TIP3   OH240011   6.550   0.806   5.415 -0.3831  0.3529 -0.0598
 6199TIP3    H140012   6.632   0.855   5.425 -0.3089  0.1637  0.2746
 6199TIP3    H240013   6.503   0.822   5.497  0.8547 -2.3959  1.3093
 6200TIP3   OH240014   4.267   2.142  11.911  0.5512  0.4099 -0.0547
 6200TIP3    H140015   4.236   2.232  11.908 -1.1122 -0.0523  1.5757
 6200TIP3    H240016   4.187   2.089  11.913  1.4694 -1.0099  0.7659
 6201TIP3   OH240017   0.709   4.692  11.441  0.1500 -0.0864  0.4252
 6201TIP3    H140018   0.720   4.779  11.478 -0.8429  0.3320 -0.2343
 6201TIP3    H240019   0.634   4.655  11.487 -1.3101  0.5637 -1.3112
 6202TIP3   OH240020   5.224   5.122   3.451  0.4472 -0.2996 -0.1282
 6202TIP3    H140021   5.288   5.054   3.470  0.8408 -0.6031 -2.3509
 6202TIP3    H240022   5.221   5.127   3.356 -2.8108 -0.2533 -0.1388
 6203TIP3   OH240023   3.408   6.414   4.881 -0.2716  0.5811 -0.0414
 6203TIP3    H140024   3.340   6.469   4.921 -0.2434  1.2133 -0.8329
 6203TIP3    H240025   3.466   6.477   4.837  0.9362  0.0665  0.7729
 6204TIP3   OH240026   6.137   5.700  16.142 -0.3668 -0.2949  0.0366
 6204TIP3    H140027   6.223   5.734  16.167 -0.4802  0.4949 -0.5942
 6204TIP3    H240028   6.149   5.667  16.053 -1.6548  3.9219 -1.9649
 6205TIP3   OH240029   4.737   0.669  16.553  0.1918  0.3737  0.5684
 6205TIP3    H140030   4.748   0.631  16.466 -0.8551 -2.0790  1.4402
 6205TIP3    H240031   4.674   0.741  16.539  0.3466  0.2857 -0.7441
 6206TIP3   OH240032   4.998   3.048   2.309  0.2799  1.1293 -0.1137
 6206TIP3    H140033   5.050   2.969   2.322  1.3705  1.8264 -0.0531
 6206TIP3    H240034   5.002   3.064   2.215  0.4691  1.3644 -0.0684
 6207TIP3   OH240035   5.696   3.053  14.812  0.6729 -0.6306 -0.2738
 6207TIP3    H140036   5.683   2.977  14.755  1.8776 -0.7710 -0.3973
 6207TIP3    H240037   5.791   3.066  14.812  0.9453 -1.6562  2.9708
 6208TIP3   OH240038   4.951   4.015   6.529  0.2580 -0.3767  0.0818
 6208TIP3    H140039   4.930   3.946   6.591 -0.4598 -1.4554 -1.2976
 6208TIP3    H240040   4.874   4.072   6.530  0.7133  0.2486  0.9751
 6209TIP3   OH240041   2.605   2.273  13.060  0.4014 -0.1303  0.2451
 6209TIP3    H140042   2.544   2.346  13.067 -0.0548 -0.5350  0.5413
 6209TIP3    H240043   2.660   2.295  12.984  0.0423  0.3471  0.1196
 6210TIP3   OH240044   5.034   2.636  17.115 -0.0751 -0.3747  0.2911
 6210TIP3    H140045   5.129   2.647  17.115 -0.1613  0.5456 -1.4156
 6210TIP3    H240046   5.013   2.606  17.027 -1.2981 -1.3776  0.8931
 6211TIP3   OH240047   5.419   1.517   4.281 -0.4293 -0.4120 -0.4968
 6211TIP3    H140048   5.397   1.596   4.330  0.0577 -1.0124  0.7308
 6211TIP3    H240049   5.515   1.511   4.286 -0.5793 -2.4450  1.6962
 6212TIP3   OH240050   0.616   4.578  12.051 -0.7886 -0.0760 -0.0353
 6212TIP3    H140051   0.629   4.643  11.982 -0.2743  0.2416  0.3613
 6212TIP3    H240052   0.689   4.517  12.040 -2.0055 -1.3939 -1.2818
 6213TIP3   OH240053   6.387   3.581  11.405  0.1055 -0.2857  0.1169
 6213TIP3    H140054   6.406   3.495  11.367  0.2298  0.2749 -1.1479
 6213TIP3    H240055   6.345   3.630  11.334  2.1943  1.5078  0.0203
 6214TIP3   OH240056   5.399   5.381  15.557  0.0968 -0.1599  0.0296
 6214TIP3    H140057   5.484   5.426  15.563  0.2942 -0.6838  3.3449
 6214TIP3    H240058   5.421   5.288  15.555 -0.3802 -0.2791  0.1869
 6215TIP3   OH240059   3.186   1.253  14.795  0.1214  0.0419  0.1216
 6215TIP3    H140060   3.259   1.196  14.820 -0.8851 -0.9775  0.8328
 6215TIP3    H240061   3.117   1.193  14.767 -0.2642  1.0102 -1.0977
 6216TIP3   OH240062   4.875   1.783  11.227  0.2292 -0.5728 -0.2658
 6216TIP3    H140063   4.861   1.752  11.316 -1.6810  2.7164  0.7692
 6216TIP3    H240064   4.969   1.796  11.220  0.2497  1.3936  2.2607
 6217TIP3   OH240065   5.420   6.750   3.493  0.0342 -0.3048  0.2062
 6217TIP3    H140066   5.476   6.801   3.552 -1.6614  0.9367  0.8583
 6217TIP3    H240067   5.454   6.768   3.405  1.2146 -0.3611  0.6366
 6218TIP3   OH240068   1.800   3.673  13.612 -0.1326  0.2335 -0.5028
 6218TIP3    H140069   1.769   3.671  13.702 -1.5414 -0.1482 -0.9738
 6218TIP3    H240070   1.806   3.581  13.586  1.7722  0.2689 -0.3335
 6219TIP3   OH240071   3.236   2.402  13.754  0.1238  0.0873 -0.3793
 6219TIP3    H140072   3.274   2.484  13.723  0.3320 -0.6477 -2.1722
 6219TIP3    H240073   3.142   2.418  13.754  0.0777 -0.0070 -1.8848
 6220TIP3   OH240074   4.628   1.629  13.892  0.0270  0.7595 -0.1844
 6220TIP3    H140075   4.681   1.591  13.962  1.2795  1.6623 -0.6213
 6220TIP3    H240076   4.573   1.557  13.863  0.3421  0.0464  0.9069
 6221TIP3   OH240077   5.713   6.560  15.176 -0.1897 -0.0889 -0.0465
 6221TIP3    H140078   5.701   6.529  15.086  1.2978  0.3391 -0.4213
 6221TIP3    H240079   5.779   6.502  15.213  0.2533  0.6298  0.2999
 6222TIP3   OH240080   5.164   1.006   3.411  0.6141 -0.1030  0.0137
 6222TIP3    H140081   5.233   0.941   3.419  1.2483  0.3553 -1.4263
 6222TIP3    H240082   5.165   1.052   3.495  0.5418 -1.5437  0.8340
 6223TIP3   OH240083   3.344   0.031  15.793  0.3658 -0.2963  0.6548
 6223TIP3    H140084   3.263  -0.020  15.783  1.2326 -1.7899  1.0205
 6223TIP3    H240085   3.338   0.098  15.725 -1.2617 -0.2493  0.7936
 6224TIP3   OH240086   4.421   1.626   4.270  0.3865  0.2288  0.2683
 6224TIP3    H140087   4.361   1.699   4.287 -0.0538 -0.2451  0.7851
 6224TIP3    H240088   4.432   1.584   4.355  0.2065 -0.6415 -0.1338
 6225TIP3   OH240089   6.007   4.989   2.719  0.7063  0.2518  0.4049
 6225TIP3    H140090   5.994   5.055   2.787 -0.1646  0.2157  0.2815
 6225TIP3    H240091   5.959   4.912   2.750  0.1852  0.2761 -0.3068
 6226TIP3   OH240092   6.060   0.940   0.209 -0.1921 -0.0058  0.3816
 6226TIP3    H140093   5.984   0.897   0.249 -2.3368  3.1071  0.0461
 6226TIP3    H240094   6.048   0.928   0.115 -0.9188  1.2935  0.2713
 6227TIP3   OH240095   2.672   3.877   5.306 -0.5049 -0.0052  0.0448
 6227TIP3    H140096   2.758   3.854   5.341 -0.8865  0.6854  1.5020
 6227TIP3    H240097   2.616   3.887   5.383 -1.8070 -0.0353 -0.8477
 6228TIP3   OH240098   0.026   0.725  13.058 -0.4094 -0.3572 -0.7341
 6228TIP3    H140099   0.111   0.764  13.036 -0.0252 -0.7650 -0.0285
 6228TIP3    H240100  -0.008   0.781  13.127 -0.4005 -0.5774 -0.5492
 6229TIP3   OH240101   0.438   2.022  11.816 -0.5142 -0.3124  0.2158
 6229TIP3    H140102   0.467   2.069  11.738  1.1662 -1.0190  0.3795
 6229TIP3    H240103   0.345   2.043  11.823 -0.0414  2.2965 -0.1898
 6230TIP3   OH240104   6.518   0.403   2.982 -0.5368 -0.7032  0.3349
 6230TIP3    H140105   6.466   0.442   2.912 -1.0024 -1.0939  0.4564
 6230TIP3    H240106   6.590   0.359   2.937 -0.1074  0.1332  0.1878
 6231TIP3   OH240107   3.878   1.077   0.859  0.1224  0.8048 -0.2809
 6231TIP3    H140108   3.806   1.129   0.825  0.0872  1.0640  0.1776
 6231TIP3    H240109   3.844   0.987   0.861  0.2888  0.7140 -1.3521
 6232TIP3   OH240110   3.438   0.858   2.008 -0.2651 -0.3757  0.0357
 6232TIP3    H140111   3.403   0.782   1.962  0.7354 -0.5628 -0.4482
 6232TIP3    H240112   3.361   0.912   2.027 -0.7779 -0.5690 -1.3331
 6233TIP3   OH240113   6.753   0.755  16.094  0.4709 -0.0916 -0.0333
 6233TIP3    H140114   6.684   0.795  16.042  0.9790  2.4271  1.0425
 6233TIP3    H240115   6.814   0.718  16.030  0.0465  1.0649 -1.1474
 6234TIP3   OH240116   4.831   5.252  13.179  0.5780  0.1505 -0.2901
 6234TIP3    H140117   4.745   5.287  13.158  0.9213  0.3333 -1.4517
 6234TIP3    H240118   4.893   5.316  13.143  1.2285  0.8344  1.8865
 6235TIP3   OH240119   4.453   0.330   2.702  0.3907 -0.1798  0.3746
 6235TIP3    H140120   4.448   0.343   2.797 -1.5543  0.8666  0.1770
 6235TIP3    H240121   4.466   0.235   2.692  1.5922 -0.1754  1.6859
 6236TIP3   OH240122   0.206   2.595   5.379 -0.1212 -0.2089  0.4267
 6236TIP3    H140123   0.172   2.674   5.335 -0.4739 -0.1044  0.8803
 6236TIP3    H240124   0.257   2.629   5.452 -1.1344 -0.4019  1.2556
 6237TIP3   OH240125   1.408   4.445  13.149 -0.6296  0.1964  0.0495
 6237TIP3    H140126   1.347   4.463  13.221 -0.1701 -1.5815  0.9654
 6237TIP3    H240127   1.494   4.459  13.188 -0.3911 -0.3556 -0.2772
 6238TIP3   OH240128   3.602   2.139  15.997  0.5047  0.4717 -0.1446
 6238TIP3    H140129   3.534   2.166  16.059 -0.2114 -3.2417  0.9414
 6238TIP3    H240130   3.684   2.153  16.044  0.1725  0.7235  0.3698
 6239TIP3   OH240131   1.687   3.566  15.402 -0.3684  0.4668  0.2549
 6239TIP3    H140132   1.697   3.607  15.316 -1.2483  2.2968  0.9827
 6239TIP3    H240133   1.749   3.613  15.458 -0.7823  0.2134  0.9349
 6240TIP3   OH240134   4.134   3.266  11.720  0.3990  0.2159  0.0067
 6240TIP3    H140135   4.105   3.198  11.781  2.2478 -1.0315 -0.4342
 6240TIP3    H240136   4.161   3.339  11.777 -0.1709  0.0248  0.5401
 6241TIP3   OH240137   5.269   3.980   3.651  0.0045 -0.7052 -0.0759
 6241TIP3    H140138   5.346   3.956   3.601 -0.3833 -2.1959 -0.0023
 6241TIP3    H240139   5.205   4.009   3.585  0.2181 -0.6113 -0.2408
 6242TIP3   OH240140   4.261   5.891   6.630 -0.5043 -0.0746  0.1730
 6242TIP3    H140141   4.286   5.975   6.590 -1.1374  0.5362  1.0279
 6242TIP3    H240142   4.328   5.874   6.695 -0.1161 -0.4825 -0.3233
 6243TIP3   OH240143   0.552   3.276  15.255 -0.5658  0.3885  0.2067
 6243TIP3    H140144   0.479   3.214  15.248 -0.0286 -0.3881  1.1733
 6243TIP3    H240145   0.618   3.229  15.306  0.1902  1.4688  0.2540
 6244TIP3   OH240146   0.159   3.681   0.009  0.1105  0.7573 -0.6531
 6244TIP3    H140147   0.167   3.588  -0.011 -0.4018  0.6632 -0.4209
 6244TIP3    H240148   0.160   3.724  -0.077 -2.9346  0.2880 -1.0498
 6245TIP3   OH240149   2.723   6.539   5.176  0.1649 -0.0372 -0.6795
 6245TIP3    H140150   2.751   6.605   5.113 -0.6531  0.2605 -0.7376
 6245TIP3    H240151   2.805   6.501   5.208  0.6960  1.4436 -0.1786
 6246TIP3   OH240152   1.114   4.049  16.245 -0.1999 -0.0885  0.3684
 6246TIP3    H140153   1.087   3.958  16.237  2.7053 -0.9278 -1.4594
 6246TIP3    H240154   1.193   4.046  16.298  0.7603  1.1441 -0.9063
 6247TIP3   OH240155   6.548   6.281   2.993  0.2227 -0.3265  0.2784
 6247TIP3    H140156   6.535   6.269   3.088  1.5981  0.4738  0.5991
 6247TIP3    H240157   6.608   6.211   2.968 -0.7456 -1.0097 -0.1758
 6248TIP3   OH240158   5.370   6.065  13.596  0.5245  1.0158 -0.0947
 6248TIP3    H140159   5.379   5.994  13.532 -1.1189  2.0973 -1.6529
 6248TIP3    H240160   5.454   6.068  13.641  1.1198 -0.9719 -0.9574
 6249TIP3   OH240161   3.007   5.609  11.724 -0.0272 -0.1193  0.3032
 6249TIP3    H140162   3.090   5.620  11.770  0.1885 -0.4139 -0.0066
 6249TIP3    H240163   3.032   5.587  11.634 -0.4403 -0.1841  0.1996
 6250TIP3   OH240164   2.197   0.809   3.355  0.1104  0.1509 -0.3902
 6250TIP3    H140165   2.258   0.744   3.321  0.5823 -0.1787  1.0317
 6250TIP3    H240166   2.126   0.811   3.291  0.4456 -1.2392 -0.8346
 6251TIP3   OH240167   4.731   2.612  15.805  0.2268  0.1007 -0.8917
 6251TIP3    H140168   4.672   2.571  15.741 -1.7266 -2.0237  1.9925
 6251TIP3    H240169   4.806   2.553  15.810 -0.2887 -0.5242 -0.2750
 6252TIP3   OH240170   0.653   3.351   2.577  0.6612 -0.0728  0.1478
 6252TIP3    H140171   0.587   3.295   2.536  0.9868 -0.9701  0.8300
 6252TIP3    H240172   0.696   3.395   2.503  1.1028 -1.5074 -0.4741
 6253TIP3   OH240173   0.271   6.790   4.553 -0.3221 -0.3375 -0.3676
 6253TIP3    H140174   0.345   6.732   4.534 -0.9646 -0.9069 -1.2046
 6253TIP3    H240175   0.277   6.807   4.647  1.4155  0.3999 -0.5837
 6254TIP3   OH240176   1.541   4.901   0.983  0.5306  0.2104 -0.2145
 6254TIP3    H140177   1.448   4.878   0.982  0.6331 -0.1843 -0.9384
 6254TIP3    H240178   1.584   4.826   1.025  0.5411  0.3504  0.0300
 6255TIP3   OH240179   5.893   4.464  14.620  0.0450  0.8657 -0.1066
 6255TIP3    H140180   5.818   4.428  14.572  0.6632  0.6997 -0.9815
 6255TIP3    H240181   5.877   4.441  14.711 -1.4945  1.7613 -0.1263
 6256TIP3   OH240182   5.281   1.023   2.822 -0.1078 -0.2010  0.0428
 6256TIP3    H140183   5.254   0.984   2.905  0.2705  0.3534  0.4272
 6256TIP3    H240184   5.366   0.984   2.805 -1.0807 -1.9410 -1.1641
 6257TIP3   OH240185   6.596   2.304   3.096  0.0576 -0.1511  0.0530
 6257TIP3    H140186   6.560   2.216   3.084  0.9036 -0.5748  0.4790
 6257TIP3    H240187   6.672   2.307   3.038 -0.6973  0.7580 -0.9045
 6258TIP3   OH240188   5.793   3.638  15.746  0.2955  0.4162  0.2408
 6258TIP3    H140189   5.824   3.556  15.708 -0.8523 -0.5134  1.2262
 6258TIP3    H240190   5.859   3.661  15.811 -0.1493 -0.5879  1.0690
 6259TIP3   OH240191   6.022   6.220  13.625 -0.3218  0.5788 -0.0864
 6259TIP3    H140192   6.027   6.302  13.575  0.7510  0.2982 -0.4657
 6259TIP3    H240193   6.036   6.151  13.560  0.0704  0.1558  0.4377
 6260TIP3   OH240194   5.961   5.737  16.318 -0.2478 -0.0452 -0.3474
 6260TIP3    H140195   5.963   5.830  16.343 -1.2027 -0.1239  0.0770
 6260TIP3    H240196   6.042   5.723  16.270  1.0499  0.4645  1.5848
 6261TIP3   OH240197   4.060   4.944  12.539 -0.0554 -0.0736 -0.1741
 6261TIP3    H140198   4.095   4.864  12.500  1.2955  0.5651 -0.3466
 6261TIP3    H240199   4.137   5.000  12.551 -0.9483  1.1378  0.0853
 6262TIP3   OH240200   6.556   2.346  11.424 -0.1535 -0.0284 -0.7410
 6262TIP3    H140201   6.623   2.386  11.369  1.7968 -0.1964  1.3557
 6262TIP3    H240202   6.567   2.388  11.510 -3.8317  1.0700 -0.6328
 6263TIP3   OH240203   4.421   6.741   1.377 -0.4043  0.3933  0.3072
 6263TIP3    H140204   4.495   6.680   1.366 -1.1774 -0.7943  1.3593
 6263TIP3    H240205   4.463   6.826   1.392  0.8264 -0.4546  2.0704
 6264TIP3   OH240206   2.399   2.356  11.732 -0.1544 -0.1183  0.2552
 6264TIP3    H140207   2.304   2.347  11.723 -0.2232 -0.5261  1.1968
 6264TIP3    H240208   2.418   2.321  11.820  0.3737  3.4103  1.7304
 6265TIP3   OH240209   2.227   0.332  13.111 -0.3321  0.0823 -0.4215
 6265TIP3    H140210   2.229   0.424  13.138  1.7061  0.0015 -0.1412
 6265TIP3    H240211   2.315   0.315  13.078  0.3455 -2.5535  2.3237
 6266TIP3   OH240212   2.254   4.247  13.546  0.6144  0.1460  0.5632
 6266TIP3    H140213   2.264   4.254  13.641  0.9424  0.1632  0.5285
 6266TIP3    H240214   2.265   4.154  13.527  0.5527  0.1430  0.5444
 6267TIP3   OH240215   0.053   6.494   5.544  0.0580 -0.5673 -0.2190
 6267TIP3    H140216   0.035   6.512   5.636 -0.9750 -2.0758 -0.0839
 6267TIP3    H240217  -0.027   6.451   5.512  0.0253  0.7358 -2.0735
 6268TIP3   OH240218   1.611   3.272   3.784  0.0955  0.0626  0.2993
 6268TIP3    H140219   1.698   3.234   3.793  0.5641  0.9716 -0.3000
 6268TIP3    H240220   1.567   3.216   3.718  0.3627 -0.1470  0.2990
 6269TIP3   OH240221   1.952   0.412   0.603 -0.2536 -0.6477 -0.0338
 6269TIP3    H140222   1.923   0.494   0.643  2.5381  0.1648  0.5731
 6269TIP3    H240223   2.027   0.437   0.549  0.7651 -2.8078  0.2785
 6270TIP3   OH240224   2.359   1.503  13.721  0.0657  0.1346 -0.0144
 6270TIP3    H140225   2.309   1.584  13.732 -0.9263 -0.4949  0.2090
 6270TIP3    H240226   2.352   1.459  13.806  0.1684 -0.4189 -0.2881
 6271TIP3   OH240227   5.296   1.434   3.347  0.1627  0.7195  0.2707
 6271TIP3    H140228   5.349   1.485   3.287 -2.0419  0.9971 -1.5653
 6271TIP3    H240229   5.352   1.421   3.424  2.4772  1.7712 -1.1447
 6272TIP3   OH240230   6.663   3.036   5.539  0.2413 -0.5067  0.2207
 6272TIP3    H140231   6.627   3.110   5.489  0.2075  0.7869  2.0682
 6272TIP3    H240232   6.590   3.008   5.594 -0.2805 -3.0773 -1.5728
 6273TIP3   OH240233   5.273   6.219   1.425  0.0416 -0.4522 -0.0679
 6273TIP3    H140234   5.253   6.253   1.512 -0.3430 -0.8907  0.0155
 6273TIP3    H240235   5.320   6.137   1.440 -2.0468 -1.7464 -0.2442
 6274TIP3   OH240236   4.230   3.237   2.858  0.1964  0.2614  0.3613
 6274TIP3    H140237   4.221   3.253   2.952 -1.2984  1.4980  0.0405
 6274TIP3    H240238   4.180   3.156   2.843 -0.2806  0.5303  0.4944
 6275TIP3   OH240239   0.148   5.539  11.262  0.1648  0.4068 -0.1638
 6275TIP3    H140240   0.196   5.496  11.191  0.4323 -1.1078  0.8803
 6275TIP3    H240241   0.057   5.537  11.233  0.2136 -0.5891 -0.2894
 6276TIP3   OH240242   0.996   2.177  15.450  0.2766 -0.5648 -0.2156
 6276TIP3    H140243   1.038   2.253  15.410 -0.9500 -0.2352 -0.9062
 6276TIP3    H240244   0.915   2.211  15.488  0.3984 -1.2752  0.7150
 6277TIP3   OH240245   2.795   3.436   2.592  0.0283  0.0269  0.0081
 6277TIP3    H140246   2.859   3.374   2.557 -0.0613  0.3383 -0.7215
 6277TIP3    H240247   2.712   3.408   2.555  0.0822  0.9698 -0.8686
 6278TIP3   OH240248   3.189   6.097  11.081 -0.2764 -0.2509  0.7260
 6278TIP3    H140249   3.238   6.102  10.998 -0.4391  1.2037  0.6915
 6278TIP3    H240250   3.098   6.106  11.054 -0.3692 -0.3474  1.0156
 6279TIP3   OH240251   0.580   0.996   0.993  0.2817 -0.0050 -0.2122
 6279TIP3    H140252   0.511   0.967   1.052  0.7296 -0.0133  0.3131
 6279TIP3    H240253   0.541   1.069   0.945 -0.1920 -0.2064 -0.1415
 6280TIP3   OH240254   3.850   1.943   5.736  0.1056 -0.2560  0.3958
 6280TIP3    H140255   3.866   1.980   5.823  1.0347 -0.6243  0.3832
 6280TIP3    H240256   3.758   1.964   5.719  0.2197  0.8186  0.9840
 6281TIP3   OH240257   2.503   6.781  14.732 -0.1441 -0.3238  0.0982
 6281TIP3    H140258   2.471   6.835  14.804 -0.8395 -1.6025  0.7853
 6281TIP3    H240259   2.440   6.794  14.662 -0.1233 -0.0028  0.1368
 6282TIP3   OH240260   4.731   3.552  10.855 -0.0573  0.5230 -0.0952
 6282TIP3    H140261   4.648   3.506  10.839  0.5985 -0.6629 -0.2434
 6282TIP3    H240262   4.748   3.538  10.948  0.5739 -0.3338 -0.3164
 6283TIP3   OH240263   3.364   5.969  16.400 -0.0440 -0.1777  0.4442
 6283TIP3    H140264   3.316   6.041  16.442  0.5023  0.1992  0.4245
 6283TIP3    H240265   3.425   5.939  16.467  0.8280  0.4200 -0.0741
 6284TIP3   OH240266   1.131   3.093  13.706  0.0190  0.0800  0.2299
 6284TIP3    H140267   1.151   3.159  13.640 -0.3159  0.5495  0.5897
 6284TIP3    H240268   1.199   3.027  13.694  0.3504  0.4750 -0.1511
 6285TIP3   OH240269   2.634   2.324   6.241 -0.1282  0.0724  0.5482
 6285TIP3    H140270   2.727   2.305   6.231  0.0957 -0.2632  2.8209
 6285TIP3    H240271   2.629   2.378   6.319 -1.7321  1.3701 -0.3896
 6286TIP3   OH240272   2.010   0.896   4.622  0.2470  0.7086  0.0838
 6286TIP3    H140273   2.036   0.984   4.648 -1.6852  1.1514  0.6801
 6286TIP3    H240274   1.978   0.855   4.702  1.2886 -0.6208 -0.1538
 6287TIP3   OH240275   4.550   5.988  11.507  0.4676  0.2114  0.2728
 6287TIP3    H140276   4.609   5.928  11.553 -0.5654 -0.8947  0.1947
 6287TIP3    H240277   4.468   5.940  11.500  0.6827  0.0395 -3.2268
 6288TIP3   OH240278   0.191   0.853  14.384  0.0972  0.0345 -0.4348
 6288TIP3    H140279   0.095   0.861  14.384 -0.0380 -1.0775 -1.8831
 6288TIP3    H240280   0.208   0.766  14.419  0.6541  0.6231  0.7955
 6289TIP3   OH240281   4.822   0.585   4.456  0.5500 -0.0267 -0.1673
 6289TIP3    H140282   4.776   0.649   4.403  2.4423 -0.0289 -1.9315
 6289TIP3    H240283   4.825   0.506   4.402  2.1247 -0.1888  0.1098
 6290TIP3   OH240284   6.116   5.847  11.334 -0.1845 -0.4322 -0.0709
 6290TIP3    H140285   6.029   5.876  11.305  0.4359  0.5349 -0.9974
 6290TIP3    H240286   6.168   5.927  11.336  1.0574 -1.2010 -0.8338
 6291TIP3   OH240287   0.803   4.129   4.327 -0.2831 -0.1497 -0.9439
 6291TIP3    H140288   0.856   4.130   4.407  1.5266  0.4656 -2.1105
 6291TIP3    H240289   0.851   4.183   4.265 -2.0796  0.0761 -2.2213
 6292TIP3   OH240290   0.008   3.691   2.128 -0.3828  0.2438  0.3536
 6292TIP3    H140291   0.016   3.602   2.164 -2.1478  0.6306  1.8745
 6292TIP3    H240292  -0.068   3.687   2.070  0.6699  0.3551 -1.0955
 6293TIP3   OH240293   0.686   4.485  13.227 -0.4158 -0.0191  0.0490
 6293TIP3    H140294   0.595   4.508  13.208 -0.2201 -0.6293 -1.9154
 6293TIP3    H240295   0.726   4.566  13.259 -1.2306  0.7369 -0.7868
 6294TIP3   OH240296   4.080   1.337  13.023  0.2071 -0.5709 -0.0698
 6294TIP3    H140297   4.055   1.429  13.027  0.3438 -0.5585  0.8843
 6294TIP3    H240298   4.015   1.292  13.078 -0.2417 -1.1408 -1.0508
 6295TIP3   OH240299   5.286   5.461  13.706  0.0673  0.3697 -0.2018
 6295TIP3    H140300   5.301   5.473  13.800 -0.9670 -0.6443  0.1240
 6295TIP3    H240301   5.349   5.393  13.681 -0.9102 -0.7085  0.1911
 6296TIP3   OH240302   0.117   4.240  12.475  0.1393 -0.3473 -0.1611
 6296TIP3    H140303   0.183   4.249  12.544 -1.4928  0.8076  1.3293
 6296TIP3    H240304   0.142   4.306  12.410  0.6627 -0.1865  0.1943
 6297TIP3   OH240305   5.984   2.635   0.098  1.0932 -0.2458  0.4714
 6297TIP3    H140306   5.920   2.638   0.169 -0.2325 -0.6564 -0.6627
 6297TIP3    H240307   6.021   2.547   0.102  0.9582 -0.2963  0.6020
 6298TIP3   OH240308   0.290   3.778   1.238  0.3403  0.2725 -0.2739
 6298TIP3    H140309   0.325   3.853   1.190  1.0042 -0.0636 -0.3270
 6298TIP3    H240310   0.300   3.704   1.178  1.9364 -0.3107  0.6479
 6299TIP3   OH240311   4.134   4.540   1.076  0.2905  0.8379  0.1302
 6299TIP3    H140312   4.205   4.477   1.069 -2.5738 -2.4915 -2.1233
 6299TIP3    H240313   4.132   4.563   1.169  1.3807 -2.6956  1.1806
 6300TIP3   OH240314   6.151   2.237  11.189  0.4045 -0.1946 -0.7183
 6300TIP3    H140315   6.200   2.203  11.114 -1.2659  0.7525 -2.3338
 6300TIP3    H240316   6.199   2.315  11.216  1.3936 -0.9217 -0.3435
 6301TIP3   OH240317   4.778   2.087  11.806 -0.2042 -0.2758  0.1233
 6301TIP3    H140318   4.700   2.131  11.774 -1.0599 -1.1401  0.9498
 6301TIP3    H240319   4.761   2.072  11.899  0.7383 -0.9135  0.2093
 6302TIP3   OH240320   1.283   4.061  17.015  0.1911  0.1835 -0.1037
 6302TIP3    H140321   1.334   4.024  17.087  1.7436 -1.6771 -2.0300
 6302TIP3    H240322   1.252   4.145  17.048  2.0244  0.0413  2.2249
 6303TIP3   OH240323   4.475   3.806  13.477 -0.3231 -0.6257 -0.3330
 6303TIP3    H140324   4.546   3.784  13.537 -1.0652  1.6346  1.5468
 6303TIP3    H240325   4.409   3.738  13.491  1.4697 -2.9706 -2.3767
 6304TIP3   OH240326   5.102   1.473  13.450 -0.7093 -0.3480  0.0052
 6304TIP3    H140327   5.173   1.492  13.389 -0.1015 -0.7122  0.5859
 6304TIP3    H240328   5.031   1.441  13.394 -0.8329  1.1029 -0.6936
 6305TIP3   OH240329   3.755   5.747  14.528  0.9917 -0.0442  0.3706
 6305TIP3    H140330   3.849   5.762  14.539  1.0450  0.6268 -0.8734
 6305TIP3    H240331   3.740   5.661  14.568  1.8955  0.3765  1.6917
 6306TIP3   OH240332   6.048   0.606  11.772 -0.0397  0.3744 -0.0385
 6306TIP3    H140333   6.076   0.563  11.853  1.7664 -0.1197 -0.8614
 6306TIP3    H240334   5.964   0.645  11.793  1.1122  1.6715  2.5629
 6307TIP3   OH240335   4.144   6.273  12.769  0.1871  0.0350  0.0321
 6307TIP3    H140336   4.166   6.200  12.711  1.5018  0.3757  0.0721
 6307TIP3    H240337   4.114   6.342  12.710 -0.3713 -0.2826 -0.0644
 6308TIP3   OH240338   0.329   5.227   1.171  0.3584  0.0638 -0.1776
 6308TIP3    H140339   0.386   5.284   1.120  0.7687  1.1362  1.4121
 6308TIP3    H240340   0.321   5.270   1.256 -1.0686 -1.1746  0.3687
 6309TIP3   OH240341   0.561   1.012   2.784 -0.0202  0.2255  0.8433
 6309TIP3    H140342   0.482   1.011   2.839 -0.4404 -1.2832  0.2448
 6309TIP3    H240343   0.546   0.944   2.719  0.2513  2.2707 -1.4854
 6310TIP3   OH240344   5.323   0.778   2.005 -0.0248  0.2337  0.5145
 6310TIP3    H140345   5.364   0.699   2.041 -0.9040  0.2338  1.5676
 6310TIP3    H240346   5.368   0.850   2.048 -0.2384  0.2666  0.6833
 6311TIP3   OH240347   6.692   2.209  12.799  0.0769  0.1408  0.0353
 6311TIP3    H140348   6.668   2.300  12.816 -0.7000 -0.0452 -0.0405
 6311TIP3    H240349   6.683   2.166  12.884  0.6259  0.1623  0.1131
 6312TIP3   OH240350   2.106   1.578   1.865 -0.0860 -0.2799  0.5014
 6312TIP3    H140351   2.114   1.672   1.875 -0.6931 -0.2010  0.2787
 6312TIP3    H240352   2.012   1.561   1.862 -0.0008 -0.7061 -1.0152
 6313TIP3   OH240353   0.574   3.093  13.270 -0.2420  0.1647  0.0637
 6313TIP3    H140354   0.543   3.140  13.193  0.3020  0.5127  0.0528
 6313TIP3    H240355   0.613   3.013  13.235  0.7282  0.6953 -0.1010
 6314TIP3   OH240356   4.665   0.099  16.970  0.2071 -0.5273 -0.0068
 6314TIP3    H140357   4.592   0.103  16.908 -0.2873 -0.2059  0.5766
 6314TIP3    H240358   4.623   0.108  17.056  0.8786 -0.9560  0.3722
 6315TIP3   OH240359   5.586   2.352  14.618  0.4159 -0.5425  0.1619
 6315TIP3    H140360   5.621   2.270  14.654  0.5008 -2.0319 -2.9273
 6315TIP3    H240361   5.573   2.333  14.525 -0.4641  2.7127 -0.5064
 6316TIP3   OH240362   1.779   5.919  11.859  0.3359  0.1822 -0.4461
 6316TIP3    H140363   1.714   5.858  11.825  1.4693 -0.4960 -1.4985
 6316TIP3    H240364   1.733   6.003  11.864 -0.7078 -0.3504 -0.8393
 6317TIP3   OH240365   3.129   2.279  14.040 -0.5448 -0.1786  0.3528
 6317TIP3    H140366   3.084   2.357  14.072  1.8464  1.7262 -0.6371
 6317TIP3    H240367   3.095   2.267  13.951 -0.2970  0.2868  0.1909
 6318TIP3   OH240368   2.453   4.758   3.865  0.1208  0.7067 -0.1232
 6318TIP3    H140369   2.360   4.781   3.861  0.4252  1.8249 -1.8108
 6318TIP3    H240370   2.457   4.666   3.839 -0.5247  0.5877  0.1873
 6319TIP3   OH240371   1.855   4.619   4.761  0.0192  0.0030 -0.3581
 6319TIP3    H140372   1.800   4.679   4.711 -2.6464 -2.3272 -0.4839
 6319TIP3    H240373   1.865   4.660   4.846 -2.1182  0.4633 -0.2886
 6320TIP3   OH240374   6.347   0.874   0.172  0.5867 -0.1900  0.2985
 6320TIP3    H140375   6.253   0.867   0.190  0.6545  0.1743  0.8345
 6320TIP3    H240376   6.383   0.913   0.251  0.5524  3.8671 -1.4271
 6321TIP3   OH240377   4.077   5.262   2.935  0.3232  0.4272 -0.1393
 6321TIP3    H140378   4.046   5.349   2.907  2.5041  1.6145  0.8428
 6321TIP3    H240379   3.999   5.207   2.933 -0.7881  1.9093 -2.6456
 6322TIP3   OH240380   0.720   4.009   3.060  0.3684 -0.0623 -0.3935
 6322TIP3    H140381   0.657   3.966   3.002  0.2973  0.0083 -0.3696
 6322TIP3    H240382   0.774   3.938   3.094  0.9476 -0.0065 -1.1914
 6323TIP3   OH240383   3.071   2.384  14.971 -0.1091 -0.3679 -0.1051
 6323TIP3    H140384   3.055   2.292  14.948  3.2209 -0.6279 -2.0915
 6323TIP3    H240385   3.082   2.383  15.066  2.9373 -2.7590 -0.3115
 6324TIP3   OH240386   6.761   0.662   5.200 -0.0301 -0.2996  0.3065
 6324TIP3    H140387   6.797   0.721   5.266 -1.8293 -0.4321  1.4664
 6324TIP3    H240388   6.677   0.635   5.235 -0.8531 -0.7449 -1.8408
 6325TIP3   OH240389   4.097   0.430   6.031 -0.6089 -0.0766  0.1053
 6325TIP3    H140390   4.093   0.477   6.114 -1.8256  1.1217 -0.5926
 6325TIP3    H240391   4.008   0.434   5.996  0.2770  1.4188 -2.2898
 6326TIP3   OH240392   2.850   3.519  16.508  0.2151  0.0543  0.0075
 6326TIP3    H140393   2.881   3.585  16.446  1.1115  0.5592  0.9524
 6326TIP3    H240394   2.816   3.570  16.581  2.2108 -0.4756  1.3873
 6327TIP3   OH240395   0.045   3.652   0.449  0.2443 -0.0977 -0.6731
 6327TIP3    H140396   0.044   3.559   0.429 -0.3284 -0.7763  2.0807
 6327TIP3    H240397   0.037   3.695   0.364  0.2144 -2.5428 -1.9929
 6328TIP3   OH240398   0.503   2.911  13.821 -0.0066  0.1886  0.6763
 6328TIP3    H140399   0.420   2.910  13.773 -0.1642  1.1689  0.9030
 6328TIP3    H240400   0.480   2.883  13.909  0.0744 -0.4469  0.5007
 6329TIP3   OH240401   5.299   5.574   3.725  0.2830 -0.2903 -0.6083
 6329TIP3    H140402   5.366   5.506   3.731  0.7201  0.0858 -1.1218
 6329TIP3    H240403   5.216   5.525   3.720  0.4880 -0.7495  0.3236
 6330TIP3   OH240404   0.064   4.409  13.669 -0.5225 -0.9227 -0.5734
 6330TIP3    H140405   0.156   4.405  13.698 -1.3613 -0.2612  2.6329
 6330TIP3    H240406   0.029   4.322  13.687 -0.8213 -0.8103 -0.6076
 6331TIP3   OH240407   3.862   2.435  15.774  0.3852 -0.3189 -0.2264
 6331TIP3    H140408   3.793   2.374  15.746  1.1186 -0.2401 -2.3287
 6331TIP3    H240409   3.943   2.388  15.758  0.8925  0.0098  1.2194
 6332TIP3   OH240410   0.854   0.118  16.097  0.0134  0.1853  0.9299
 6332TIP3    H140411   0.794   0.122  16.023 -1.0471  0.3979  1.7850
 6332TIP3    H240412   0.808   0.163  16.168  1.8097  1.7231  1.1923
 6333TIP3   OH240413   5.509   4.669  15.394 -0.2006 -0.0318 -0.3848
 6333TIP3    H140414   5.417   4.651  15.374 -0.0401 -0.0838 -1.0959
 6333TIP3    H240415   5.506   4.746  15.450 -0.6578  0.1838 -0.6940
 6334TIP3   OH240416   1.984   5.866   0.733  0.4188 -0.4740 -0.1241
 6334TIP3    H140417   2.067   5.888   0.691 -0.4650  0.2467 -1.6012
 6334TIP3    H240418   1.955   5.947   0.774  0.9674 -1.0182  1.4274
 6335TIP3   OH240419   5.244   6.553   0.505 -1.1710  0.3294 -0.4871
 6335TIP3    H140420   5.295   6.475   0.526 -0.7984 -0.0205 -2.5253
 6335TIP3    H240421   5.275   6.619   0.568  1.4337 -0.0230 -1.3017
 6336TIP3   OH240422   4.217   6.324   5.651 -0.3262  0.1286 -0.2952
 6336TIP3    H140423   4.241   6.232   5.653  0.5870  0.3589  0.1833
 6336TIP3    H240424   4.121   6.325   5.647 -0.3052 -0.8367 -1.4844
 6337TIP3   OH240425   1.730   4.046   1.838  0.1501 -0.4338 -0.1906
 6337TIP3    H140426   1.767   3.993   1.909  1.7859 -0.0579 -0.7045
 6337TIP3    H240427   1.710   4.130   1.880 -1.0149 -0.9331  0.2913
 6338TIP3   OH240428   1.476   4.569  15.977  0.2363  0.0358  0.5088
 6338TIP3    H140429   1.433   4.494  15.935  0.1956 -0.5110  1.4976
 6338TIP3    H240430   1.405   4.627  16.003  0.2794  0.5572 -0.4728
 6339TIP3   OH240431   2.820   5.987  14.599  0.0776  0.4853 -0.4408
 6339TIP3    H140432   2.778   5.980  14.685 -0.7935 -0.0424 -0.8975
 6339TIP3    H240433   2.907   6.023  14.618 -0.4923  1.4072  0.5560
 6340TIP3   OH240434   0.411   0.632   0.901 -0.1076 -0.1725 -0.2043
 6340TIP3    H140435   0.332   0.609   0.951  0.3684  3.9885  2.9874
 6340TIP3    H240436   0.483   0.604   0.957  0.8325 -2.7504 -2.5108
 6341TIP3   OH240437   1.069   4.522  13.211  0.2712  0.6671  0.3235
 6341TIP3    H140438   1.019   4.460  13.265  0.5217  0.3599  0.2051
 6341TIP3    H240439   1.141   4.551  13.268  2.1639 -1.7244 -0.6687
 6342TIP3   OH240440   1.798   4.006  11.779  0.0250 -0.1507  0.3130
 6342TIP3    H140441   1.795   4.093  11.819  2.0051 -0.5832  1.5669
 6342TIP3    H240442   1.707   3.984  11.760 -0.5355  2.0713  0.1916
 6343TIP3   OH240443   6.246   0.370   1.982  0.1060  0.7962 -0.2095
 6343TIP3    H140444   6.211   0.459   1.981 -0.8012  0.4569 -0.1696
 6343TIP3    H240445   6.298   0.364   1.902 -0.2104  1.2171 -0.4520
 6344TIP3   OH240446   2.101   3.639  15.567  0.4009  0.7588 -0.0078
 6344TIP3    H140447   2.062   3.559  15.603 -0.0429  0.7540 -0.4955
 6344TIP3    H240448   2.196   3.625  15.575  0.3524 -0.2536 -1.0335
 6345TIP3   OH240449   0.437   0.302   4.127  0.0158 -0.3934 -0.5234
 6345TIP3    H140450   0.480   0.220   4.101  1.4979  0.3092 -0.3559
 6345TIP3    H240451   0.473   0.368   4.067  1.6664  0.8181  1.6607
 6346TIP3   OH240452   5.696   6.308  10.554 -0.3767 -0.1991  0.0859
 6346TIP3    H140453   5.603   6.287  10.555 -0.1973 -1.0529  1.7458
 6346TIP3    H240454   5.729   6.278  10.639  1.0559  1.7646  0.2889
 6347TIP3   OH240455   1.205   6.440  14.845 -0.2643  0.4049 -0.2820
 6347TIP3    H140456   1.209   6.418  14.752 -0.1205  0.2823 -0.2480
 6347TIP3    H240457   1.138   6.509  14.851 -2.3894 -1.5417 -0.1148
 6348TIP3   OH240458   5.732   6.043  12.555 -0.2828 -0.0400 -0.2714
 6348TIP3    H140459   5.661   5.983  12.580 -1.7915  1.3251 -1.0702
 6348TIP3    H240460   5.742   6.101  12.630  0.9019 -1.0132  0.3442
 6349TIP3   OH240461   2.937   0.070   0.752  0.9109  0.2274  0.5197
 6349TIP3    H140462   2.870   0.023   0.801 -1.4147  2.4813 -0.2747
 6349TIP3    H240463   2.982   0.124   0.818 -0.7297  1.5873  0.6086
 6350TIP3   OH240464   3.548   0.226   3.580 -0.2941 -0.4264  0.0324
 6350TIP3    H140465   3.626   0.171   3.581  0.6439  0.8476  0.3515
 6350TIP3    H240466   3.581   0.314   3.564 -1.4048  0.5211  2.4385
 6351TIP3   OH240467   5.293   3.205   0.625  0.5363  0.2593 -0.1389
 6351TIP3    H140468   5.344   3.128   0.648  1.2751  0.8652  0.2713
 6351TIP3    H240469   5.302   3.264   0.699 -2.7149 -0.5350  1.0422
 6352TIP3   OH240470   5.451   3.733   1.314 -0.6809  0.0759 -0.4640
 6352TIP3    H140471   5.368   3.740   1.266 -0.4247  2.1722 -0.7147
 6352TIP3    H240472   5.424   3.731   1.406 -1.0273  1.2944 -0.5198
 6353TIP3   OH240473   5.472   5.045  12.251 -0.0815  0.2380 -0.4826
 6353TIP3    H140474   5.397   5.036  12.310  1.1875 -2.3603  0.9444
 6353TIP3    H240475   5.471   4.964  12.200  2.3168 -0.4003  0.3672
 6354TIP3   OH240476   6.116   1.588  16.946  0.5865  0.5434 -0.2601
 6354TIP3    H140477   6.077   1.513  16.902 -0.7538  0.9026  0.2762
 6354TIP3    H240478   6.164   1.550  17.020 -1.2161  0.2732  0.8235
 6355TIP3   OH240479   5.229   6.045  13.888  0.1391 -0.1031  0.4504
 6355TIP3    H140480   5.168   5.972  13.874 -0.2299 -0.2133  2.3638
 6355TIP3    H240481   5.299   6.029  13.826 -1.0856 -0.7693 -0.8258
 6356TIP3   OH240482   2.025   5.632  15.619  0.2480  0.4418  0.8394
 6356TIP3    H140483   1.993   5.559  15.567 -0.2891  2.5228 -1.9713
 6356TIP3    H240484   2.117   5.612  15.635 -0.2272 -1.4670  1.4183
 6357TIP3   OH240485   1.669   3.223  12.884 -0.2624 -0.2720 -0.0508
 6357TIP3    H140486   1.692   3.308  12.847  1.9019 -0.7044  0.1414
 6357TIP3    H240487   1.598   3.191  12.828 -0.8911  1.4954 -0.3247
 6358TIP3   OH240488   5.721   2.220   4.989  0.4983 -0.0056  0.5474
 6358TIP3    H140489   5.672   2.301   5.006  2.3871  1.3655 -0.1838
 6358TIP3    H240490   5.661   2.167   4.936  0.1781  2.1400 -1.4294
 6359TIP3   OH240491   5.749   0.119   2.959 -0.4766  0.3767  0.3937
 6359TIP3    H140492   5.820   0.075   3.006 -1.0451 -0.5372  0.4056
 6359TIP3    H240493   5.728   0.060   2.887 -0.5895  1.0941 -0.1774
 6360TIP3   OH240494   5.979   2.155   2.889 -0.3663 -0.1169  0.2299
 6360TIP3    H140495   5.896   2.109   2.898 -1.2416  1.0948 -1.3416
 6360TIP3    H240496   6.003   2.144   2.797  0.0023  1.5567  0.1023
 6361TIP3   OH240497   2.908   2.764  16.894 -0.2866  0.2490  0.0730
 6361TIP3    H140498   2.833   2.820  16.913  0.7606  1.2718  1.4051
 6361TIP3    H240499   2.931   2.785  16.803 -0.6626  1.0724  0.1595
 6362TIP3   OH240500   3.011   4.135  15.480  0.2990  0.7880  0.2021
 6362TIP3    H140501   2.968   4.215  15.449  0.8215  0.8422 -0.3907
 6362TIP3    H240502   3.099   4.139  15.443 -0.0434 -0.6582 -0.8432
 6363TIP3   OH240503   2.247   4.249  13.814 -0.0924  0.5760  0.0767
 6363TIP3    H140504   2.299   4.192  13.870  0.8179  0.2812 -1.0225
 6363TIP3    H240505   2.254   4.335  13.855  0.5497  0.3694  0.4207
 6364TIP3   OH240506   4.348   3.176  13.568  0.5985 -0.2560 -0.0757
 6364TIP3    H140507   4.403   3.141  13.638  1.4088 -0.0679 -0.6141
 6364TIP3    H240508   4.263   3.135  13.582  0.3479  0.7891  1.8461
 6365TIP3   OH240509   2.264   0.311  11.305 -0.4518  0.5483 -0.5507
 6365TIP3    H140510   2.294   0.224  11.331  0.1144  1.5659  2.5885
 6365TIP3    H240511   2.335   0.345  11.250  0.0094 -0.4214 -0.5801
 6366TIP3   OH240512   1.219   4.132  13.900 -0.3656 -0.0230  0.5499
 6366TIP3    H140513   1.189   4.048  13.867  0.2202 -0.3715  0.8904
 6366TIP3    H240514   1.176   4.197  13.844 -0.9327 -0.5402  0.3821
 6367TIP3   OH240515   3.757   3.734   0.479  0.8565  0.0449  0.3471
 6367TIP3    H140516   3.745   3.639   0.482 -1.7231  0.1381 -2.4179
 6367TIP3    H240517   3.809   3.749   0.400 -1.0777  0.9979 -0.8033
 6368TIP3   OH240518   6.461   1.835   5.015 -0.5432 -0.0205  0.2006
 6368TIP3    H140519   6.554   1.814   5.018 -0.8286 -1.4032  0.1749
 6368TIP3    H240520   6.451   1.887   4.935  0.4004  1.3190  0.9208
 6369TIP3   OH240521   6.566   3.523   0.293 -0.4674 -0.6902 -0.2897
 6369TIP3    H140522   6.586   3.499   0.384 -1.2358  0.1903  0.1378
 6369TIP3    H240523   6.585   3.617   0.288  0.3730 -0.8961 -1.2937
 6370TIP3   OH240524   2.607   3.708   2.462  0.3447  0.2664 -0.2633
 6370TIP3    H140525   2.665   3.667   2.398  0.6484  0.2443  0.0235
 6370TIP3    H240526   2.526   3.657   2.458  0.2195  0.5112 -0.9147
 6371TIP3   OH240527   0.418   0.756  11.672 -0.3610 -0.1162  0.0289
 6371TIP3    H140528   0.329   0.765  11.637 -0.7036  0.3493  0.9803
 6371TIP3    H240529   0.411   0.787  11.762  1.0960  1.4906 -0.3497
 6372TIP3   OH240530   1.276   3.249   3.163  0.6582 -0.1211  0.0701
 6372TIP3    H140531   1.298   3.333   3.204  1.1947  0.4404 -1.3110
 6372TIP3    H240532   1.206   3.270   3.101 -0.3773 -1.0177  0.8979
 6373TIP3   OH240533   4.027   3.265   3.755 -0.4355  0.6993  0.0292
 6373TIP3    H140534   3.960   3.281   3.821  1.3366 -1.4116  2.5360
 6373TIP3    H240535   4.023   3.171   3.739  1.1504  0.7083 -0.6361
 6374TIP3   OH240536   3.103   5.357   2.960 -0.5625  0.3861  0.0755
 6374TIP3    H140537   3.164   5.305   2.908 -1.7827 -1.5590  0.4701
 6374TIP3    H240538   3.096   5.310   3.043 -0.1231  2.3792  1.3079
 6375TIP3   OH240539   6.780   1.191  13.003  0.0461  0.5937  0.6245
 6375TIP3    H140540   6.776   1.156  13.092  0.2782 -0.1795  0.3403
 6375TIP3    H240541   6.811   1.281  13.014  1.6437  0.0044  1.2210
 6376TIP3   OH240542   3.151   5.688  16.602  0.3118 -0.0857 -0.2918
 6376TIP3    H140543   3.201   5.733  16.671 -0.5531 -1.6089  1.4285
 6376TIP3    H240544   3.215   5.673  16.533  2.5064 -2.2902  1.9752
 6377TIP3   OH240545   5.396   1.904  11.579  0.1400  0.2472 -0.1280
 6377TIP3    H140546   5.373   1.868  11.493 -0.7999  0.2825  0.1002
 6377TIP3    H240547   5.400   1.999  11.565  0.9915  0.1836 -0.3563
 6378TIP3   OH240548   4.949   1.055   0.611  0.4627  0.2405 -0.5965
 6378TIP3    H140549   4.878   1.074   0.671 -0.1232  0.7514 -1.4284
 6378TIP3    H240550   5.029   1.075   0.661 -0.0074  0.6182  0.0162
 6379TIP3   OH240551   3.187   4.934   0.688 -0.2859  0.2949  0.6254
 6379TIP3    H140552   3.136   5.007   0.654  0.1718  0.7230  0.8556
 6379TIP3    H240553   3.261   4.926   0.628 -0.2685  0.0948  0.6719
 6380TIP3   OH240554   0.772   1.578  15.913  0.5452  0.0622  0.5130
 6380TIP3    H140555   0.809   1.589  16.001 -1.7691  0.0720  1.5594
 6380TIP3    H240556   0.840   1.530  15.864  1.2038 -1.5245  2.8163
 6381TIP3   OH240557   5.388   3.747   3.881 -0.1841  0.1541  1.0079
 6381TIP3    H140558   5.362   3.702   3.801 -0.3891  2.0302 -0.0572
 6381TIP3    H240559   5.305   3.780   3.918  0.0387  0.4986  1.2078
 6382TIP3   OH240560   1.416   2.248   5.710  0.4477  0.7712  0.1235
 6382TIP3    H140561   1.381   2.163   5.738  0.9526  0.2771 -0.6803
 6382TIP3    H240562   1.341   2.307   5.713  0.2662  0.5005  1.4681
 6383TIP3   OH240563   3.862   4.082   3.070  0.4476 -0.2425  0.0215
 6383TIP3    H140564   3.902   3.996   3.081  0.1563 -0.2524  1.1527
 6383TIP3    H240565   3.787   4.066   3.012 -0.5302 -1.0729  1.4563
 6384TIP3   OH240566   4.638   4.139  13.845  0.0490  0.1914 -0.8644
 6384TIP3    H140567   4.652   4.209  13.909 -1.4282  0.5820 -0.9374
 6384TIP3    H240568   4.582   4.178  13.778  0.7337 -0.5200 -1.8967
 6385TIP3   OH240569   3.110   1.577  12.656  0.7315  0.6024 -0.1261
 6385TIP3    H140570   3.018   1.573  12.682  0.8456 -0.8848  0.1735
 6385TIP3    H240571   3.158   1.561  12.737  1.2062  0.1354 -0.4900
 6386TIP3   OH240572   3.934   2.333   6.337  0.1368 -0.3777 -0.4540
 6386TIP3    H140573   3.942   2.379   6.420 -2.7795  0.1145 -0.3334
 6386TIP3    H240574   3.934   2.240   6.360 -0.7380 -0.2394  0.1493
 6387TIP3   OH240575   2.138   2.926   4.236 -0.0823 -0.3411 -0.3589
 6387TIP3    H140576   2.194   2.941   4.312  0.1875 -0.7166 -0.4787
 6387TIP3    H240577   2.097   3.010   4.220 -0.1202 -0.2504  0.1875
 6388TIP3   OH240578   0.289   3.459   1.959  0.2096  0.0123  0.0389
 6388TIP3    H140579   0.281   3.474   2.054 -1.4285  0.0776 -0.0810
 6388TIP3    H240580   0.203   3.481   1.924  0.6371 -0.5064 -1.4118
 6389TIP3   OH240581   6.512   0.641  16.538 -0.1795 -0.3988  0.2243
 6389TIP3    H140582   6.592   0.588  16.534 -0.9227 -1.5297 -0.3068
 6389TIP3    H240583   6.494   0.650  16.632  0.3821 -0.4276  0.3381
 6390TIP3   OH240584   5.932   4.914  16.376  0.1082 -0.0963  0.4742
 6390TIP3    H140585   5.849   4.866  16.386 -0.2939  0.0747 -1.5627
 6390TIP3    H240586   5.921   4.993  16.429 -0.0055 -1.2585  2.2643
 6391TIP3   OH240587   3.617   0.528  17.013 -0.1314 -0.5813  0.3297
 6391TIP3    H140588   3.651   0.550  17.099  1.4191  0.0179 -0.4114
 6391TIP3    H240589   3.685   0.555  16.952 -1.6592  0.0433 -1.1807
 6392TIP3   OH240590   5.734   2.527  16.069 -0.0532 -0.2370  0.0841
 6392TIP3    H140591   5.643   2.557  16.069  0.0941  0.2231  0.1323
 6392TIP3    H240592   5.732   2.443  16.115 -0.2328  0.4784  1.4615
 6393TIP3   OH240593   5.605   3.125  13.406  0.2802 -1.1353  0.0856
 6393TIP3    H140594   5.571   3.036  13.394  0.5973 -0.9142 -3.3055
 6393TIP3    H240595   5.695   3.112  13.436 -0.6714 -1.7835  3.1107
 6394TIP3   OH240596   5.377   0.499  17.150 -0.0775 -0.3916  0.5035
 6394TIP3    H140597   5.296   0.451  17.131  0.2736 -0.1082 -2.0156
 6394TIP3    H240598   5.447   0.440  17.121  0.4734  0.6244 -0.2694
 6395TIP3   OH240599   3.635   3.536  13.213  0.0339  0.2117  0.3082
 6395TIP3    H140600   3.631   3.503  13.123 -0.4486 -0.2165  0.4768
 6395TIP3    H240601   3.665   3.626  13.205  0.0616  0.1520 -0.2775
 6396TIP3   OH240602   4.630   5.146   5.051 -0.4342 -0.1908  0.5256
 6396TIP3    H140603   4.637   5.228   5.002  3.5888 -0.5054  0.2691
 6396TIP3    H240604   4.599   5.083   4.986  1.6891  0.0728 -0.8365
 6397TIP3   OH240605   4.838   1.187  10.873 -0.0281 -0.0588 -0.0149
 6397TIP3    H140606   4.820   1.126  10.801 -1.2701 -1.1636  1.1748
 6397TIP3    H240607   4.868   1.130  10.945 -0.0122  0.8787  0.7358
 6398TIP3   OH240608   6.750   4.194  13.023 -0.0364  0.0348 -0.5586
 6398TIP3    H140609   6.824   4.150  12.982  0.6600  1.3689 -0.8129
 6398TIP3    H240610   6.725   4.262  12.960 -1.1798 -0.0906 -0.2631
 6399TIP3   OH240611   4.686   2.346  13.187  0.3607 -0.5210  0.4341
 6399TIP3    H140612   4.684   2.397  13.268  1.8650  1.2344 -0.5559
 6399TIP3    H240613   4.777   2.319  13.178  0.3328 -0.2296 -0.9376
 6400TIP3   OH240614   3.952   5.291  16.981 -0.3216 -0.1199  0.3451
 6400TIP3    H140615   3.902   5.364  17.018 -0.3266 -0.3038  0.7015
 6400TIP3    H240616   3.900   5.263  16.906 -1.6612 -1.4164  1.6884
 6401TIP3   OH240617   2.819   3.292  14.178 -0.4640 -0.1938 -0.2623
 6401TIP3    H140618   2.876   3.260  14.249 -1.2116 -0.4144  0.2526
 6401TIP3    H240619   2.851   3.247  14.100  0.7738  0.5125 -0.1925
 6402TIP3   OH240620   6.544   5.136   0.735 -0.3958  0.3791  0.5069
 6402TIP3    H140621   6.615   5.092   0.781 -0.2834  0.5244  0.4741
 6402TIP3    H240622   6.575   5.146   0.645 -0.9706 -0.7034  0.1665
 6403TIP3   OH240623   2.095   5.994  16.566  0.1374 -0.0597  0.2184
 6403TIP3    H140624   2.001   5.982  16.577 -0.2550  0.6270 -1.9420
 6403TIP3    H240625   2.134   5.938  16.633 -1.7852 -1.3825  0.3272
 6404TIP3   OH240626   1.555   5.742   0.510  0.1269  0.5469  0.6850
 6404TIP3    H140627   1.526   5.754   0.600 -0.2578  2.4311  0.3333
 6404TIP3    H240628   1.573   5.648   0.504 -2.6034 -0.1606  1.8820
 6405TIP3   OH240629   4.051   4.813   6.304 -0.1149 -0.6223 -0.5666
 6405TIP3    H140630   4.016   4.757   6.374 -0.9068  0.4768 -0.0492
 6405TIP3    H240631   4.144   4.792   6.300  0.2333  0.2879  1.7788
 6406TIP3   OH240632   2.960   4.392  16.420  0.0034 -0.4254  0.2203
 6406TIP3    H140633   2.877   4.362  16.383  0.5931 -0.1373 -1.4214
 6406TIP3    H240634   3.000   4.443  16.350  0.4594  1.5659  1.8071
 6407TIP3   OH240635   4.507   5.695  14.414  0.2302  0.3941 -0.0379
 6407TIP3    H140636   4.506   5.619  14.356 -0.0870 -0.9645  1.6752
 6407TIP3    H240637   4.587   5.741  14.392 -0.4518  0.5885 -2.3444
 6408TIP3   OH240638   5.679   3.705   5.403 -0.1681 -0.2434  0.4846
 6408TIP3    H140639   5.675   3.760   5.481 -1.5794 -0.3737  0.5381
 6408TIP3    H240640   5.713   3.763   5.334  1.1055 -0.1387  1.1804
 6409TIP3   OH240641   1.317   1.204  15.400 -0.7745 -0.2580  0.4237
 6409TIP3    H140642   1.242   1.260  15.379 -1.0372 -0.2808  1.2629
 6409TIP3    H240643   1.282   1.115  15.397 -1.3049 -0.1858  2.7367
 6410TIP3   OH240644   4.453   2.661  13.267 -0.2164 -0.5057 -0.4281
 6410TIP3    H140645   4.440   2.706  13.184  1.3702  0.3857 -0.2218
 6410TIP3    H240646   4.436   2.569  13.248 -1.1671 -0.1506 -1.4081
 6411TIP3   OH240647   1.517   5.032   3.953  0.0985 -0.3210 -0.2921
 6411TIP3    H140648   1.550   5.119   3.928  0.9203  0.5139  3.0897
 6411TIP3    H240649   1.424   5.046   3.971 -0.1000 -0.5140 -1.1351
 6412TIP3   OH240650   0.566   3.681   4.833  0.7828  0.0019 -0.3510
 6412TIP3    H140651   0.502   3.639   4.891 -0.4516  1.5194 -0.5377
 6412TIP3    H240652   0.512   3.720   4.763  2.0205  0.3522 -1.1457
 6413TIP3   OH240653   4.239   4.397  15.350 -0.0014 -0.5508  0.4529
 6413TIP3    H140654   4.156   4.425  15.312 -0.2460 -0.5670  0.9666
 6413TIP3    H240655   4.268   4.471  15.403  1.0224  0.0048 -0.8224
 6414TIP3   OH240656   1.341   1.982   5.767 -0.5691 -0.2755  0.0063
 6414TIP3    H140657   1.353   1.986   5.862  0.5103 -2.5367  0.0481
 6414TIP3    H240658   1.257   1.939   5.755 -0.2889 -0.8371 -0.0136
 6415TIP3   OH240659   3.014   4.973  16.941 -0.4487  0.4352  0.5016
 6415TIP3    H140660   3.006   4.886  16.981  0.0935 -0.1887 -0.7032
 6415TIP3    H240661   2.950   4.972  16.869 -0.2498  0.9276  0.3139
 6416TIP3   OH240662   2.526   2.819   2.904 -0.3471 -0.2696 -0.7458
 6416TIP3    H140663   2.496   2.761   2.974  0.3954  2.1632  1.7751
 6416TIP3    H240664   2.450   2.828   2.846 -1.5004 -1.2140  0.5522
 6417TIP3   OH240665   0.595   1.651   0.131  0.5223  0.6828 -0.0750
 6417TIP3    H140666   0.590   1.675   0.038 -0.7423 -0.0110 -0.2059
 6417TIP3    H240667   0.683   1.614   0.142  0.1065 -0.7979 -1.3987
 6418TIP3   OH240668   3.169   3.299   2.322  0.0504 -0.6879 -0.3700
 6418TIP3    H140669   3.166   3.318   2.228  2.0914 -0.2095 -0.3802
 6418TIP3    H240670   3.170   3.385   2.363  1.8598 -0.8249 -0.0625
 6419TIP3   OH240671   5.339   1.269   5.012 -0.1271  0.7498  0.0013
 6419TIP3    H140672   5.303   1.357   5.003 -0.6717  0.4548 -0.8354
 6419TIP3    H240673   5.293   1.232   5.087 -0.1529  1.0573  0.1385
 6420TIP3   OH240674   4.913   0.593   5.659  0.0852 -0.7857  0.1061
 6420TIP3    H140675   4.948   0.587   5.748 -0.8815  0.8776  0.6432
 6420TIP3    H240676   4.990   0.601   5.604  0.6966  2.8443  1.2547
 6421TIP3   OH240677   1.198   4.673   3.260  0.2004  0.1838 -0.2115
 6421TIP3    H140678   1.261   4.740   3.231 -0.7953  1.4229  0.3689
 6421TIP3    H240679   1.134   4.669   3.189  1.8775 -2.5191 -1.7502
 6422TIP3   OH240680   2.127   1.619  12.800 -0.0269  0.2905 -0.4503
 6422TIP3    H140681   2.189   1.682  12.837 -0.9940  0.9172  0.1524
 6422TIP3    H240682   2.092   1.573  12.876  0.4508 -0.7926 -0.8657
 6423TIP3   OH240683   1.119   4.950   1.141 -0.2743 -0.2435  0.0081
 6423TIP3    H140684   1.046   4.938   1.202 -1.7086  0.2494 -1.5159
 6423TIP3    H240685   1.088   5.017   1.080  0.9624 -0.9266 -1.4312
 6424TIP3   OH240686   5.862   1.420  13.219  0.1485  0.8607  0.8859
 6424TIP3    H140687   5.909   1.434  13.136 -0.2960 -0.4417  0.3902
 6424TIP3    H240688   5.851   1.508  13.255  0.1368  1.4805 -0.5508
 6425TIP3   OH240689   3.194   3.503  16.531  0.8249  0.0164 -0.8842
 6425TIP3    H140690   3.261   3.566  16.559  1.5248 -0.1895 -2.0360
 6425TIP3    H240691   3.229   3.418  16.555  0.4631 -0.0274 -0.4952
 6426TIP3   OH240692   2.535   4.935   2.351 -0.4666  0.2424 -0.3702
 6426TIP3    H140693   2.554   4.956   2.443  2.4046 -0.7793 -0.6217
 6426TIP3    H240694   2.614   4.962   2.304 -2.3571  1.8674 -2.8018
 6427TIP3   OH240695   2.515   0.686  12.558 -0.6173  0.0025 -0.3882
 6427TIP3    H140696   2.605   0.675  12.526 -0.0156  2.5735  0.2270
 6427TIP3    H240697   2.480   0.597  12.559  1.0699 -0.8202 -3.0397
 6428TIP3   OH240698   2.418   6.198  12.574 -1.0082 -0.3135 -0.3824
 6428TIP3    H140699   2.378   6.210  12.487 -0.8965 -0.9375 -0.5226
 6428TIP3    H240700   2.443   6.287  12.601 -1.3793 -0.0677 -0.8256
 6429TIP3   OH240701   1.986   1.463  16.343  0.0906 -0.3690 -0.0496
 6429TIP3    H140702   1.996   1.414  16.425  0.7753  0.5296  0.4327
 6429TIP3    H240703   1.925   1.411  16.291 -0.1915 -1.0704  0.9449
 6430TIP3   OH240704   1.145   2.441   3.453  0.0406  0.1589  0.4271
 6430TIP3    H140705   1.170   2.521   3.501 -1.8424 -0.1327  2.0037
 6430TIP3    H240706   1.180   2.370   3.506 -0.9157 -0.1376  0.6719
 6431TIP3   OH240707   6.625   3.669  16.045  0.0062  0.2089  0.3626
 6431TIP3    H140708   6.600   3.589  16.091 -0.9390 -0.0309 -0.5206
 6431TIP3    H240709   6.569   3.737  16.082  0.6806  0.4366  0.9833
 6432TIP3   OH240710   3.744   0.052   0.932 -0.0546 -0.0611  0.2987
 6432TIP3    H140711   3.771   0.142   0.913  0.2736 -0.5765 -1.9263
 6432TIP3    H240712   3.649   0.057   0.946  0.0515  0.6904  0.8001
 6433TIP3   OH240713   4.008   4.609  14.529  0.4792  0.2411  0.1978
 6433TIP3    H140714   3.982   4.665  14.602  1.1722  0.9487 -0.0815
 6433TIP3    H240715   3.975   4.655  14.451 -0.1325 -0.4342  0.0429
 6434TIP3   OH240716   6.182   1.973   1.255 -0.2574 -0.1339 -0.2318
 6434TIP3    H140717   6.228   1.935   1.181  1.3069 -0.0352  0.6509
 6434TIP3    H240718   6.134   2.048   1.218  2.4254  1.4271 -0.8181
 6435TIP3   OH240719   1.735   2.948  11.522 -0.2858 -0.2548 -0.1515
 6435TIP3    H140720   1.640   2.943  11.511 -0.2981 -0.9420  0.1687
 6435TIP3    H240721   1.769   2.962  11.433 -0.6581 -0.5419 -0.3418
 6436TIP3   OH240722   0.845   2.710   6.036  0.0022 -0.2069  0.4023
 6436TIP3    H140723   0.880   2.758   6.111 -1.5585 -0.5273  1.3666
 6436TIP3    H240724   0.814   2.627   6.072 -0.3743 -0.5592 -0.6763
 6437TIP3   OH240725   0.550   2.657   1.553 -0.3931 -0.1400  0.5221
 6437TIP3    H140726   0.596   2.732   1.591 -0.3628  1.1503 -1.8600
 6437TIP3    H240727   0.462   2.689   1.534  0.1949  0.0538 -2.3881
 6438TIP3   OH240728   1.218   2.108   3.059 -0.1236  0.0581  0.2586
 6438TIP3    H140729   1.183   2.109   2.970  1.0542  0.7333 -0.2289
 6438TIP3    H240730   1.313   2.110   3.047  0.0454  1.1386  1.5331
 6439TIP3   OH240731   4.860   5.255  14.811 -0.1348  0.6804 -0.0416
 6439TIP3    H140732   4.804   5.282  14.884  0.6701  1.6410  0.2396
 6439TIP3    H240733   4.897   5.171  14.839 -0.5772  0.5792  0.2416
 6440TIP3   OH240734   0.429   4.589  15.228  0.1180 -0.0776  0.1322
 6440TIP3    H140735   0.342   4.604  15.191 -0.2901 -0.6435  0.8358
 6440TIP3    H240736   0.413   4.539  15.308  1.1804 -1.1737 -0.3166
 6441TIP3   OH240737   3.718   0.219   3.841  0.2909  0.2100  1.3142
 6441TIP3    H140738   3.762   0.300   3.813 -1.3091  0.9559  0.8597
 6441TIP3    H240739   3.737   0.157   3.771 -1.0736  1.1556  0.0274
 6442TIP3   OH240740   0.051   0.241  13.258  0.1010 -0.5725  0.2893
 6442TIP3    H140741   0.107   0.311  13.224  0.0751 -0.4102  0.5757
 6442TIP3    H240742  -0.037   0.262  13.225 -0.1552  0.2702  1.4616
 6443TIP3   OH240743   0.469   4.418   2.929 -0.0640  0.0776 -0.5998
 6443TIP3    H140744   0.500   4.344   2.980 -0.4617  0.6132  0.4417
 6443TIP3    H240745   0.478   4.493   2.987 -0.9568  0.6285 -1.1488
 6444TIP3   OH240746   1.567   3.056  14.075  0.6491  0.6899  0.3762
 6444TIP3    H140747   1.530   2.987  14.130  0.7971  0.0607 -0.2993
 6444TIP3    H240748   1.576   3.016  13.988 -0.3810  1.9229 -0.3371
 6445TIP3   OH240749   5.463   6.464  11.579  0.1630  0.3014 -0.4235
 6445TIP3    H140750   5.558   6.476  11.587  0.1982 -0.1003 -0.2154
 6445TIP3    H240751   5.452   6.415  11.497  0.1029  0.7013 -0.6591
 6446TIP3   OH240752   6.709   2.340  10.335 -0.5321  0.5858 -0.1487
 6446TIP3    H140753   6.783   2.288  10.368 -0.6789 -0.3921 -1.2766
 6446TIP3    H240754   6.662   2.280  10.277 -0.3386  2.1689 -2.0473
 6447TIP3   OH240755   1.977   6.219  16.763 -0.3884 -1.1683 -0.1070
 6447TIP3    H140756   2.043   6.165  16.719  0.9708 -1.0223  1.6471
 6447TIP3    H240757   2.027   6.273  16.824 -2.1574 -1.4342  1.6863
 6448TIP3   OH240758   3.836   4.735   1.174 -0.3437  0.0461 -0.1301
 6448TIP3    H140759   3.809   4.820   1.141 -1.1680 -0.0944  0.1683
 6448TIP3    H240760   3.785   4.672   1.124  0.3800 -0.2886 -0.4640
 6449TIP3   OH240761   5.244   4.021  15.509  0.4266 -0.4173  0.4880
 6449TIP3    H140762   5.256   4.116  15.516  3.1490 -0.7234  0.7980
 6449TIP3    H240763   5.284   3.985  15.588  0.8431 -1.9038 -0.3503
 6450TIP3   OH240764   3.468   4.903   5.060 -0.4012  0.7428 -0.3947
 6450TIP3    H140765   3.479   4.840   4.989  0.8321 -0.7825  1.0620
 6450TIP3    H240766   3.455   4.987   5.015  0.5071 -0.1158 -2.4192
 6451TIP3   OH240767   0.753   0.649   4.725 -0.5872  0.1123 -0.2587
 6451TIP3    H140768   0.683   0.590   4.753 -0.0776  0.6179  2.3044
 6451TIP3    H240769   0.779   0.695   4.805  0.9478  1.7757 -1.6417
 6452TIP3   OH240770   1.965   5.849  14.095 -0.0364  0.1835  0.2889
 6452TIP3    H140771   1.979   5.781  14.161  0.4595  0.2369  0.2396
 6452TIP3    H240772   1.965   5.802  14.012  0.0484  0.2075  0.2752
 6453TIP3   OH240773   5.513   1.822  16.898 -0.4466  0.2085  0.2410
 6453TIP3    H140774   5.557   1.809  16.814 -1.0873  2.0288 -0.4314
 6453TIP3    H240775   5.581   1.856  16.956 -0.1841 -0.3153  0.2504
 6454TIP3   OH240776   5.394   5.315   2.687 -0.1692  0.2860 -0.4696
 6454TIP3    H140777   5.393   5.283   2.778 -0.2832  1.8020  0.0854
 6454TIP3    H240778   5.484   5.345   2.673  0.4121 -1.7975 -1.5703
 6455TIP3   OH240779   0.458   1.848  13.424  0.5410  0.1544 -0.2521
 6455TIP3    H140780   0.469   1.864  13.517 -1.8823 -0.5921  0.2468
 6455TIP3    H240781   0.456   1.753  13.416 -0.6130  0.2023 -0.8180
 6456TIP3   OH240782   2.595   3.594   4.391  0.0935 -0.2666 -0.0045
 6456TIP3    H140783   2.669   3.537   4.370  0.7938  0.3554  0.6814
 6456TIP3    H240784   2.532   3.579   4.321  1.2811 -0.1116 -1.1433
 6457TIP3   OH240785   0.921   2.175  14.518  0.1073  0.2221  0.3399
 6457TIP3    H140786   0.833   2.139  14.531 -0.7247  1.8113 -0.5183
 6457TIP3    H240787   0.977   2.099  14.504 -1.1796 -0.8095  0.6374
 6458TIP3   OH240788   0.148   5.757  15.631 -0.2752 -0.3244 -0.0557
 6458TIP3    H140789   0.085   5.807  15.682 -2.7356 -2.0911 -1.1795
 6458TIP3    H240790   0.095   5.695  15.580  2.4340 -3.5051  0.6091
 6459TIP3   OH240791   3.628   1.502   4.281  0.4540  0.3690 -0.0801
 6459TIP3    H140792   3.707   1.554   4.297  1.5065 -0.9994 -0.6288
 6459TIP3    H240793   3.612   1.457   4.364  0.8680 -0.1382 -0.2693
 6460TIP3   OH240794   5.555   2.296  14.335 -0.4094 -0.2187  0.5564
 6460TIP3    H140795   5.459   2.288  14.334 -0.3587 -0.8815 -0.4858
 6460TIP3    H240796   5.586   2.211  14.306  0.4602  0.5234 -0.7585
 6461TIP3   OH240797   1.666   0.829  10.546 -0.1580 -0.2322  0.2563
 6461TIP3    H140798   1.705   0.872  10.622 -3.2440  0.5127  1.5779
 6461TIP3    H240799   1.625   0.900  10.496  0.2169 -0.9386 -1.1072
 6462TIP3   OH240800   5.346   0.428   1.989 -0.2058 -0.3279  0.7045
 6462TIP3    H140801   5.281   0.433   2.059 -0.1941 -1.8186  0.8505
 6462TIP3    H240802   5.365   0.335   1.981  1.3953  0.0143  0.1904
 6463TIP3   OH240803   5.852   0.489   4.017  0.8697 -0.1257  0.0546
 6463TIP3    H140804   5.935   0.499   3.971 -0.0848  0.8555 -1.5239
 6463TIP3    H240805   5.871   0.423   4.085  2.6243 -0.7677 -0.9725
 6464TIP3   OH240806   4.258   0.362   5.649 -0.0012 -0.4013 -0.1342
 6464TIP3    H140807   4.247   0.449   5.612 -0.0942 -1.2468 -2.2719
 6464TIP3    H240808   4.172   0.321   5.642  0.1606 -0.8369  0.3434
 6465TIP3   OH240809   3.153   1.959  14.049 -0.1872  0.4052 -0.0926
 6465TIP3    H140810   3.096   1.884  14.035 -1.8323  1.8337 -1.5730
 6465TIP3    H240811   3.131   1.991  14.136  1.3315 -1.4131  1.0266
 6466TIP3   OH240812   6.680   1.282  12.285 -0.1480 -0.3574  0.2610
 6466TIP3    H140813   6.706   1.202  12.329 -1.9587 -1.5700 -0.7515
 6466TIP3    H240814   6.756   1.306  12.231 -0.3239 -2.6430 -1.1007
 6467TIP3   OH240815   4.364   1.550   0.272  0.1015  0.3596  0.0185
 6467TIP3    H140816   4.294   1.485   0.280  0.6856 -0.2984 -0.0845
 6467TIP3    H240817   4.321   1.629   0.242 -0.7591  0.2615  0.9427
 6468TIP3   OH240818   5.926   4.483   6.055  0.2239  0.6861  0.8726
 6468TIP3    H140819   5.832   4.486   6.040  0.0408  1.5340  2.0280
 6468TIP3    H240820   5.940   4.405   6.109  0.0208  1.1842  1.6561
 6469TIP3   OH240821   0.688   2.774   0.743  0.2368  0.2563 -0.8533
 6469TIP3    H140822   0.605   2.785   0.697 -0.7015 -1.1560  0.4237
 6469TIP3    H240823   0.670   2.801   0.833  0.8330 -1.0312 -0.3155
 6470TIP3   OH240824   1.414   2.137  12.542  0.2286 -0.7163 -0.2403
 6470TIP3    H140825   1.468   2.216  12.546  0.7836 -1.0109 -1.6152
 6470TIP3    H240826   1.391   2.128  12.450  0.5236 -2.3945 -0.1709
 6471TIP3   OH240827   1.765   6.678  14.996 -0.3985 -0.3063  0.2269
 6471TIP3    H140828   1.835   6.744  15.001 -1.5485  0.9888 -0.2863
 6471TIP3    H240829   1.685   6.727  15.012 -1.1111 -2.0099  2.2003
 6472TIP3   OH240830   2.716   4.918   3.333  0.6404  0.4454 -0.1619
 6472TIP3    H140831   2.798   4.875   3.356  1.1298  1.2870 -0.2644
 6472TIP3    H240832   2.653   4.886   3.397  0.9319 -0.5784 -0.3750
 6473TIP3   OH240833   1.477   3.013  11.706 -0.1808  0.1554  0.2414
 6473TIP3    H140834   1.405   3.057  11.661 -0.2031 -0.2604 -0.1406
 6473TIP3    H240835   1.480   2.926  11.667  2.0124  0.8924 -1.4284
 6474TIP3   OH240836   6.395   5.923   4.615  0.8878  0.8250  0.1344
 6474TIP3    H140837   6.490   5.936   4.605  1.3562 -0.7004  2.0114
 6474TIP3    H240838   6.383   5.829   4.602 -0.5505  1.1304 -0.9997
 6475TIP3   OH240839   6.531   4.857  12.927 -0.5143 -0.0052 -0.4483
 6475TIP3    H140840   6.602   4.843  12.865  0.6462 -0.9646  1.0233
 6475TIP3    H240841   6.493   4.770  12.940 -1.5664  0.3918 -0.7405
 6476TIP3   OH240842   5.541   4.066  12.511 -0.7818 -0.5966  0.3679
 6476TIP3    H140843   5.614   4.057  12.572 -0.8135 -1.8646  0.2472
 6476TIP3    H240844   5.469   4.097  12.565  0.1887  2.2215  0.2148
 6477TIP3   OH240845   1.211   0.519   2.249 -0.1722  0.3675  0.2130
 6477TIP3    H140846   1.192   0.510   2.155 -0.4537 -1.9996  0.4457
 6477TIP3    H240847   1.143   0.578   2.281 -0.0990  1.1799 -1.0443
 6478TIP3   OH240848   6.486   0.134  11.632  0.6206  0.2076 -0.3622
 6478TIP3    H140849   6.417   0.080  11.671  1.6789 -1.2470 -0.3764
 6478TIP3    H240850   6.443   0.181  11.561 -0.2445 -1.1502 -0.7811
 6479TIP3   OH240851   4.282   4.073   0.707  0.2649  0.0067  0.0765
 6479TIP3    H140852   4.251   4.016   0.637  1.2139 -2.0861  1.2541
 6479TIP3    H240853   4.376   4.082   0.693  0.1837  1.0715  0.0909
 6480TIP3   OH240854   1.609   0.859  13.445 -0.3285  0.4571  0.5772
 6480TIP3    H140855   1.620   0.931  13.507 -1.7353  0.6909  0.5882
 6480TIP3    H240856   1.555   0.795  13.492  1.6752 -1.0679  0.9136
 6481TIP3   OH240857   0.776   1.056   0.384  0.1535  0.5126 -0.0230
 6481TIP3    H140858   0.694   1.077   0.339  1.0833  0.7396 -1.6726
 6481TIP3    H240859   0.824   1.001   0.323  1.0911  0.0441  1.0824
 6482TIP3   OH240860   6.098   5.054  10.943 -0.3830 -0.2986 -0.6691
 6482TIP3    H140861   6.120   5.023  10.855 -0.1178 -0.4174 -0.5621
 6482TIP3    H240862   6.134   5.143  10.947  0.8032 -0.7782 -0.2180
 6483TIP3   OH240863   5.326   4.490  15.090  0.1921  0.0741 -0.4057
 6483TIP3    H140864   5.250   4.520  15.039 -0.0515 -1.2900 -0.8653
 6483TIP3    H240865   5.395   4.554  15.070 -0.0551 -0.1397 -2.0545
 6484TIP3   OH240866   4.201   5.565  13.339  0.3450  0.3116  0.2911
 6484TIP3    H140867   4.287   5.538  13.372  0.1622 -0.4103  0.2008
 6484TIP3    H240868   4.217   5.589  13.248  0.2213 -1.1039 -0.1166
 6485TIP3   OH240869   4.165   1.148  12.848  0.3467  0.3591  0.3366
 6485TIP3    H140870   4.125   1.218  12.900  0.9857  2.1047 -1.4007
 6485TIP3    H240871   4.257   1.174  12.840  0.5201 -0.5122 -0.6274
 6486TIP3   OH240872   3.506   1.770   4.305  0.2523  0.4148  0.9273
 6486TIP3    H140873   3.521   1.683   4.268 -2.0490 -0.0492  0.9578
 6486TIP3    H240874   3.491   1.755   4.398 -0.7743  0.7480  0.8274
 6487TIP3   OH240875   4.149   6.033  15.461 -0.0844  0.1444  0.3895
 6487TIP3    H140876   4.080   6.020  15.395 -0.4648 -0.8387  0.9575
 6487TIP3    H240877   4.106   6.011  15.544  1.3273 -2.1186  0.6001
 6488TIP3   OH240878   6.185   4.452  14.621 -0.2712  0.7004  0.0714
 6488TIP3    H140879   6.091   4.438  14.635 -0.2692 -0.0714 -0.6206
 6488TIP3    H240880   6.203   4.536  14.665 -1.2107  0.7056  0.4836
 6489TIP3   OH240881   5.894   3.752   4.677 -0.0137 -0.2908 -0.0155
 6489TIP3    H140882   5.852   3.775   4.760 -3.1179  0.0302 -1.4940
 6489TIP3    H240883   5.909   3.657   4.683 -1.3132 -0.4918  0.5535
 6490TIP3   OH240884   2.335   6.754   1.078 -0.2214 -0.1749  0.1448
 6490TIP3    H140885   2.346   6.836   1.128 -1.2518  1.1530 -1.6802
 6490TIP3    H240886   2.251   6.719   1.109 -0.4605  0.2106 -0.0522
 6491TIP3   OH240887   0.680   3.712   5.940  0.3955 -0.1704 -0.7268
 6491TIP3    H140888   0.683   3.639   6.001  0.3551  2.0100  2.0941
 6491TIP3    H240889   0.687   3.790   5.995  2.4393  1.9795 -3.6728
 6492TIP3   OH240890   5.103   0.345  16.792 -0.1473  0.5513  0.6733
 6492TIP3    H140891   5.070   0.257  16.775  1.1135  0.2738 -0.4774
 6492TIP3    H240892   5.036   0.403  16.756 -0.5201  0.0461  0.5383
 6493TIP3   OH240893   0.731   6.239  10.754  0.6580  1.3455  0.8709
 6493TIP3    H140894   0.666   6.172  10.731  0.9032  0.4556  2.6335
 6493TIP3    H240895   0.712   6.312  10.695 -1.6814  0.9566  1.0572
 6494TIP3   OH240896   2.962   1.310  14.120  0.3536 -0.2960 -0.5784
 6494TIP3    H140897   3.057   1.325  14.119  0.1191  1.3176 -1.2218
 6494TIP3    H240898   2.924   1.396  14.107 -1.3551  0.1435  4.8205
 6495TIP3   OH240899   6.365   0.567   4.718 -0.0241 -0.2409  0.4466
 6495TIP3    H140900   6.391   0.594   4.807  0.0431 -1.7585  0.9091
 6495TIP3    H240901   6.342   0.475   4.727 -0.1199 -0.3843 -1.1156
 6496TIP3   OH240902   5.694   4.744   1.567  0.1645  0.2498  0.6198
 6496TIP3    H140903   5.716   4.798   1.643  0.1083  1.2784 -0.0773
 6496TIP3    H240904   5.724   4.795   1.491 -1.2751  0.0072 -0.1540
 6497TIP3   OH240905   3.617   5.234  11.584  0.2151 -0.1088  0.0670
 6497TIP3    H140906   3.623   5.329  11.594 -1.4080 -0.0981  1.2408
 6497TIP3    H240907   3.675   5.199  11.651  0.8489  0.0339 -0.3940
 6498TIP3   OH240908   3.567   0.771  14.055  0.0976 -0.3622 -0.3680
 6498TIP3    H140909   3.523   0.852  14.029  1.2187  0.7534  1.0190
 6498TIP3    H240910   3.617   0.795  14.133  0.9401 -2.2643 -0.2643
 6499TIP3   OH240911   1.481   3.338   6.503 -0.2395 -0.0177 -0.0372
 6499TIP3    H140912   1.415   3.406   6.519  0.3678  0.3965  0.8386
 6499TIP3    H240913   1.563   3.379   6.531  0.3125 -0.7029 -0.6305
 6500TIP3   OH240914   5.043   0.232  15.762 -0.1407 -0.7938  0.5183
 6500TIP3    H140915   5.084   0.247  15.847 -0.1947 -0.1170  0.4301
 6500TIP3    H240916   4.977   0.164  15.779 -0.5173 -0.2851  1.1281
 6501TIP3   OH240917   6.584   5.628  11.802  0.2683  0.2728 -0.3024
 6501TIP3    H140918   6.565   5.546  11.756  0.7796 -1.0015  1.6352
 6501TIP3    H240919   6.504   5.648  11.851  0.5109  0.3275  0.0803
 6502TIP3   OH240920   4.273   1.624  15.015  0.1985 -0.0347  0.6163
 6502TIP3    H140921   4.273   1.594  15.106  1.5157  0.0466  0.6681
 6502TIP3    H240922   4.181   1.628  14.991 -0.1078 -2.2251  1.2381
 6503TIP3   OH240923   1.907   6.719  14.169  0.5116  0.1143 -0.6502
 6503TIP3    H140924   1.955   6.794  14.135  0.3778  0.0341 -1.0322
 6503TIP3    H240925   1.937   6.645  14.116 -0.9160  0.2719 -1.7557
 6504TIP3   OH240926   3.120   0.520  13.041  0.6869  0.1983 -0.1968
 6504TIP3    H140927   3.036   0.526  12.996  0.4828 -1.4386 -0.0724
 6504TIP3    H240928   3.169   0.596  13.009 -0.5539  0.7793 -0.8233
 6505TIP3   OH240929   1.643   3.441   4.469 -0.0020  0.5323 -0.4954
 6505TIP3    H140930   1.631   3.349   4.444 -0.7609  1.0361 -2.0925
 6505TIP3    H240931   1.737   3.450   4.483 -0.0702 -0.8366  1.2583
 6506TIP3   OH240932   2.786   6.594  11.333  0.3387 -0.0689 -0.8315
 6506TIP3    H140933   2.822   6.623  11.249 -0.6558 -2.9838 -2.3682
 6506TIP3    H240934   2.692   6.597  11.321  0.1975 -1.9316 -0.3822
 6507TIP3   OH240935   2.510   1.946  15.552 -0.4270 -0.4473  0.5746
 6507TIP3    H140936   2.426   1.932  15.509  0.6459 -1.6180 -1.3207
 6507TIP3    H240937   2.564   1.872  15.524  1.5871  0.8383  0.8042
 6508TIP3   OH240938   1.806   1.772  13.663  0.2338  0.2739  0.0075
 6508TIP3    H140939   1.832   1.811  13.579 -0.0188  0.9510  0.2415
 6508TIP3    H240940   1.885   1.727  13.693  0.3295  0.0202 -0.5859
 6509TIP3   OH240941   6.577   6.268   1.751 -0.3975 -0.5915  0.2468
 6509TIP3    H140942   6.588   6.312   1.666  0.3812 -0.4777  0.4038
 6509TIP3    H240943   6.659   6.222   1.765  0.1249  0.7213  1.7058
 6510TIP3   OH240944   2.891   2.560   3.631 -0.1527 -0.0291 -0.3489
 6510TIP3    H140945   2.883   2.501   3.705 -1.7785 -1.7530 -1.8001
 6510TIP3    H240946   2.877   2.647   3.667 -4.4227 -1.0462  0.9199
 6511TIP3   OH240947   4.251   5.367  16.960  0.4062  0.1453  0.7307
 6511TIP3    H140948   4.284   5.454  16.940  2.4469 -0.5028  1.0532
 6511TIP3    H240949   4.157   5.372  16.943  0.4031  2.5126  1.1731
 6512TIP3   OH240950   3.908   3.057   4.341 -0.0004 -0.1833 -0.4030
 6512TIP3    H140951   3.946   2.974   4.312  1.2852  0.3741 -0.3714
 6512TIP3    H240952   3.879   3.040   4.431 -1.7576 -1.1988 -1.0950
 6513TIP3   OH240953   0.380   0.323   6.511  0.1329 -0.0383  0.1733
 6513TIP3    H140954   0.449   0.267   6.547 -0.2167 -0.7178 -0.1966
 6513TIP3    H240955   0.418   0.411   6.510  0.4733 -0.1500  1.3518
 6514TIP3   OH240956   0.387   5.912  16.566 -0.3833 -0.4796  0.0016
 6514TIP3    H140957   0.384   5.917  16.470  1.8330 -0.2937 -0.1070
 6514TIP3    H240958   0.475   5.941  16.589 -2.1152  3.9862  2.4376
 6515TIP3   OH240959   2.105   2.952  12.425  0.2265  0.5759 -0.2059
 6515TIP3    H140960   2.036   2.911  12.373  0.2350  0.6452 -0.2726
 6515TIP3    H240961   2.176   2.888  12.425  0.6740  1.0432 -1.2468
 6516TIP3   OH240962   4.895   0.495  10.954 -0.3746 -0.0625  0.1466
 6516TIP3    H140963   4.822   0.470  10.898 -0.1273 -0.3695 -0.0375
 6516TIP3    H240964   4.883   0.589  10.968 -1.8571 -0.4239  1.6388
 6517TIP3   OH240965   5.913   2.283  12.749 -0.1373 -0.0041 -0.4520
 6517TIP3    H140966   5.837   2.232  12.722  0.8795 -2.2251  0.6433
 6517TIP3    H240967   5.882   2.337  12.821 -1.0996  0.5620 -1.2622
 6518TIP3   OH240968   6.712   1.107  16.866  0.1311 -0.2411 -0.2727
 6518TIP3    H140969   6.643   1.072  16.923  1.0318 -1.5810  0.0448
 6518TIP3    H240970   6.793   1.094  16.915  0.5886  1.8452 -0.3954
 6519TIP3   OH240971   2.582   5.879  12.240 -0.3682  0.1615  0.4942
 6519TIP3    H140972   2.548   5.831  12.164 -0.4209  1.4144 -0.3022
 6519TIP3    H240973   2.509   5.934  12.267  0.2493  1.1190  0.2570
 6520TIP3   OH240974   4.464   0.686  12.199  0.6444  0.0806 -0.1581
 6520TIP3    H140975   4.416   0.647  12.127 -2.1178  1.1665  0.9560
 6520TIP3    H240976   4.488   0.773  12.168  2.6328 -0.6894 -0.9522
 6521TIP3   OH240977   2.857   6.608  12.092 -0.4734  0.1252 -0.3450
 6521TIP3    H140978   2.878   6.655  12.173  0.1024 -0.7272  0.0143
 6521TIP3    H240979   2.938   6.607  12.042 -0.2799 -1.0567 -0.0428
 6522TIP3   OH240980   2.413   5.486  12.611 -0.0070 -0.0199 -0.4136
 6522TIP3    H140981   2.502   5.496  12.577 -0.3906  1.1302 -1.1356
 6522TIP3    H240982   2.423   5.489  12.706  0.5029  2.6593 -0.4819
 6523TIP3   OH240983   4.005   3.375  16.794 -0.3281 -0.0023  0.1938
 6523TIP3    H140984   3.985   3.442  16.860  0.2290  1.7586 -1.3072
 6523TIP3    H240985   4.101   3.373  16.791 -0.3428  0.3991 -0.9634
 6524TIP3   OH240986   3.381   1.824  15.602  0.1275  0.5362  0.7059
 6524TIP3    H140987   3.374   1.896  15.664  0.2385  1.1825 -0.0171
 6524TIP3    H240988   3.465   1.838  15.558 -0.5798  0.9106 -0.5864
 6525TIP3   OH240989   0.195   3.819  16.909  0.0596 -0.6865  0.1239
 6525TIP3    H140990   0.290   3.807  16.904 -0.0293 -1.4132  0.1598
 6525TIP3    H240991   0.183   3.914  16.901  0.7881 -0.5855  0.1429
 6526TIP3   OH240992   2.874   0.111   1.718 -0.6913 -0.1039 -0.2807
 6526TIP3    H140993   2.951   0.168   1.723 -0.4674 -0.3061 -1.2234
 6526TIP3    H240994   2.910   0.023   1.709 -0.9967 -0.0873 -1.9511
 6527TIP3   OH240995   3.235   5.046   0.205 -0.1463  0.5361  0.4241
 6527TIP3    H140996   3.288   5.060   0.126 -0.1794  1.1484  0.5042
 6527TIP3    H240997   3.299   5.030   0.274 -0.1377 -3.2907 -0.2625
 6528TIP3   OH240998   2.661   3.891   0.871  0.1611  0.7180 -0.5237
 6528TIP3    H140999   2.647   3.909   0.964 -0.6311  2.5306 -0.9581
 6528TIP3    H241000   2.751   3.921   0.854  0.2171  0.6233 -0.3911
 6529TIP3   OH241001   4.600   3.001   1.090  0.0834 -0.0901  0.0613
 6529TIP3    H141002   4.623   2.923   1.141  0.3240 -0.5088 -0.6740
 6529TIP3    H241003   4.541   3.050   1.147  1.2140  0.0108  1.1958
 6530TIP3   OH241004   2.078   1.980  16.329  0.3799 -0.0132  0.2580
 6530TIP3    H141005   2.129   1.899  16.333  0.2556 -0.0632  1.0726
 6530TIP3    H241006   1.987   1.951  16.320  0.4389  0.0656 -0.6621
 6531TIP3   OH241007   0.571   3.087   0.607  0.4894 -0.3308  0.0459
 6531TIP3    H141008   0.550   3.047   0.522 -0.2698 -0.5782  0.3402
 6531TIP3    H241009   0.498   3.146   0.624  0.6418 -0.2769  0.5249
 6532TIP3   OH241010   2.452   0.400   4.180  0.0911  0.6276  0.2629
 6532TIP3    H141011   2.532   0.398   4.234  0.6693 -0.0345 -0.5930
 6532TIP3    H241012   2.433   0.308   4.162  0.5480  0.8482 -1.5499
 6533TIP3   OH241013   6.252   3.510   2.834  0.2033  0.0969 -0.0234
 6533TIP3    H141014   6.242   3.577   2.766 -0.6366 -0.1593 -0.1607
 6533TIP3    H241015   6.273   3.559   2.913 -0.6813  0.5500 -0.0655
 6534TIP3   OH241016   2.988   3.303  12.378  0.0548  0.3307  0.0409
 6534TIP3    H141017   2.984   3.399  12.376 -0.4572  0.3065 -0.1671
 6534TIP3    H241018   2.941   3.276  12.299  0.9258 -0.0734 -0.3555
 6535TIP3   OH241019   2.691   4.944  13.150  0.1456  0.1022  0.4687
 6535TIP3    H141020   2.664   5.017  13.094 -1.5688 -0.6138  0.2771
 6535TIP3    H241021   2.683   4.867  13.093  3.0229 -0.1712  0.3263
 6536TIP3   OH241022   4.491   3.030   0.277  0.1304  0.0033 -0.0177
 6536TIP3    H141023   4.484   3.065   0.188 -0.2894 -2.1148 -0.8756
 6536TIP3    H241024   4.516   2.938   0.265  0.9380 -0.1112  2.0989
 6537TIP3   OH241025   3.561   1.680   6.089  0.0424  0.2895  0.7504
 6537TIP3    H141026   3.539   1.772   6.074 -0.3198  0.3755  1.7307
 6537TIP3    H241027   3.652   1.672   6.061  0.3917  1.1831  1.5882
 6538TIP3   OH241028   1.996   2.232   2.903 -0.1686  0.3208  0.1870
 6538TIP3    H141029   2.017   2.189   2.820  0.1507 -0.4555  0.6578
 6538TIP3    H241030   2.031   2.321   2.892  3.2907 -0.8020  0.8088
 6539TIP3   OH241031   3.736   2.758   0.890  0.4271 -0.5399  0.0611
 6539TIP3    H141032   3.717   2.664   0.890  2.1258 -0.9291  0.9608
 6539TIP3    H241033   3.830   2.764   0.873 -0.0994  1.1835 -2.7997
 6540TIP3   OH241034   1.178   0.626  12.575  0.9279  0.3199  0.0796
 6540TIP3    H141035   1.176   0.538  12.613  1.6824  1.3009  2.6481
 6540TIP3    H241036   1.094   0.636  12.530 -0.3730 -0.7711  2.1300
 6541TIP3   OH241037   6.676   3.797  15.759  0.1522 -0.2661 -0.4252
 6541TIP3    H141038   6.641   3.761  15.841 -1.4219  0.0882 -0.9180
 6541TIP3    H241039   6.727   3.874  15.787 -0.6123  0.0235  0.2009
 6542TIP3   OH241040   4.021   4.956   2.670  0.2859  0.5662 -0.5424
 6542TIP3    H141041   3.984   5.025   2.725 -0.8782  1.1058 -1.9366
 6542TIP3    H241042   3.968   4.879   2.689  1.8655 -0.1436  1.3459
 6543TIP3   OH241043   3.156   5.980  13.312 -0.2640 -0.5906  0.1643
 6543TIP3    H141044   3.139   6.012  13.223 -0.7412  0.3995  0.5877
 6543TIP3    H241045   3.251   5.972  13.317 -0.1738  0.1195 -0.1928
 6544TIP3   OH241046   0.722   4.602   5.923 -0.1280  0.1065 -0.1755
 6544TIP3    H141047   0.697   4.550   5.999 -0.7424  0.6130 -0.0270
 6544TIP3    H241048   0.801   4.648   5.949  1.7005 -2.3315 -1.0018
 6545TIP3   OH241049   4.089   4.912   1.525  0.1295 -0.7321  0.2231
 6545TIP3    H141050   4.178   4.932   1.497 -0.4617  0.4115 -1.0403
 6545TIP3    H241051   4.037   4.987   1.493 -1.0108 -0.4269  2.5482
 6546TIP3   OH241052   2.066   5.903  15.858  0.1334  0.4202 -0.1662
 6546TIP3    H141053   2.075   5.852  15.938  1.0167 -1.8959 -1.6221
 6546TIP3    H241054   1.988   5.866  15.815  0.4190  0.6997 -0.9510
 6547TIP3   OH241055   5.125   3.323   4.082  0.0304 -0.1207  0.2386
 6547TIP3    H141056   5.168   3.240   4.062  1.4711  0.5452  0.4648
 6547TIP3    H241057   5.176   3.389   4.034  0.3996  0.9081  1.9561
 6548TIP3   OH241058   0.411   0.879   2.582 -0.3208  0.1019  0.1758
 6548TIP3    H141059   0.319   0.874   2.558 -0.0135  0.8583 -1.2566
 6548TIP3    H241060   0.445   0.790   2.569 -1.2849 -0.7619  2.8471
 6549TIP3   OH241061   0.363   5.286  16.847  0.7890 -0.6375  0.1881
 6549TIP3    H141062   0.300   5.319  16.783 -0.6094  0.3983  2.0025
 6549TIP3    H241063   0.314   5.220  16.897  0.8382  0.6733  2.0804
 6550TIP3   OH241064   4.125   5.005  10.781 -0.7674  0.1038  0.6286
 6550TIP3    H141065   4.184   5.055  10.725 -2.4629 -0.3326 -1.7051
 6550TIP3    H241066   4.182   4.948  10.832  0.8700  0.3858 -0.8130
 6551TIP3   OH241067   3.231   3.901  12.137  0.3790 -0.4332  0.2511
 6551TIP3    H141068   3.287   3.944  12.202  0.3986 -0.8552  0.5170
 6551TIP3    H241069   3.198   3.972  12.083 -1.5757  0.2689  2.1900
 6552TIP3   OH241070   2.284   5.111  10.977 -0.0649 -0.0274 -0.2611
 6552TIP3    H141071   2.318   5.149  10.896  1.5010  1.3815  0.9817
 6552TIP3    H241072   2.330   5.028  10.986 -0.3496 -0.2573 -0.8647
 6553TIP3   OH241073   1.191   2.383   3.131 -0.4244 -0.0915  0.0444
 6553TIP3    H141074   1.181   2.288   3.140  0.3652 -0.0542  1.5977
 6553TIP3    H241075   1.266   2.405   3.186  0.2442  1.2728 -1.3641
 6554TIP3   OH241076   5.840   4.873   1.393 -0.2722  0.0103 -0.0310
 6554TIP3    H141077   5.926   4.834   1.408  0.2873  1.3979  0.5104
 6554TIP3    H241078   5.857   4.952   1.343 -1.3315 -0.1394 -0.6593
 6555TIP3   OH241079   2.031   2.644   4.257 -0.1235  0.6821 -0.1550
 6555TIP3    H141080   2.063   2.574   4.315 -1.6764 -0.2333 -0.3716
 6555TIP3    H241081   2.006   2.714   4.317  1.2991  1.0389  0.0706
 6556TIP3   OH241082   3.750   3.146   3.337  0.0861  0.9611  0.0393
 6556TIP3    H141083   3.682   3.211   3.319 -0.3751  0.8762  1.3307
 6556TIP3    H241084   3.755   3.094   3.257 -0.3471  1.8658 -0.5968
 6557TIP3   OH241085   2.577   6.680  13.159  0.0416 -0.0832  0.5323
 6557TIP3    H141086   2.550   6.619  13.091 -0.2187  0.6679 -0.0567
 6557TIP3    H241087   2.671   6.665  13.170  0.8171  1.8773 -2.2503
 6558TIP3   OH241088   3.589   0.029  11.754 -0.4675 -0.1677 -0.0984
 6558TIP3    H141089   3.526   0.058  11.821 -0.0016  0.3711  0.1155
 6558TIP3    H241090   3.675   0.044  11.794 -0.1926 -0.3895 -0.5961
 6559TIP3   OH241091   2.357   4.737  11.849 -0.5113  0.5568  0.3762
 6559TIP3    H141092   2.441   4.693  11.861 -0.4976  0.4709 -0.0411
 6559TIP3    H241093   2.352   4.798  11.923 -0.5060 -0.0978  0.9229
 6560TIP3   OH241094   3.727   5.074   0.914 -0.1350  0.6712  0.4319
 6560TIP3    H141095   3.647   5.039   0.874 -1.0461  2.0188  1.0021
 6560TIP3    H241096   3.797   5.050   0.853 -1.1357  0.4333 -0.6535
 6561TIP3   OH241097   0.253   2.981   0.606 -0.0361  0.6423 -0.6042
 6561TIP3    H141098   0.264   3.074   0.626 -0.8580  0.9396 -1.4790
 6561TIP3    H241099   0.178   2.954   0.660 -1.7082  1.2394 -2.5001
 6562TIP3   OH241100   2.977   0.660  11.668  0.4459  0.0069 -0.5911
 6562TIP3    H141101   3.032   0.723  11.714  1.4733 -0.7938 -0.6838
 6562TIP3    H241102   3.007   0.664  11.577  0.4097 -0.4833 -0.6301
 6563TIP3   OH241103   0.458   1.367   5.814  0.3085 -0.1421 -0.0767
 6563TIP3    H141104   0.451   1.377   5.908  2.3463  0.8465  0.0398
 6563TIP3    H241105   0.419   1.281   5.795 -3.0469  0.9677  1.1590
 6564TIP3   OH241106   4.375   2.160  14.639 -0.7014  0.0371 -0.3885
 6564TIP3    H141107   4.354   2.253  14.647  0.4617  0.4901 -2.1438
 6564TIP3    H241108   4.468   2.157  14.619 -0.4556 -1.5919  0.7272
 6565TIP3   OH241109   5.808   0.358  10.998  0.0906 -0.2064  0.8691
 6565TIP3    H141110   5.875   0.306  10.953 -0.4885 -0.9447  0.8478
 6565TIP3    H241111   5.857   0.431  11.036  0.9252 -0.7649  0.9081
 6566TIP3   OH241112   4.459   4.201   2.315 -0.3206  0.1435  0.2309
 6566TIP3    H141113   4.512   4.280   2.311 -1.8097  1.2011  0.4606
 6566TIP3    H241114   4.458   4.175   2.407 -2.0835  1.5169  0.6537
 6567TIP3   OH241115   1.253   5.066   2.141  0.4057  0.5766 -0.3882
 6567TIP3    H141116   1.159   5.085   2.135  0.1344 -0.4971  0.1176
 6567TIP3    H241117   1.263   5.023   2.227  1.4426  1.1356 -0.2145
 6568TIP3   OH241118   1.094   1.620   4.543 -0.2169  0.2304 -0.2339
 6568TIP3    H141119   1.034   1.575   4.483 -0.2128  0.2884 -0.2817
 6568TIP3    H241120   1.093   1.711   4.514 -1.0677  0.4874  0.5548
 6569TIP3   OH241121   5.382   3.263  16.819  0.1233 -0.0955  0.3153
 6569TIP3    H141122   5.385   3.223  16.905  1.1569 -0.0424  0.3161
 6569TIP3    H241123   5.467   3.243  16.780 -0.8959 -1.4605 -1.3101
 6570TIP3   OH241124   6.638   2.017  12.432  0.1744 -0.0155 -0.5720
 6570TIP3    H141125   6.668   1.984  12.347 -1.1878  1.2683 -1.6013
 6570TIP3    H241126   6.669   2.108  12.434  1.2210 -0.3775  0.8595
 6571TIP3   OH241127   4.875   2.153  10.994 -0.0189  0.3861 -0.3359
 6571TIP3    H141128   4.884   2.121  11.085  1.8452 -1.7413 -1.1514
 6571TIP3    H241129   4.868   2.248  11.003 -1.3478  0.1509  2.0976
 6572TIP3   OH241130   4.566   0.111  11.883  0.5439 -0.1847 -0.2635
 6572TIP3    H141131   4.658   0.110  11.858  0.9892 -0.7353  1.3180
 6572TIP3    H241132   4.565   0.149  11.971 -0.6470 -0.9744  0.0826
 6573TIP3   OH241133   2.981   3.811   0.181 -0.1180 -0.3402  0.5093
 6573TIP3    H141134   2.965   3.717   0.171  0.6449 -0.5300  0.9404
 6573TIP3    H241135   2.934   3.851   0.108  2.1322 -1.3287 -1.6549
 6574TIP3   OH241136   3.896   1.701   2.591  0.2446 -0.5333 -0.1231
 6574TIP3    H141137   3.910   1.751   2.511 -1.4659  0.6624  0.2666
 6574TIP3    H241138   3.892   1.610   2.562 -0.3748 -0.1207 -1.4041
 6575TIP3   OH241139   0.529   0.611  15.632 -0.3639  0.1114  0.5511
 6575TIP3    H141140   0.461   0.554  15.598  1.9175 -1.6618 -1.4218
 6575TIP3    H241141   0.598   0.551  15.661  0.4344  1.8137  2.4395
 6576TIP3   OH241142   4.724   1.195  16.951 -0.7203 -0.2651 -0.2656
 6576TIP3    H141143   4.654   1.236  17.002 -0.0626  1.2816 -0.5415
 6576TIP3    H241144   4.801   1.198  17.008 -0.6648 -1.1689 -0.2815
 6577TIP3   OH241145   1.881   5.870   2.740  0.2296 -0.3480  0.1391
 6577TIP3    H141146   1.840   5.949   2.776  2.3504  1.1306 -0.4824
 6577TIP3    H241147   1.943   5.842   2.807  0.4321 -0.7102 -0.1973
 6578TIP3   OH241148   5.796   4.024  12.687  0.2066  0.7188  0.4110
 6578TIP3    H141149   5.843   4.062  12.613  0.0808  1.7702  0.8610
 6578TIP3    H241150   5.847   4.051  12.764  0.7213 -0.9245  0.6918
 6579TIP3   OH241151   4.140   1.440  13.510  0.3004 -0.0402 -0.6087
 6579TIP3    H141152   4.132   1.516  13.452  0.2607 -0.7295 -1.5218
 6579TIP3    H241153   4.050   1.414  13.528  0.3117  0.2251 -0.1660
 6580TIP3   OH241154   6.715   0.927   2.302  0.1926 -0.0241 -0.2639
 6580TIP3    H141155   6.793   0.971   2.268 -0.5044  0.7725 -0.8720
 6580TIP3    H241156   6.655   0.924   2.227 -1.0852  1.0565  0.6725
 6581TIP3   OH241157   3.538   0.569  13.246 -0.0567 -0.1164  0.4166
 6581TIP3    H141158   3.627   0.540  13.264 -0.0066 -0.3123 -0.1317
 6581TIP3    H241159   3.549   0.650  13.195 -0.1510 -1.5035 -1.9272
 6582TIP3   OH241160   1.395   1.973  15.386 -0.0793 -0.1235  0.1314
 6582TIP3    H141161   1.462   1.934  15.441 -0.6517  1.2639  1.8921
 6582TIP3    H241162   1.313   1.959  15.433 -0.8952 -0.7313 -1.3904
 6583TIP3   OH241163   6.740   3.754  16.331  0.7229 -0.1377  0.4590
 6583TIP3    H141164   6.788   3.678  16.364  1.7415 -0.1085 -0.8438
 6583TIP3    H241165   6.654   3.720  16.309  0.9452 -0.7673  0.5391
 6584TIP3   OH241166   4.682   3.362   1.666 -0.8026  0.6477 -0.0147
 6584TIP3    H141167   4.598   3.318   1.655 -1.4800  1.7787  0.4070
 6584TIP3    H241168   4.679   3.397   1.756 -0.2473  1.4192 -0.2831
 6585TIP3   OH241169   2.111   1.856   4.580  0.2104 -0.5110  0.7064
 6585TIP3    H141170   2.042   1.790   4.578 -0.7506  0.3630  2.4406
 6585TIP3    H241171   2.067   1.937   4.606  1.3173  0.9114 -1.5354
 6586TIP3   OH241172   5.806   2.268  11.713  0.3131  0.2273 -0.2069
 6586TIP3    H141173   5.870   2.271  11.642  0.2423  0.9838 -0.2398
 6586TIP3    H241174   5.724   2.245  11.670  0.8485 -2.4866  0.0491
 6587TIP3   OH241175   4.201   3.399  15.943  0.2383  0.5039  0.0698
 6587TIP3    H141176   4.242   3.485  15.957 -1.9918  1.6894 -0.0783
 6587TIP3    H241177   4.154   3.408  15.861  0.4944 -1.1265 -0.2876
 6588TIP3   OH241178   4.364   5.190  10.702  0.0833 -0.0398  0.2163
 6588TIP3    H141179   4.391   5.101  10.677  3.4599  1.0263 -0.4223
 6588TIP3    H241180   4.438   5.245  10.677 -2.8002  3.3974 -1.6179
 6589TIP3   OH241181   6.545   0.576  15.334 -0.3007 -0.0276 -0.3469
 6589TIP3    H141182   6.553   0.533  15.249  0.4143  0.0132 -0.3048
 6589TIP3    H241183   6.633   0.608  15.354 -0.1626 -1.1521  0.9899
 6590TIP3   OH241184   1.010   2.171  11.998 -0.4117  0.2061  0.9127
 6590TIP3    H141185   1.016   2.239  12.065 -0.0534  0.5199  0.5707
 6590TIP3    H241186   0.916   2.159  11.985 -0.4801  0.6543  0.9602
 6591TIP3   OH241187   4.752   5.859   0.052  0.0195  0.0446 -0.3744
 6591TIP3    H141188   4.746   5.937   0.107 -1.5513  1.2959 -2.1921
 6591TIP3    H241189   4.682   5.802   0.084 -0.2291  0.3257 -0.4121
 6592TIP3   OH241190   0.546   3.871   5.169 -0.0745 -0.1342  0.6357
 6592TIP3    H141191   0.554   3.885   5.264  1.2771 -0.2749  0.5576
 6592TIP3    H241192   0.592   3.788   5.153  0.5013  0.3507 -0.2713
 6593TIP3   OH241193   1.511   0.594  13.122  0.1250 -0.2501 -0.4367
 6593TIP3    H141194   1.577   0.528  13.098  1.3872  1.0555 -0.7134
 6593TIP3    H241195   1.492   0.639  13.039  1.0951  1.2871  0.1328
 6594TIP3   OH241196   5.857   4.540  12.478  0.1490  0.1726 -0.3779
 6594TIP3    H141197   5.942   4.509  12.508 -0.1335 -0.1697  0.0857
 6594TIP3    H241198   5.849   4.627  12.517  0.6300  0.5399 -1.0855
 6595TIP3   OH241199   1.971   4.806  14.426  0.0910  0.0202 -0.3721
 6595TIP3    H141200   2.000   4.773  14.511 -0.0724  0.2729 -0.2181
 6595TIP3    H241201   2.037   4.774  14.365  0.1300 -0.2898 -0.1735
 6596TIP3   OH241202   6.137   2.908   0.194 -0.2346 -0.1148 -0.0570
 6596TIP3    H141203   6.176   2.985   0.234 -0.4137 -0.7048  1.3029
 6596TIP3    H241204   6.148   2.921   0.100  1.3882  0.6959  0.2202
 6597TIP3   OH241205   0.473   4.296   6.023 -0.5391  0.5264  0.0510
 6597TIP3    H141206   0.545   4.350   6.055 -0.0071 -0.2299  0.1689
 6597TIP3    H241207   0.488   4.288   5.928  1.5704 -2.4470  0.4921
 6598TIP3   OH241208   3.383   4.377  13.357 -0.6485  0.2239 -0.3063
 6598TIP3    H141209   3.303   4.416  13.393 -1.6622 -1.9249 -0.0201
 6598TIP3    H241210   3.381   4.286  13.389 -0.5525 -1.2710 -4.0612
 6599TIP3   OH241211   0.696   6.390   5.343 -0.4040 -0.0763 -0.3626
 6599TIP3    H141212   0.689   6.385   5.438 -1.2514  3.3171 -0.1426
 6599TIP3    H241213   0.782   6.352   5.323 -0.2222 -0.8589  1.7333
 6600TIP3   OH241214   2.742   3.454  13.780 -0.9317  0.5612  0.4881
 6600TIP3    H141215   2.777   3.488  13.698 -0.4414  1.4905  1.0712
 6600TIP3    H241216   2.764   3.361  13.778 -0.1129  0.7513 -0.0243
 6601TIP3   OH241217   4.432   4.155   3.106  0.1627 -0.7662 -0.1115
 6601TIP3    H141218   4.391   4.074   3.137  0.6865 -0.7691  0.6195
 6601TIP3    H241219   4.500   4.173   3.171  1.0428 -0.5429 -1.0670
 6602TIP3   OH241220   1.055   0.592  11.282 -0.3232  0.4674  0.3426
 6602TIP3    H141221   1.009   0.544  11.351  0.8537 -1.6173 -0.2394
 6602TIP3    H241222   1.047   0.536  11.205  1.6728  0.8450 -0.1998
 6603TIP3   OH241223   4.190   5.983  14.204 -0.3236 -0.1487  0.2983
 6603TIP3    H141224   4.127   5.913  14.221 -1.1727  0.5874  0.2338
 6603TIP3    H241225   4.137   6.055  14.171  0.6246  0.3052 -0.2725
 6604TIP3   OH241226   5.399   3.823   0.360  0.2458  0.4285 -0.0833
 6604TIP3    H141227   5.358   3.737   0.374  1.0582 -0.3373 -2.0571
 6604TIP3    H241228   5.401   3.863   0.447 -0.8356 -1.2392  0.7570
 6605TIP3   OH241229   3.151   3.196  11.749  0.2824 -0.0293 -0.1593
 6605TIP3    H141230   3.086   3.255  11.710  0.2073  0.1356  0.2071
 6605TIP3    H241231   3.160   3.227  11.839 -1.7020 -2.1636  0.8645
 6606TIP3   OH241232   6.498   5.447   2.188 -0.3180 -0.1381 -0.5283
 6606TIP3    H141233   6.533   5.417   2.104  1.2977 -0.6496  0.2886
 6606TIP3    H241234   6.459   5.368   2.226 -1.5992  0.2229 -1.0152
 6607TIP3   OH241235   5.972   1.861   2.007 -0.3940 -0.1881  0.0504
 6607TIP3    H141236   5.997   1.952   1.996  1.2997 -0.4261  1.3808
 6607TIP3    H241237   5.913   1.861   2.083 -0.7913 -0.1422 -0.2586
 6608TIP3   OH241238   3.801   3.992  15.802 -0.5555  0.2594  0.7358
 6608TIP3    H141239   3.796   3.913  15.855 -0.7589 -0.9178 -0.9579
 6608TIP3    H241240   3.871   4.043  15.841 -1.6015  0.1010  2.9412
 6609TIP3   OH241241   3.011   4.717  14.524 -0.3442  0.6962  0.3183
 6609TIP3    H141242   3.052   4.789  14.476  0.9570 -0.9203 -1.1093
 6609TIP3    H241243   3.081   4.681  14.578 -0.8465  0.1871  0.6409
 6610TIP3   OH241244   2.319   3.408   5.110 -0.1315 -1.0164 -0.3728
 6610TIP3    H141245   2.227   3.414   5.132  0.5197  1.6965  2.2585
 6610TIP3    H241246   2.329   3.321   5.072 -3.4620 -1.9651  0.6052
 6611TIP3   OH241247   4.627   2.716   5.648 -0.5137  0.1709 -0.1041
 6611TIP3    H141248   4.703   2.660   5.632 -1.6610 -1.4317 -0.1843
 6611TIP3    H241249   4.661   2.805   5.642  1.3395 -0.5047 -0.1695
 6612TIP3   OH241250   1.417   5.847   2.527  0.1267 -0.0295  0.4688
 6612TIP3    H141251   1.512   5.838   2.535  0.0984  0.0259  0.9583
 6612TIP3    H241252   1.386   5.847   2.618 -0.5921 -2.6778  0.3115
 6613TIP3   OH241253   2.777   5.379  10.758  0.2946  0.0506  0.2138
 6613TIP3    H141254   2.762   5.302  10.812 -1.1201  0.2460  0.1183
 6613TIP3    H241255   2.696   5.391  10.709  0.6242  1.3964 -0.0358
 6614TIP3   OH241256   3.019   1.537   2.513  0.5485 -0.2499  0.0363
 6614TIP3    H141257   2.935   1.581   2.507 -0.5489 -2.2996 -0.4314
 6614TIP3    H241258   3.042   1.516   2.423  0.6720 -1.2699  0.2955
 6615TIP3   OH241259   4.905   4.367  15.872  0.8105  0.1797 -0.1155
 6615TIP3    H141260   4.820   4.411  15.885  0.2697 -0.6545 -0.7451
 6615TIP3    H241261   4.935   4.397  15.787  0.3084 -0.8519 -0.6729
 6616TIP3   OH241262   6.369   4.158   0.164 -0.6894 -0.3674  0.1003
 6616TIP3    H141263   6.458   4.143   0.132 -1.0848  0.4729 -1.4786
 6616TIP3    H241264   6.332   4.071   0.173 -0.5314 -0.6522 -1.7334
 6617TIP3   OH241265   0.758   5.965  15.448 -0.3464 -0.2704 -0.3801
 6617TIP3    H141266   0.810   5.886  15.433 -1.1383 -0.9849  0.5059
 6617TIP3    H241267   0.757   6.010  15.364  1.3654 -0.4344 -0.5271
 6618TIP3   OH241268   0.929   3.453  10.875  0.2398  0.0167  0.2287
 6618TIP3    H141269   0.930   3.382  10.811 -0.9739  0.8473 -0.7643
 6618TIP3    H241270   1.000   3.511  10.849 -1.0413  1.0233 -1.2322
 6619TIP3   OH241271   3.770   3.542  12.180 -0.0247  0.6320 -0.0429
 6619TIP3    H141272   3.703   3.474  12.193  0.3572 -0.1518 -1.8011
 6619TIP3    H241273   3.834   3.501  12.122  2.1676  1.2665  1.7946
 6620TIP3   OH241274   4.270   4.254   0.242 -0.1987  0.5721  0.2050
 6620TIP3    H141275   4.361   4.275   0.263  0.1794  0.4688 -1.2231
 6620TIP3    H241276   4.275   4.193   0.169 -1.4138  0.0272  0.5430
 6621TIP3   OH241277   1.257   0.953   3.521  0.4796  0.0825  0.7950
 6621TIP3    H141278   1.247   0.924   3.611 -0.0113 -0.3207  0.6137
 6621TIP3    H241279   1.180   0.919   3.476  0.0071  1.4663  0.5162
 6622TIP3   OH241280   5.510   3.604  13.356 -0.7713  0.0059  0.5174
 6622TIP3    H141281   5.514   3.515  13.322 -0.6905  0.0544  0.3997
 6622TIP3    H241282   5.421   3.612  13.392 -0.4834 -0.4215  1.3611
 6623TIP3   OH241283   5.501   3.220   5.791  0.2786 -0.0435  0.4753
 6623TIP3    H141284   5.520   3.277   5.866 -0.2479 -0.5868  1.0322
 6623TIP3    H241285   5.406   3.228   5.778  0.2707 -0.4518  0.2731
 6624TIP3   OH241286   3.572   1.868  13.600 -0.1663  0.8466 -0.1268
 6624TIP3    H141287   3.631   1.801  13.636 -0.6654 -0.2938 -1.3637
 6624TIP3    H241288   3.595   1.872  13.507 -2.7445 -0.4456 -0.9018
 6625TIP3   OH241289   2.895   2.409   1.918 -0.1527  0.1255 -0.5298
 6625TIP3    H141290   2.810   2.449   1.902 -1.6449 -2.1233  1.0820
 6625TIP3    H241291   2.921   2.373   1.833 -0.6250  1.1549 -1.1214
 6626TIP3   OH241292   2.538   1.897   4.865 -0.0065 -0.2917  0.4998
 6626TIP3    H141293   2.484   1.890   4.944  1.3112 -1.0317  1.3642
 6626TIP3    H241294   2.576   1.811   4.854  0.4718  0.0306 -0.5013
 6627TIP3   OH241295   0.683   3.138  13.862 -0.0104 -0.2417  0.1801
 6627TIP3    H141296   0.729   3.124  13.779 -0.6261  0.1504 -0.2330
 6627TIP3    H241297   0.620   3.066  13.866  0.8491 -0.9816  0.9124
 6628TIP3   OH241298   3.684   3.688   5.808 -0.1527  0.4175  0.7111
 6628TIP3    H141299   3.712   3.601   5.837 -1.8912 -0.3094  0.2973
 6628TIP3    H241300   3.594   3.696   5.838 -0.2277  1.8396  0.1832
 6629TIP3   OH241301   5.739   3.255  13.058 -0.1434  0.3832  0.2453
 6629TIP3    H141302   5.775   3.167  13.042 -0.2209  0.9124 -4.0808
 6629TIP3    H241303   5.648   3.238  13.084  0.2904 -0.7922  1.1157
 6630TIP3   OH241304   1.215   0.387  15.779  0.7376 -0.4788 -0.0147
 6630TIP3    H141305   1.290   0.328  15.787 -0.6596 -2.2812  0.4962
 6630TIP3    H241306   1.172   0.359  15.698 -0.3329 -0.6837  0.6035
 6631TIP3   OH241307   0.777   2.687  11.765  0.2756  0.0228  0.2416
 6631TIP3    H141308   0.766   2.619  11.832  0.8592 -1.0397 -0.7109
 6631TIP3    H241309   0.858   2.731  11.789  0.1353  0.0846  0.6076
 6632TIP3   OH241310   1.289   4.118   4.670  0.2648 -0.1712 -0.2177
 6632TIP3    H141311   1.298   4.189   4.606 -0.9491  2.8969  2.7457
 6632TIP3    H241312   1.379   4.095   4.692  0.6915  0.2178 -1.4202
 6633TIP3   OH241313   2.524   5.028   1.848  0.0074  0.4712  0.6923
 6633TIP3    H141314   2.609   5.012   1.888  0.2514 -0.8797 -0.3097
 6633TIP3    H241315   2.522   5.123   1.831  1.8794  0.3337 -0.5115
 6634TIP3   OH241316   2.002   3.404  14.317 -0.2397 -0.0138  0.3985
 6634TIP3    H141317   2.074   3.356  14.278  0.0109 -0.4625  1.3772
 6634TIP3    H241318   1.926   3.385  14.262  0.2914  0.1239 -0.3916
 6635TIP3   OH241319   5.498   5.006  16.584 -0.4119 -0.1261 -0.5204
 6635TIP3    H141320   5.482   4.945  16.512  2.4266 -1.1962 -0.3749
 6635TIP3    H241321   5.567   5.064  16.551 -0.7757  0.9377  0.5213
 6636TIP3   OH241322   2.506   2.001   0.502  0.0047  0.5455  0.2643
 6636TIP3    H141323   2.507   2.022   0.595 -0.1730  0.0112  0.3884
 6636TIP3    H241324   2.522   2.085   0.459  0.8040  0.6818  0.7918
 6637TIP3   OH241325   6.479   2.339   5.332 -0.1656  0.2125 -0.1625
 6637TIP3    H141326   6.497   2.305   5.244 -1.1596 -0.4803 -0.1155
 6637TIP3    H241327   6.387   2.317   5.348 -1.0148  3.2584 -0.2647
 6638TIP3   OH241328   3.185   5.466  13.389  0.1612 -0.0420 -0.2722
 6638TIP3    H141329   3.259   5.427  13.437 -0.0822  0.7550  0.7717
 6638TIP3    H241330   3.127   5.392  13.372  0.3251 -0.3719  0.5379
 6639TIP3   OH241331   2.977   2.231  13.813  0.4059 -0.0061 -0.3095
 6639TIP3    H141332   2.892   2.188  13.824 -0.2812  1.6894  1.7998
 6639TIP3    H241333   2.985   2.246  13.719 -0.9364 -1.4996 -0.6990
 6640TIP3   OH241334   1.573   1.197  16.744  0.9485 -0.0252  0.5249
 6640TIP3    H141335   1.510   1.194  16.673  1.7206  0.9034 -0.2246
 6640TIP3    H241336   1.643   1.139  16.716  1.0026 -0.0838  0.7788
 6641TIP3   OH241337   5.351   6.108   2.759  0.3053 -0.3131  0.0826
 6641TIP3    H141338   5.438   6.107   2.800  1.1797  1.2368 -1.6073
 6641TIP3    H241339   5.332   6.200   2.744 -1.8765 -0.5782  0.7843
 6642TIP3   OH241340   6.294   0.185  11.118 -0.0243  0.2908  0.4067
 6642TIP3    H141341   6.386   0.171  11.138 -0.2526 -0.5224  0.9595
 6642TIP3    H241342   6.294   0.224  11.031  1.0001  3.8032  1.8120
 6643TIP3   OH241343   5.961   3.772   2.276  0.2733  0.0272  0.1018
 6643TIP3    H141344   5.973   3.702   2.340 -0.8480  0.2066  0.5427
 6643TIP3    H241345   5.922   3.730   2.200 -0.3066  0.1287  0.3293
 6644TIP3   OH241346   6.656   4.498   2.517  0.0546  0.3171  0.0241
 6644TIP3    H141347   6.655   4.447   2.598  1.9098 -0.2692 -0.2709
 6644TIP3    H241348   6.645   4.589   2.545  1.0152  0.1581  0.9859
 6645TIP3   OH241349   4.143   0.182   1.665  0.5970  0.1431  0.2563
 6645TIP3    H141350   4.221   0.127   1.661  0.4883  0.0412 -1.0522
 6645TIP3    H241351   4.133   0.204   1.757  2.4253  0.5253  0.3910
 6646TIP3   OH241352   4.818   3.399  16.866  0.0435  0.6594  0.7672
 6646TIP3    H141353   4.771   3.382  16.947  0.8680  1.5188  1.4496
 6646TIP3    H241354   4.879   3.325  16.857 -0.4410  0.2735  0.6217
 6647TIP3   OH241355   0.697   2.774  13.436 -0.2792  0.2179  0.5503
 6647TIP3    H141356   0.680   2.799  13.526 -0.3377  1.8926  0.1048
 6647TIP3    H241357   0.689   2.678  13.436 -1.5818  0.2782  2.0383
 6648TIP3   OH241358   2.241   5.032  11.464 -0.9480 -0.1103  0.6703
 6648TIP3    H141359   2.248   4.951  11.515  0.0954  0.5797  1.6538
 6648TIP3    H241360   2.307   5.023  11.396  0.2998  0.5577  1.7403
 6649TIP3   OH241361   3.179   0.758  16.887 -0.7630 -0.4424  0.0695
 6649TIP3    H141362   3.208   0.822  16.953 -2.0804  1.1957 -0.8644
 6649TIP3    H241363   3.230   0.679  16.907 -0.2889  0.3393  2.3260
 6650TIP3   OH241364   6.554   1.419  12.693  0.4970  0.1134  0.4264
 6650TIP3    H141365   6.606   1.496  12.672  0.2963  0.5235  1.3698
 6650TIP3    H241366   6.558   1.412  12.788  2.7449 -2.6157  0.2630
 6651TIP3   OH241367   4.945   4.340   1.455  0.1962 -0.0057  0.0562
 6651TIP3    H141368   4.895   4.259   1.470 -0.9713  0.5886 -0.4621
 6651TIP3    H241369   4.947   4.382   1.541  0.0314 -0.1592  0.1374
 6652TIP3   OH241370   4.118   1.238  17.039 -0.1569 -0.1625 -0.1182
 6652TIP3    H141371   4.147   1.175  16.973  0.4074 -0.4992  0.4442
 6652TIP3    H241372   4.168   1.318  17.020  1.6132 -0.8982  1.1770
 6653TIP3   OH241373   0.932   3.300   5.026 -0.6695  0.2473 -0.3981
 6653TIP3    H141374   0.892   3.385   5.044 -0.9549 -0.0101  0.2105
 6653TIP3    H241375   0.893   3.241   5.091  1.0244  0.0846  0.5297
 6654TIP3   OH241376   4.673   6.036  11.925 -0.0641 -0.0645  0.4846
 6654TIP3    H141377   4.695   6.068  12.012 -0.4657  0.9310  0.2456
 6654TIP3    H241378   4.580   6.060  11.914  0.2378  0.7376 -0.5756
 6655TIP3   OH241379   4.284   2.755   2.240  0.2696  0.2530 -0.5544
 6655TIP3    H141380   4.224   2.830   2.238 -0.1047 -0.0225  0.2309
 6655TIP3    H241381   4.230   2.681   2.211  0.1654 -0.0376  0.3766
 6656TIP3   OH241382   5.783   4.832  12.987 -0.4971 -0.3506  0.1803
 6656TIP3    H141383   5.769   4.920  13.022  1.3151 -0.5475  1.5598
 6656TIP3    H241384   5.792   4.844  12.893 -1.5248  0.7568  0.2036
 6657TIP3   OH241385   4.353   0.461  13.368  0.3867  0.4445  0.2055
 6657TIP3    H141386   4.418   0.447  13.299 -1.6594  1.9767 -2.1946
 6657TIP3    H241387   4.390   0.532  13.421  1.3708  0.2035 -0.1232
 6658TIP3   OH241388   0.116   1.744   0.337  0.1197 -0.5820 -0.9011
 6658TIP3    H141389   0.132   1.733   0.431 -0.3908  0.5264 -0.6666
 6658TIP3    H241390   0.034   1.698   0.321 -0.7751  0.7597 -0.4033
 6659TIP3   OH241391   3.281   4.862  14.564 -0.5837 -0.8692  0.4654
 6659TIP3    H141392   3.347   4.913  14.516 -2.2266 -0.2256 -1.2210
 6659TIP3    H241393   3.225   4.928  14.605 -0.9320 -1.3899  0.8323
 6660TIP3   OH241394   6.088   1.319   5.141 -0.5949  0.4673 -0.1844
 6660TIP3    H141395   6.102   1.293   5.232 -1.5060 -0.0395 -0.1805
 6660TIP3    H241396   6.068   1.238   5.096  0.1333  0.6749 -0.9087
 6661TIP3   OH241397   5.329   4.375  10.511 -0.0736  0.4649 -0.1121
 6661TIP3    H141398   5.239   4.383  10.481 -0.4644 -0.9361  0.5916
 6661TIP3    H241399   5.351   4.283  10.497  1.4077  0.8868 -0.6870
 6662TIP3   OH241400   2.385   3.658  15.574 -0.3055 -0.0390 -0.6536
 6662TIP3    H141401   2.417   3.590  15.514  0.3465  0.3545 -0.7665
 6662TIP3    H241402   2.408   3.741  15.531 -0.9779  0.2582 -0.4576
 6663TIP3   OH241403   2.853   4.245  13.341  0.4338 -0.0363  0.0498
 6663TIP3    H141404   2.921   4.295  13.385 -0.9150  1.0696  0.9882
 6663TIP3    H241405   2.819   4.304  13.274 -1.8213  0.8139  1.7836
 6664TIP3   OH241406   6.045   2.327  16.712 -0.3140 -0.6229 -0.4857
 6664TIP3    H141407   6.032   2.422  16.707 -0.4251 -0.6569 -0.8609
 6664TIP3    H241408   6.138   2.316  16.728 -0.5438 -0.4025  1.1500
 6665TIP3   OH241409   0.851   5.950   0.108 -0.2227  0.0736  0.5690
 6665TIP3    H141410   0.806   5.879   0.063 -1.2637  1.4678 -0.7133
 6665TIP3    H241411   0.934   5.913   0.136 -0.6326 -1.5635 -0.2835
 6666TIP3   OH241412   6.593   4.077  12.674 -0.2950  0.3978 -0.1145
 6666TIP3    H141413   6.612   3.992  12.636 -1.9629 -0.1954  0.3002
 6666TIP3    H241414   6.548   4.125  12.604  0.0723  0.7169 -0.1367
 6667TIP3   OH241415   5.176   3.336  11.801  0.2904  0.0898  0.2992
 6667TIP3    H141416   5.261   3.299  11.776 -0.3198 -0.6760 -0.7362
 6667TIP3    H241417   5.197   3.424  11.833  1.6774 -0.7808  1.9642
 6668TIP3   OH241418   2.064   3.348   5.775  0.5309 -0.0071 -0.5783
 6668TIP3    H141419   1.999   3.335   5.706  0.4661  1.2362 -0.7781
 6668TIP3    H241420   2.032   3.296   5.849 -1.5437  1.7226 -0.1381
 6669TIP3   OH241421   5.660   4.782  10.990 -0.3788  0.0423 -0.0019
 6669TIP3    H141422   5.631   4.743  11.073  0.6206  1.1448  0.9059
 6669TIP3    H241423   5.731   4.724  10.961 -0.4062 -0.0794  0.1680
 6670TIP3   OH241424   0.111   1.586   4.143 -0.2770 -0.3661  0.1703
 6670TIP3    H141425   0.091   1.500   4.105  2.2712 -0.8734 -0.2395
 6670TIP3    H241426   0.095   1.648   4.073  1.8461 -1.0205 -0.9867
 6671TIP3   OH241427   1.834   4.079   2.149 -0.7231 -0.3641 -0.5277
 6671TIP3    H141428   1.795   4.104   2.233  0.9321  0.0170  0.1606
 6671TIP3    H241429   1.800   3.992   2.131 -2.9651  0.4633 -0.6752
 6672TIP3   OH241430   3.104   3.718   2.674 -0.3851  0.5216 -0.0380
 6672TIP3    H141431   3.064   3.646   2.723 -0.2161 -0.5441 -1.4158
 6672TIP3    H241432   3.165   3.758   2.736 -1.5939  0.4769  1.2435
 6673TIP3   OH241433   2.729   4.271  16.348 -0.5388 -0.4196 -0.6184
 6673TIP3    H141434   2.804   4.214  16.364  1.0262  1.2225 -1.7200
 6673TIP3    H241435   2.704   4.254  16.258 -1.7642 -1.1866 -0.1704
 6674TIP3   OH241436   3.854   1.238   6.144  0.0633 -0.1409  0.8534
 6674TIP3    H141437   3.842   1.154   6.189  1.0489 -1.2121 -0.7516
 6674TIP3    H241438   3.948   1.253   6.145  0.1532 -0.3357 -0.9697
 6675TIP3   OH241439   5.658   1.666   3.123  0.0470 -0.0692 -0.4363
 6675TIP3    H141440   5.616   1.749   3.102 -0.8542 -0.1974  0.7617
 6675TIP3    H241441   5.593   1.599   3.102  0.4775 -0.4299 -0.6544
 6676TIP3   OH241442   0.016   2.792   5.608 -0.0163 -0.5636  0.4199
 6676TIP3    H141443   0.099   2.835   5.627 -0.1836 -0.0230 -0.0249
 6676TIP3    H241444  -0.039   2.862   5.572 -0.2413 -1.1958 -0.4964
 6677TIP3   OH241445   1.017   5.028  14.428 -0.4769 -0.1252 -0.0468
 6677TIP3    H141446   0.959   5.080  14.373 -1.8854 -0.9450  0.6073
 6677TIP3    H241447   0.980   4.940  14.425  0.2356 -0.4894  1.0817
 6678TIP3   OH241448   3.596   5.144   0.285  0.0278 -0.6012  0.0965
 6678TIP3    H141449   3.682   5.118   0.318 -0.2198 -1.5703  0.0272
 6678TIP3    H241450   3.535   5.113   0.352 -0.2790 -0.0647  0.0649
 6679TIP3   OH241451   5.023   5.158   3.650  0.3554 -0.4030  0.0329
 6679TIP3    H141452   5.072   5.163   3.732 -0.4443  1.9891  0.4346
 6679TIP3    H241453   5.090   5.141   3.584  1.2100 -0.8819  0.9904
 6680TIP3   OH241454   4.625   6.620  14.469  0.2425  0.1518 -0.8095
 6680TIP3    H141455   4.631   6.621  14.565  1.1110  0.1230 -0.8519
 6680TIP3    H241456   4.713   6.646  14.440  1.6427 -4.5915 -1.6285
 6681TIP3   OH241457   6.269   5.269  13.188 -0.4074  0.0084  0.3975
 6681TIP3    H141458   6.302   5.246  13.101 -0.2800  0.3572  0.3536
 6681TIP3    H241459   6.249   5.184  13.229 -0.1939 -0.1695  0.1356
 6682TIP3   OH241460   0.090   3.197  15.548 -0.2749 -0.4170 -0.1342
 6682TIP3    H141461   0.051   3.282  15.567 -0.2916 -0.3703 -0.3686
 6682TIP3    H241462   0.151   3.214  15.477 -2.2925 -1.0558 -2.1669
 6683TIP3   OH241463   4.662   4.644   1.377 -0.3853  0.3594 -0.4683
 6683TIP3    H141464   4.638   4.577   1.441 -2.1000  1.2198 -0.1310
 6683TIP3    H241465   4.667   4.725   1.427 -2.6948  1.2226 -1.4726
 6684TIP3   OH241466   3.461   3.448   1.140 -0.1178  0.6009  0.3443
 6684TIP3    H141467   3.424   3.360   1.148  0.8140  0.1533 -0.1531
 6684TIP3    H241468   3.527   3.441   1.071  0.1214  1.6398  0.4462
 6685TIP3   OH241469   4.500   0.707  14.399  0.0714  0.4258  0.3955
 6685TIP3    H141470   4.535   0.687  14.486 -0.9780 -0.1157  0.7070
 6685TIP3    H241471   4.409   0.677  14.402  0.2378 -0.3132 -1.1533
 6686TIP3   OH241472   1.384   3.899   2.117  0.0367  0.2974 -0.1887
 6686TIP3    H141473   1.451   3.906   2.186 -2.5902  2.7479  2.4024
 6686TIP3    H241474   1.335   3.820   2.139  0.6220 -0.2219 -0.7097
 6687TIP3   OH241475   1.027   2.365  14.694  0.0471 -0.0260  0.5020
 6687TIP3    H141476   0.968   2.314  14.640  1.0184 -2.6320  1.7246
 6687TIP3    H241477   0.978   2.382  14.775  0.9067 -2.4638  1.6479
 6688TIP3   OH241478   4.483   0.427  16.871  0.2823 -0.3037  0.0626
 6688TIP3    H141479   4.492   0.350  16.814 -0.0146 -0.0635 -0.3125
 6688TIP3    H241480   4.566   0.474  16.860  0.5407 -0.6591  0.4349
 6689TIP3   OH241481   0.918   0.033   4.917  0.2897 -0.6623  0.2619
 6689TIP3    H141482   0.905   0.124   4.891 -1.3601 -1.3744 -1.6628
 6689TIP3    H241483   0.935   0.037   5.011  3.7615  1.8764 -0.2580
 6690TIP3   OH241484   0.135   1.274  15.389  0.3182  0.4620  0.2822
 6690TIP3    H141485   0.083   1.314  15.459  1.0677  0.5392  0.8030
 6690TIP3    H241486   0.216   1.325  15.387  1.3783 -1.1194  1.0775
 6691TIP3   OH241487   5.231   2.299  12.176  0.3632  0.7611 -0.1479
 6691TIP3    H141488   5.267   2.252  12.101 -0.6014 -1.0738  0.4863
 6691TIP3    H241489   5.137   2.282  12.172  0.1858  1.3513  0.9844
 6692TIP3   OH241490   2.567   3.137  14.381  0.2733 -0.2731  0.4309
 6692TIP3    H141491   2.557   3.099  14.294  2.7386  0.3610 -0.1920
 6692TIP3    H241492   2.514   3.217  14.378 -1.7943 -1.5593  0.4665
 6693TIP3   OH241493   1.318   1.302  15.659 -0.2448  0.3016  0.3025
 6693TIP3    H141494   1.246   1.362  15.638 -0.1837  0.7781  1.4014
 6693TIP3    H241495   1.373   1.302  15.580 -0.4861  1.3494  0.1201
 6694TIP3   OH241496   4.551   6.382  14.367  0.1394  0.2111 -0.1600
 6694TIP3    H141497   4.552   6.463  14.418  0.3203 -0.4137  0.8367
 6694TIP3    H241498   4.597   6.404  14.286  2.8691  0.3127  1.3312
 6695TIP3   OH241499   5.861   1.542  15.814  0.5928 -0.2198  0.1135
 6695TIP3    H141500   5.829   1.541  15.724  0.4965 -1.2400  0.1480
 6695TIP3    H241501   5.804   1.605  15.859  0.1026 -0.3288 -0.3447
 6696TIP3   OH241502   6.583   5.630  14.233  0.2831 -0.1213 -0.1528
 6696TIP3    H141503   6.535   5.630  14.316  0.9140  0.6182  0.2183
 6696TIP3    H241504   6.657   5.688  14.247  0.9772 -0.7870 -0.9118
 6697TIP3   OH241505   6.133   3.889   3.610  0.4816  0.0193 -0.0828
 6697TIP3    H141506   6.150   3.826   3.540  2.9379 -2.2649  2.2776
 6697TIP3    H241507   6.042   3.872   3.635  1.0454 -2.7933  0.4696
 6698TIP3   OH241508   5.836   2.020   3.177 -0.0020  0.3328  0.0941
 6698TIP3    H141509   5.831   2.007   3.082 -3.2483 -0.2246  0.2391
 6698TIP3    H241510   5.892   1.949   3.208  0.4908  0.0764 -1.3021
 6699TIP3   OH241511   4.350   4.225   5.011 -0.7799 -0.2176  0.3256
 6699TIP3    H141512   4.284   4.294   5.010  0.3008  0.8379 -0.9521
 6699TIP3    H241513   4.334   4.178   5.093 -2.4397  0.6475  0.5379
 6700TIP3   OH241514   4.602   0.985   3.269 -0.0871 -1.3885  0.3472
 6700TIP3    H141515   4.668   0.988   3.339  1.6477 -1.5518 -1.2128
 6700TIP3    H241516   4.528   1.035   3.304  2.0982  1.7189  0.9613
 6701TIP3   OH241517   5.372   1.713   4.476 -0.1746 -0.6509  0.1169
 6701TIP3    H141518   5.362   1.773   4.402  0.6684 -0.2376  0.3350
 6701TIP3    H241519   5.384   1.770   4.552 -3.3442 -0.9696  1.0142
 6702TIP3   OH241520   1.303   1.902   5.319  0.1716  0.3341 -0.2628
 6702TIP3    H141521   1.339   1.989   5.302 -1.6522  1.2275  0.1589
 6702TIP3    H241522   1.361   1.864   5.384  1.8955  0.5880 -1.5984
 6703TIP3   OH241523   4.631   5.269   3.340  0.3054  0.0111 -0.1285
 6703TIP3    H141524   4.589   5.335   3.285 -0.0625  0.1237  0.2735
 6703TIP3    H241525   4.558   5.229   3.389  0.5649 -0.4526 -0.1177
 6704TIP3   OH241526   2.876   6.405  13.607 -0.0028 -0.8756 -0.2287
 6704TIP3    H141527   2.834   6.411  13.521 -0.5233  0.2132  0.0770
 6704TIP3    H241528   2.954   6.460  13.600 -1.5307  1.6024  0.7813
 6705TIP3   OH241529   6.382   6.407   0.256  0.0176  0.0310  0.0285
 6705TIP3    H141530   6.313   6.363   0.304 -1.2199  1.7255 -0.1211
 6705TIP3    H241531   6.348   6.495   0.239  1.9007  0.6720 -0.7181
 6706TIP3   OH241532   6.694   2.963   5.245  0.1841  0.3415  0.4239
 6706TIP3    H141533   6.671   3.042   5.295  1.2523  0.5521  0.6123
 6706TIP3    H241534   6.635   2.895   5.279 -1.6884  1.3306 -0.6710
 6707TIP3   OH241535   4.286   5.119   2.144  0.1296 -0.2005  0.3502
 6707TIP3    H141536   4.208   5.164   2.110 -0.6430 -1.0383  0.9412
 6707TIP3    H241537   4.354   5.186   2.148 -0.1147  0.2196 -1.6280
 6708TIP3   OH241538   4.846   1.846   6.992  0.1009 -0.6478 -0.7572
 6708TIP3    H141539   4.908   1.891   6.934  0.3816  0.2079  0.1815
 6708TIP3    H241540   4.869   1.875   7.080 -1.2195 -0.8172 -0.3260
 6709TIP3   OH241541   2.059   3.394  10.990 -0.0468 -0.0043 -0.3223
 6709TIP3    H141542   2.145   3.357  11.012 -0.6490 -2.0588 -1.1376
 6709TIP3    H241543   2.061   3.482  11.025  2.8867  0.5001 -1.4480
 6710TIP3   OH241544   4.409   4.888  15.230 -0.1531  0.0460  0.2522
 6710TIP3    H141545   4.434   4.879  15.322  0.2040 -1.3026  0.0412
 6710TIP3    H241546   4.345   4.817  15.215  0.1810 -0.0814 -0.6655
 6711TIP3   OH241547   6.714   5.558   2.538 -0.9767 -0.4320 -0.1675
 6711TIP3    H141548   6.731   5.526   2.626  2.6145 -0.5566 -0.7701
 6711TIP3    H241549   6.725   5.653   2.544 -1.6664 -0.3356 -0.3263
 6712TIP3   OH241550   0.491   1.145   6.237 -0.3704  0.0561 -0.9105
 6712TIP3    H141551   0.438   1.065   6.241 -0.1454 -0.1612 -2.1099
 6712TIP3    H241552   0.550   1.132   6.163  0.2867  0.9627 -0.5652
 6713TIP3   OH241553   1.095   0.344   0.602  0.2954 -0.3162  0.0587
 6713TIP3    H141554   1.006   0.310   0.599 -0.8246  2.4633 -1.9752
 6713TIP3    H241555   1.150   0.269   0.579 -1.4196 -2.1152  1.4470
 6714TIP3   OH241556   4.709   2.032  12.096 -0.4032 -0.9977  0.2269
 6714TIP3    H141557   4.716   2.128  12.091 -1.1894 -1.0169 -1.6908
 6714TIP3    H241558   4.624   2.012  12.059  0.4666 -2.5675 -1.0236
 6715TIP3   OH241559   2.387   3.405  16.011 -0.4221 -0.0713 -0.3498
 6715TIP3    H141560   2.391   3.494  15.977  0.4700 -0.0571 -0.2212
 6715TIP3    H241561   2.395   3.350  15.933 -0.2784 -0.0367 -0.3608
 6716TIP3   OH241562   2.548   5.031   6.556  0.2877 -0.3114  0.2130
 6716TIP3    H141563   2.547   5.034   6.460 -3.7158 -1.0119  0.0517
 6716TIP3    H241564   2.487   5.100   6.582  0.6589 -0.6955  2.2522
 6717TIP3   OH241565   0.917   2.987   4.541  0.7653 -0.0492  0.1394
 6717TIP3    H141566   0.929   2.972   4.447  0.9238  1.8604 -0.1938
 6717TIP3    H241567   0.863   3.066   4.546  2.0479  0.7911  1.6439
 6718TIP3   OH241568   1.560   5.517   1.353 -0.2211  0.1395 -0.2242
 6718TIP3    H141569   1.518   5.489   1.272 -2.2124 -2.0199  1.4394
 6718TIP3    H241570   1.491   5.562   1.402  0.4307 -0.1460  1.0074
 6719TIP3   OH241571   3.157   4.626  12.235  1.1075  0.3875  0.3384
 6719TIP3    H141572   3.202   4.553  12.278 -1.5856 -1.1090  0.8153
 6719TIP3    H241573   3.149   4.598  12.143  2.3662  1.3021 -0.0736
 6720TIP3   OH241574   5.908   5.287  14.571  0.0589  0.4227  0.0380
 6720TIP3    H141575   5.961   5.234  14.512  1.4548  2.2377 -0.4290
 6720TIP3    H241576   5.822   5.289  14.531  0.2031 -0.7665 -0.3757
 6721TIP3   OH241577   3.697   0.668   4.423  0.2307  0.3697  0.0957
 6721TIP3    H141578   3.650   0.604   4.369 -0.6299  1.5077 -0.5627
 6721TIP3    H241579   3.690   0.750   4.373 -0.6787  1.4874  1.9740
 6722TIP3   OH241580   5.740   3.177  15.163 -0.0459  0.1494 -0.0361
 6722TIP3    H141581   5.816   3.127  15.192 -0.1518  0.6038  1.0558
 6722TIP3    H241582   5.695   3.119  15.101  0.5223 -0.5988  0.2415
 6723TIP3   OH241583   0.860   4.889   4.015  0.6713 -0.4970  0.4092
 6723TIP3    H141584   0.783   4.921   4.062  0.2779 -0.7428 -0.0614
 6723TIP3    H241585   0.833   4.888   3.923  0.5156 -2.5932  0.4391
 6724TIP3   OH241586   3.656   6.743   2.973 -0.0909 -0.1436 -0.1082
 6724TIP3    H141587   3.563   6.731   2.953  0.4646 -2.8094 -1.5484
 6724TIP3    H241588   3.672   6.685   3.048  0.3754  0.5090  0.3066
 6725TIP3   OH241589   4.899   1.532  13.824  0.0840 -0.7585 -0.2874
 6725TIP3    H141590   4.882   1.447  13.783  0.0398 -0.3468 -1.1509
 6725TIP3    H241591   4.813   1.571  13.835 -0.0026 -1.3547  1.3169
 6726TIP3   OH241592   5.435   6.780   0.264 -0.3072 -0.2938 -0.0521
 6726TIP3    H141593   5.410   6.797   0.354 -0.7325  0.2423 -0.2663
 6726TIP3    H241594   5.352   6.777   0.216 -0.0396  0.4472 -0.5880
 6727TIP3   OH241595   4.111   3.525  14.037 -0.1488  0.1598  0.6838
 6727TIP3    H141596   4.141   3.465  13.968  1.0173  1.5988 -0.1361
 6727TIP3    H241597   4.082   3.603  13.990  3.2969  2.3592  1.7419
 6728TIP3   OH241598   6.728   5.987  14.075 -0.5557 -0.0164  0.2051
 6728TIP3    H141599   6.786   5.980  13.999 -0.3514  0.9036  0.2675
 6728TIP3    H241600   6.640   5.993  14.037 -0.4906  0.0299  0.0609
 6729TIP3   OH241601   2.791   3.767  13.817  0.3022  0.5159  0.5768
 6729TIP3    H141602   2.773   3.717  13.737 -0.8986  1.8427 -0.0079
 6729TIP3    H241603   2.887   3.771  13.821  0.3903  0.9297 -1.1355
 6730TIP3   OH241604   0.171   4.992   4.492 -0.4673 -0.0925  0.0902
 6730TIP3    H141605   0.172   5.054   4.419 -0.3853  0.2169  0.3503
 6730TIP3    H241606   0.124   5.038   4.562 -0.5556 -0.3909  0.2311
 6731TIP3   OH241607   1.036   3.715   1.583  0.2404 -0.6333 -0.0184
 6731TIP3    H141608   1.089   3.742   1.508  1.2309 -1.6645  0.2943
 6731TIP3    H241609   1.099   3.683   1.647 -0.6134 -0.0466  1.1603
 6732TIP3   OH241610   3.211   3.410   5.168  0.4215  0.9146 -0.3336
 6732TIP3    H141611   3.197   3.327   5.123  3.8296 -0.6103  1.1024
 6732TIP3    H241612   3.287   3.449   5.125 -0.1054  2.5110  0.1008
 6733TIP3   OH241613   1.572   5.833   2.014  0.5300 -0.4114  0.0353
 6733TIP3    H141614   1.576   5.746   2.054  3.0154  0.3765  1.6830
 6733TIP3    H241615   1.558   5.893   2.087 -0.6652  0.6727 -1.0191
 6734TIP3   OH241616   5.143   3.415  15.987  0.3302 -0.1127 -0.4708
 6734TIP3    H141617   5.118   3.365  16.065 -0.7216  1.0353 -0.0419
 6734TIP3    H241618   5.095   3.497  15.994  2.3277  1.1688 -0.9449
 6735TIP3   OH241619   5.195   0.516   1.095  0.4064  0.0907  0.0280
 6735TIP3    H141620   5.137   0.572   1.043  0.1469 -0.4641 -0.2884
 6735TIP3    H241621   5.143   0.494   1.172  0.1242 -0.5450 -0.3361
 6736TIP3   OH241622   3.105   0.475  16.233 -0.1623  0.1632 -0.7320
 6736TIP3    H141623   3.180   0.468  16.174  0.5184  1.8282 -0.1476
 6736TIP3    H241624   3.144   0.474  16.321 -1.0221 -0.8643 -0.3446
 6737TIP3   OH241625   0.058   0.566  14.786 -0.3248  0.4433 -0.0669
 6737TIP3    H141626   0.096   0.479  14.774 -1.4154  0.0854 -1.0864
 6737TIP3    H241627  -0.034   0.549  14.805 -1.3297  1.3995 -3.4848
 6738TIP3   OH241628   2.284   0.785  15.781 -0.3799 -0.4507  0.5139
 6738TIP3    H141629   2.357   0.838  15.814 -0.5142  0.5889 -0.8010
 6738TIP3    H241630   2.220   0.786  15.852 -0.0452  0.4909  0.8212
 6739TIP3   OH241631   0.475   1.973  12.758 -0.3367 -0.4093 -0.1218
 6739TIP3    H141632   0.387   1.985  12.723 -0.9263 -1.1003  1.0541
 6739TIP3    H241633   0.531   1.964  12.681 -1.4794 -1.2245 -0.8908
 6740TIP3   OH241634   5.894   5.567   3.166  0.2533 -0.2827 -0.0246
 6740TIP3    H141635   5.939   5.619   3.099 -0.1367  0.3646  0.2068
 6740TIP3    H241636   5.899   5.621   3.245 -2.0022  0.3821 -0.2819
 6741TIP3   OH241637   0.335   5.480  16.193  0.2444  0.1976 -0.3287
 6741TIP3    H141638   0.328   5.415  16.263  2.5515  0.6909  0.4475
 6741TIP3    H241639   0.334   5.429  16.112  0.6917 -0.6771  0.2066
 6742TIP3   OH241640   2.357   3.546  12.822 -0.3550 -0.2004  0.0656
 6742TIP3    H141641   2.356   3.498  12.739 -1.2753 -2.3822  1.2637
 6742TIP3    H241642   2.331   3.635  12.798  1.5538 -0.1840 -2.2630
 6743TIP3   OH241643   2.231   1.714   5.568  0.3510  0.5409 -0.0643
 6743TIP3    H141644   2.152   1.751   5.528  0.5740 -0.3414 -1.3974
 6743TIP3    H241645   2.198   1.650   5.631 -0.0570  3.2947  2.7535
 6744TIP3   OH241646   0.195   3.032   5.794  0.2446  0.4437  0.1196
 6744TIP3    H141647   0.268   2.973   5.813  1.1086  0.8220 -1.7807
 6744TIP3    H241648   0.127   3.006   5.857  1.9617  0.0699  1.9375
 6745TIP3   OH241649   4.518   3.594  11.210 -0.4818  0.1556  0.4164
 6745TIP3    H141650   4.576   3.537  11.261 -2.0180 -1.0764  0.8278
 6745TIP3    H241651   4.465   3.640  11.275  0.9907  2.4486  0.1215
 6746TIP3   OH241652   6.333   5.764   3.758 -0.1560  0.0603  0.1033
 6746TIP3    H141653   6.298   5.841   3.716  0.3458  0.2878  0.0894
 6746TIP3    H241654   6.425   5.785   3.774  0.3628 -1.0836 -1.2272
 6747TIP3   OH241655   2.026   3.446   0.929  0.3565 -0.5781  0.0032
 6747TIP3    H141656   2.112   3.477   0.957  0.2806  0.8328 -1.2297
 6747TIP3    H241657   1.968   3.465   1.002  0.2687  2.5203 -0.7552
 6748TIP3   OH241658   0.666   5.042  11.941  0.1390  0.7294  0.3457
 6748TIP3    H141659   0.692   5.075  12.027  1.2541  1.9661 -0.4215
 6748TIP3    H241660   0.704   5.104  11.879 -0.3328 -0.3285 -1.0615
 6749TIP3   OH241661   4.504   3.673  14.335  0.2678  0.8062  0.3194
 6749TIP3    H141662   4.535   3.627  14.413 -0.8241 -0.6120 -0.0316
 6749TIP3    H241663   4.408   3.672  14.343  0.1522  0.9805 -0.8349
 6750TIP3   OH241664   3.611   5.996  14.122  0.4343  0.2744  0.2059
 6750TIP3    H141665   3.671   6.018  14.193  2.6414 -1.2321 -1.0863
 6750TIP3    H241666   3.609   6.074  14.066  2.3893 -0.1336 -0.4928
 6751TIP3   OH241667   3.486   2.364   2.103 -0.2801  0.1173  0.0835
 6751TIP3    H141668   3.474   2.437   2.164  4.0171  1.0032  0.1866
 6751TIP3    H241669   3.495   2.287   2.160 -1.6416 -0.0154  0.1566
 6752TIP3   OH241670   3.369   0.728   1.108 -0.3495 -0.1682  0.4578
 6752TIP3    H141671   3.366   0.804   1.166  2.0308  1.2799 -1.1459
 6752TIP3    H241672   3.443   0.745   1.049  0.1211 -3.6229 -0.1653
 6753TIP3   OH241673   0.185   4.737   4.615  0.6400  0.3321  0.0006
 6753TIP3    H141674   0.116   4.779   4.666  0.6348  0.7054 -0.3106
 6753TIP3    H241675   0.221   4.808   4.561  0.5340 -0.0914 -0.6318
 6754TIP3   OH241676   5.691   5.077  13.555  0.2137  0.5839  0.2290
 6754TIP3    H141677   5.658   4.992  13.526  0.2962  0.0854  1.5203
 6754TIP3    H241678   5.756   5.101  13.489 -0.3833  0.0288 -0.5780
 6755TIP3   OH241679   0.053   2.969  16.134 -0.1053  0.8245 -0.3469
 6755TIP3    H141680   0.136   2.972  16.087 -0.3047  2.2688 -0.6624
 6755TIP3    H241681  -0.008   3.015  16.077 -0.8701  0.7065  0.3608
 6756TIP3   OH241682   4.097   2.381  12.437  0.5834 -0.0981 -0.1411
 6756TIP3    H141683   4.129   2.471  12.447  0.1845 -0.1071  1.4072
 6756TIP3    H241684   4.026   2.388  12.374 -1.1632  1.1356  1.8447
 6757TIP3   OH241685   6.006   3.901   0.907  0.0595 -0.3372  0.6697
 6757TIP3    H141686   6.031   3.815   0.871 -0.8771 -0.1483 -0.4999
 6757TIP3    H241687   5.985   3.883   0.999  0.2652 -1.2870  0.5479
 6758TIP3   OH241688   5.532   5.404   1.600  0.0439 -0.1217  0.6504
 6758TIP3    H141689   5.518   5.472   1.534 -0.8314 -1.3321 -0.4552
 6758TIP3    H241690   5.577   5.450   1.672 -0.5932  1.6287 -0.0061
 6759TIP3   OH241691   5.476   1.223  11.478  0.2639 -0.1919 -0.4735
 6759TIP3    H141692   5.524   1.171  11.542  0.0934 -0.0539 -0.2299
 6759TIP3    H241693   5.390   1.238  11.518  1.5669  3.6971  1.3386
 6760TIP3   OH241694   2.888   0.383   5.274 -0.4938 -0.8030  0.4149
 6760TIP3    H141695   2.961   0.323   5.294  0.0581  0.5420  2.8966
 6760TIP3    H241696   2.810   0.329   5.285  0.0294 -2.2622 -2.2585
 6761TIP3   OH241697   3.283   6.419  15.405 -0.2239  0.5202 -0.1389
 6761TIP3    H141698   3.298   6.473  15.482 -2.3856  0.0325  0.6944
 6761TIP3    H241699   3.220   6.468  15.352 -1.7232 -0.8277  0.3161
 6762TIP3   OH241700   5.087   4.615   4.174 -0.5033 -0.1603 -0.1165
 6762TIP3    H141701   5.061   4.671   4.102 -0.7671 -0.2500 -0.0933
 6762TIP3    H241702   5.012   4.556   4.187 -0.7627  0.3407  0.7166
 6763TIP3   OH241703   6.239   5.116   6.350 -0.3186  0.7727 -0.5027
 6763TIP3    H141704   6.323   5.076   6.326 -0.2647  0.6815 -0.1681
 6763TIP3    H241705   6.246   5.133   6.444 -1.4425 -1.1394 -0.0157
 6764TIP3   OH241706   0.606   5.556  15.568  0.1191 -0.3251 -0.5241
 6764TIP3    H141707   0.675   5.622  15.576  0.2344 -0.5508  0.4443
 6764TIP3    H241708   0.653   5.476  15.542  0.1942 -0.4127 -0.1269
 6765TIP3   OH241709   5.507   0.458  11.952 -0.2939 -0.0891 -0.5311
 6765TIP3    H141710   5.427   0.430  11.908  0.5198 -2.1959 -0.7649
 6765TIP3    H241711   5.577   0.408  11.910  0.9128  0.2316  0.9952
 6766TIP3   OH241712   1.681   0.259  11.045 -0.6542  0.1387 -0.0929
 6766TIP3    H141713   1.590   0.237  11.027 -0.4950 -1.3471  0.7396
 6766TIP3    H241714   1.683   0.279  11.138 -0.3826  1.7386 -0.4065
 6767TIP3   OH241715   3.529   3.361  11.596 -0.6412 -0.8040 -0.6608
 6767TIP3    H141716   3.479   3.388  11.519 -0.3900  0.0576 -0.5258
 6767TIP3    H241717   3.530   3.439  11.652 -1.8913 -1.7583  0.7863
 6768TIP3   OH241718   4.921   6.631  12.017 -0.1478 -0.3445  0.1955
 6768TIP3    H141719   4.831   6.612  12.044 -0.5316 -0.7063 -1.2664
 6768TIP3    H241720   4.918   6.633  11.921  1.0622  1.3482  0.1355
 6769TIP3   OH241721   5.188   6.005  10.715 -0.4736  0.7451  0.1587
 6769TIP3    H141722   5.127   5.933  10.699  1.1650 -0.8409  0.6112
 6769TIP3    H241723   5.222   6.027  10.629  0.8175 -0.7806  0.2177
 6770TIP3   OH241724   2.474   1.522  16.467  0.4432  0.1049 -0.5555
 6770TIP3    H141725   2.404   1.511  16.403  0.4262 -0.3595 -0.4577
 6770TIP3    H241726   2.460   1.610  16.502 -0.6352 -0.3093  0.1073
 6771TIP3   OH241727   1.468   6.495   5.760  0.1916  0.2079 -0.1679
 6771TIP3    H141728   1.482   6.406   5.794 -2.7189 -0.8390 -1.3877
 6771TIP3    H241729   1.412   6.537   5.827  0.5915  0.7228 -0.1540
 6772TIP3   OH241730   6.032   3.371   6.413  0.2827  0.2766 -0.7796
 6772TIP3    H141731   6.099   3.403   6.473 -0.6579 -0.2889  0.6129
 6772TIP3    H241732   5.976   3.446   6.396  0.7409  0.5211 -1.2322
 6773TIP3   OH241733   1.418   3.497   3.437  0.7230  0.2043  0.2989
 6773TIP3    H141734   1.459   3.439   3.373  2.1789  1.1306  0.3290
 6773TIP3    H241735   1.408   3.442   3.515  2.6849  0.1033  0.5462
 6774TIP3   OH241736   1.683   0.378  15.402 -0.0081  0.0772 -0.3159
 6774TIP3    H141737   1.702   0.462  15.444  0.0332 -0.3284  0.4786
 6774TIP3    H241738   1.647   0.324  15.471  1.2162 -1.0070 -0.4920
 6775TIP3   OH241739   5.094   3.046  13.124  0.1908  0.0517 -0.3175
 6775TIP3    H141740   5.158   2.976  13.133 -0.2668 -0.3942 -0.5043
 6775TIP3    H241741   5.037   3.018  13.053 -0.8678 -0.0869  0.5530
 6776TIP3   OH241742   5.076   4.486  16.446  0.8212  0.4221 -0.1068
 6776TIP3    H141743   4.987   4.451  16.451  1.3977 -1.1236 -0.1191
 6776TIP3    H241744   5.069   4.575  16.483 -0.7463  0.4075 -0.3063
 6777TIP3   OH241745   1.188   6.086  15.378  0.2654  0.0869  0.5236
 6777TIP3    H141746   1.251   6.097  15.307 -3.6193  0.3993 -3.3189
 6777TIP3    H241747   1.200   5.996  15.408  0.9587 -0.6770 -1.8651
 6778TIP3   OH241748   5.923   3.529  10.547 -0.2551  0.7595  0.1485
 6778TIP3    H141749   5.861   3.466  10.583  1.4838  0.0162  2.0537
 6778TIP3    H241750   5.991   3.475  10.507  1.0719  1.3457  1.4887
 6779TIP3   OH241751   2.787   0.321   3.359 -0.1751 -0.1622  0.1882
 6779TIP3    H141752   2.851   0.250   3.361 -0.1999 -0.1751  0.6859
 6779TIP3    H241753   2.759   0.330   3.450 -0.6175  0.0814  0.0310
 6780TIP3   OH241754   1.867   2.511   4.900 -0.1157 -0.4165 -0.0035
 6780TIP3    H141755   1.868   2.523   4.995 -0.4634  0.8682 -0.1430
 6780TIP3    H241756   1.840   2.596   4.865 -0.7335 -1.0854 -1.2215
 6781TIP3   OH241757   1.298   4.867   2.348  0.1896 -0.6892  0.4855
 6781TIP3    H141758   1.264   4.890   2.435  0.6490  0.8896  0.2883
 6781TIP3    H241759   1.392   4.852   2.363  0.4521  0.4980  0.1413
 6782TIP3   OH241760   3.874   0.651   2.808 -0.3787 -0.0505  0.1518
 6782TIP3    H141761   3.834   0.617   2.887 -1.7497  0.5897 -0.2395
 6782TIP3    H241762   3.918   0.732   2.836 -0.7216  0.0886  0.2975
 6783TIP3   OH241763   5.040   3.360   2.776  0.2626  0.2499 -1.1629
 6783TIP3    H141764   5.062   3.318   2.693 -0.2591  0.6977 -1.5325
 6783TIP3    H241765   5.120   3.353   2.828  1.0649  1.1923 -2.2105
 6784TIP3   OH241766   0.967   4.433  16.800  0.3816  0.0396 -0.2642
 6784TIP3    H141767   0.982   4.472  16.886  0.2427  0.0999 -0.2667
 6784TIP3    H241768   1.055   4.424  16.762  0.3384  1.4209 -0.7400
 6785TIP3   OH241769   4.473   5.408  11.006  0.1751  0.0376 -0.1511
 6785TIP3    H141770   4.524   5.363  11.074 -1.7217 -0.4002  1.0571
 6785TIP3    H241771   4.458   5.495  11.042  1.1554  0.6156 -1.0917
 6786TIP3   OH241772   1.876   1.362   1.489  0.6435 -0.6444  0.1820
 6786TIP3    H141773   1.782   1.365   1.474  0.6782 -0.3164  0.0350
 6786TIP3    H241774   1.889   1.282   1.541 -0.0896  0.8593  2.8491
 6787TIP3   OH241775   0.981   1.879  12.741  0.2691  0.0598  0.2372
 6787TIP3    H141776   1.064   1.923  12.724  0.5737  0.2932  2.0836
 6787TIP3    H241777   1.006   1.789  12.765 -0.3044 -1.0528 -2.9090
 6788TIP3   OH241778   1.371   1.975  16.204  0.9032 -0.4201 -0.0122
 6788TIP3    H141779   1.328   1.917  16.267  0.1536 -0.3308 -0.4268
 6788TIP3    H241780   1.303   1.995  16.140  1.2465  0.6436 -0.0653
 6789TIP3   OH241781   6.594   6.368   2.300  0.4069 -0.2980 -0.0522
 6789TIP3    H141782   6.679   6.347   2.338  0.8997  0.9289 -0.4158
 6789TIP3    H241783   6.605   6.354   2.206  0.4616  0.6301 -0.1913
 6790TIP3   OH241784   1.792   2.216  12.171 -0.1838  0.5113  0.0294
 6790TIP3    H141785   1.809   2.135  12.220 -0.2038  0.6475  0.2636
 6790TIP3    H241786   1.780   2.187  12.081 -0.4184  0.2271  0.1510
 6791TIP3   OH241787   0.538   2.844  11.699  0.3488 -0.2899  0.7969
 6791TIP3    H141788   0.620   2.803  11.725  0.4228 -0.3014  0.5476
 6791TIP3    H241789   0.491   2.859  11.781  1.1024  0.7939  1.0535
 6792TIP3   OH241790   4.284   3.764   2.671 -0.3983 -0.0943  0.4853
 6792TIP3    H141791   4.350   3.696   2.656 -1.3389 -0.6457 -1.5049
 6792TIP3    H241792   4.323   3.844   2.637 -0.6047 -0.3466 -0.3565
 6793TIP3   OH241793   4.661   1.298   3.250 -0.5264 -0.0148 -0.2010
 6793TIP3    H141794   4.643   1.205   3.241 -0.3634 -0.2175  1.3498
 6793TIP3    H241795   4.586   1.341   3.207 -0.8867 -0.8440 -0.4275
 6794TIP3   OH241796   1.195   2.872   2.848 -0.0779 -0.7128 -0.7073
 6794TIP3    H141797   1.223   2.798   2.795 -0.8817 -1.5784  0.0433
 6794TIP3    H241798   1.101   2.878   2.833 -0.4501 -1.3897  1.0744
 6795TIP3   OH241799   4.053   1.120  11.608 -0.1979  0.2777  0.3567
 6795TIP3    H141800   4.016   1.207  11.622 -0.4622  0.0529  1.1417
 6795TIP3    H241801   3.980   1.068  11.574 -0.2132  0.2029  0.5034
 6796TIP3   OH241802   3.721   2.246   6.146  0.4303 -0.0876  0.1065
 6796TIP3    H141803   3.803   2.232   6.099  0.7431  1.7129  0.0589
 6796TIP3    H241804   3.748   2.269   6.234 -0.0342  0.3991  0.1210
 6797TIP3   OH241805   6.586   1.271   0.251  0.3633  0.7515 -0.0444
 6797TIP3    H141806   6.578   1.206   0.181 -1.1643  0.7200  0.1285
 6797TIP3    H241807   6.678   1.295   0.250  0.5943 -0.0576 -1.3378
 6798TIP3   OH241808   0.248   5.405   2.835  0.0375 -0.1135  0.5282
 6798TIP3    H141809   0.269   5.484   2.786 -0.8097  1.2567  2.2402
 6798TIP3    H241810   0.162   5.379   2.804  0.2385 -0.2625  0.0898
 6799TIP3   OH241811   0.865   3.670   2.415  0.0685  0.1395  0.4719
 6799TIP3    H141812   0.833   3.580   2.411  1.4403 -0.3963  0.9422
 6799TIP3    H241813   0.899   3.680   2.504  2.9230  0.0007 -0.4934
 6800TIP3   OH241814   6.271   6.651   6.049  0.0898  0.1251  0.0112
 6800TIP3    H141815   6.357   6.673   6.014  0.4247 -1.9217 -0.5724
 6800TIP3    H241816   6.286   6.634   6.142  0.7864 -2.3531 -0.5029
 6801TIP3   OH241817   5.585   1.458  11.883 -0.0818  0.4636 -0.0514
 6801TIP3    H141818   5.608   1.420  11.798  3.2356 -0.7846  1.2557
 6801TIP3    H241819   5.658   1.515  11.905 -1.6796  2.1342  1.2649
 6802TIP3   OH241820   6.426   1.150   0.625 -0.2340  0.1309 -0.6985
 6802TIP3    H141821   6.348   1.102   0.650 -1.5555  2.6706  0.4951
 6802TIP3    H241822   6.498   1.106   0.669 -1.3275 -0.8714  0.1298
 6803TIP3   OH241823   4.195   1.201   3.847 -0.1443 -0.3088  0.5020
 6803TIP3    H141824   4.221   1.215   3.756 -1.9840 -0.0592 -0.0266
 6803TIP3    H241825   4.269   1.234   3.898  0.8769 -0.3501 -0.8837
 6804TIP3   OH241826   4.358   1.857  12.309 -0.3468 -0.7026  0.1549
 6804TIP3    H141827   4.398   1.879  12.393 -0.4153 -0.0528  0.0184
 6804TIP3    H241828   4.399   1.773  12.285  2.7067  0.9605 -1.0565
 6805TIP3   OH241829   2.384   3.583  17.134 -0.2397  0.2755  0.2219
 6805TIP3    H141830   2.289   3.588  17.140 -0.2040  0.7360  0.4589
 6805TIP3    H241831   2.413   3.674  17.127  0.1031  0.0893 -1.2072
 6806TIP3   OH241832   5.649   6.017  14.302  0.2171  0.1764 -0.4401
 6806TIP3    H141833   5.590   5.968  14.244 -0.7361  0.0990  0.5660
 6806TIP3    H241834   5.736   5.994  14.271 -0.2405 -1.0529 -0.9047
 6807TIP3   OH241835   2.530   1.091  15.142 -0.3635  0.5285 -0.0403
 6807TIP3    H141836   2.495   1.108  15.055  0.2626  0.6220 -0.2817
 6807TIP3    H241837   2.605   1.033  15.127 -1.7292 -1.5066  0.6641
 6808TIP3   OH241838   2.269   5.629  11.699 -0.0959  0.7384 -0.0067
 6808TIP3    H141839   2.290   5.598  11.611 -1.0554 -1.7626  0.5706
 6808TIP3    H241840   2.335   5.590  11.755 -0.4931  0.9103  0.5916
 6809TIP3   OH241841   1.924   4.067  15.653  0.0716  0.2922 -0.3416
 6809TIP3    H141842   1.924   4.035  15.563  1.6954  3.1609 -1.5085
 6809TIP3    H241843   1.960   3.995  15.705 -1.0574 -1.4939 -1.8920
 6810TIP3   OH241844   6.729   5.500  15.927 -0.3328  0.0230  0.4102
 6810TIP3    H141845   6.733   5.493  15.832  1.3648 -2.3378  0.5616
 6810TIP3    H241846   6.804   5.555  15.950  1.0394 -1.7612  0.4572
 6811TIP3   OH241847   4.889   1.956   0.373 -0.0484 -0.3434 -0.4172
 6811TIP3    H141848   4.821   1.895   0.344 -0.8022 -0.9765  2.3867
 6811TIP3    H241849   4.843   2.020   0.428  1.4206 -0.1263  0.6429
 6812TIP3   OH241850   2.577   2.663  15.342  0.3847  0.2291 -0.4230
 6812TIP3    H141851   2.647   2.653  15.405  0.1162  0.2214 -0.1241
 6812TIP3    H241852   2.526   2.738  15.373 -0.7774 -0.8441  0.3739
 6813TIP3   OH241853   0.100   6.260  14.038  0.0100  0.0097 -0.1136
 6813TIP3    H141854   0.168   6.327  14.025 -0.7365  0.8784  0.3986
 6813TIP3    H241855   0.142   6.193  14.093  0.5262  0.4146 -0.0139
 6814TIP3   OH241856   3.948   5.822  10.680 -0.1237 -0.0008  0.6213
 6814TIP3    H141857   4.037   5.834  10.714 -0.6952  1.6755  1.6406
 6814TIP3    H241858   3.906   5.907  10.690 -2.3169 -1.0881  1.5259
 6815TIP3   OH241859   1.449   0.273  14.593 -0.0854 -0.5749  0.2460
 6815TIP3    H141860   1.481   0.207  14.654 -0.3261 -0.6749  0.2647
 6815TIP3    H241861   1.520   0.337  14.587  0.4458 -1.1956 -0.3222
 6816TIP3   OH241862   1.765   0.609  16.619 -0.4526 -0.1376 -0.4143
 6816TIP3    H141863   1.722   0.695  16.613  0.1651  0.0789 -2.4874
 6816TIP3    H241864   1.700   0.553  16.662 -2.3349  0.5136 -2.2233
 6817TIP3   OH241865   4.736   4.325  12.456  0.2791  0.4935 -0.0762
 6817TIP3    H141866   4.749   4.345  12.549  0.9029  1.0703 -0.2812
 6817TIP3    H241867   4.796   4.253  12.439 -1.1783 -0.8916  0.3975
 6818TIP3   OH241868   3.499   1.187  13.828  0.4420  0.3432  0.2818
 6818TIP3    H141869   3.413   1.162  13.794 -0.5976 -1.2075  3.6282
 6818TIP3    H241870   3.492   1.282  13.843 -0.5780  0.2878  0.2245
 6819TIP3   OH241871   6.093   3.860  14.590 -0.3205 -0.0882 -0.1361
 6819TIP3    H141872   6.025   3.905  14.639  0.2591  0.3711  0.2677
 6819TIP3    H241873   6.111   3.780  14.639 -0.7518 -0.3455 -0.3911
 6820TIP3   OH241874   2.661   1.501   5.385  0.0863  0.2368  0.2070
 6820TIP3    H141875   2.715   1.572   5.350 -2.0903  0.3610 -3.3145
 6820TIP3    H241876   2.590   1.546   5.431  0.1967  0.2406  0.3746
 6821TIP3   OH241877   2.872   6.575   3.248 -0.8423 -0.3255 -0.0427
 6821TIP3    H141878   2.925   6.580   3.328 -2.7915 -2.7385  1.5185
 6821TIP3    H241879   2.796   6.630   3.266 -0.6767  0.1890 -0.8288
 6822TIP3   OH241880   3.950   3.768  13.527 -0.5784  0.1344 -0.2095
 6822TIP3    H141881   3.951   3.827  13.603 -1.3442  0.4742 -0.4459
 6822TIP3    H241882   3.957   3.827  13.451  0.2984 -0.2108 -0.3993
 6823TIP3   OH241883   1.374   1.804   3.236 -0.2956 -0.0541 -0.5737
 6823TIP3    H141884   1.286   1.837   3.217 -0.1672  1.3272  1.0325
 6823TIP3    H241885   1.409   1.865   3.301  0.7406 -2.2404  1.0383
 6824TIP3   OH241886   4.694   0.303   0.476 -0.3607  0.5480 -0.8010
 6824TIP3    H141887   4.677   0.226   0.422 -1.5703  0.6571 -0.6164
 6824TIP3    H241888   4.663   0.376   0.423 -2.4595  0.5744  0.3631
 6825TIP3   OH241889   0.179   1.258  13.411 -0.1014  0.1662  0.2365
 6825TIP3    H141890   0.210   1.205  13.484  0.5134 -0.1091 -0.2116
 6825TIP3    H241891   0.145   1.194  13.348 -1.2768  0.4410  0.5646
 6826TIP3   OH241892   1.818   3.907   1.018 -0.2217  0.1782  0.0581
 6826TIP3    H141893   1.752   3.964   1.058 -0.6946  0.2426 -0.8014
 6826TIP3    H241894   1.791   3.900   0.926  0.5518 -0.3988 -0.1286
 6827TIP3   OH241895   0.722   1.188  13.478  0.1589 -0.7429 -0.2089
 6827TIP3    H141896   0.705   1.173  13.385  0.1846 -4.6687  0.2673
 6827TIP3    H241897   0.656   1.252  13.504  1.1237  1.7056 -3.1381
 6828TIP3   OH241898   5.021   6.105  16.089 -0.0067  0.0438  0.3196
 6828TIP3    H141899   4.927   6.084  16.090  0.3543 -1.7332  1.7283
 6828TIP3    H241900   5.031   6.170  16.159 -0.1035 -0.1017  0.4680
 6829TIP3   OH241901   4.790   1.235   4.255  0.5872 -0.3531 -0.0121
 6829TIP3    H141902   4.810   1.321   4.292 -1.4989 -0.5624  1.8329
 6829TIP3    H241903   4.873   1.188   4.255  0.9583  0.0966  3.4706
 6830TIP3   OH241904   4.383   0.718   0.160 -0.5769 -0.5032  0.3609
 6830TIP3    H141905   4.446   0.699   0.091 -1.6173  0.1555 -0.7957
 6830TIP3    H241906   4.353   0.633   0.191  0.4627 -0.8078  0.5510
 6831TIP3   OH241907   2.280   2.787   3.313 -0.5145 -0.3078 -0.1522
 6831TIP3    H141908   2.195   2.776   3.356 -0.6328 -1.1054 -0.5652
 6831TIP3    H241909   2.319   2.863   3.356  0.0289 -1.9330  2.4741
 6832TIP3   OH241910   5.042   2.175   0.567  0.2183  0.1956 -0.4097
 6832TIP3    H141911   5.125   2.140   0.598 -0.3689 -2.1541 -1.2831
 6832TIP3    H241912   5.060   2.203   0.477  0.2487  0.4324 -0.3304
 6833TIP3   OH241913   2.262   3.080  16.993 -0.2779  0.4391 -0.0524
 6833TIP3    H141914   2.309   3.066  16.910  2.6604 -1.4599  1.7044
 6833TIP3    H241915   2.301   3.160  17.029 -0.6816  0.6015  0.0206
 6834TIP3   OH241916   2.256   5.199  14.771  0.0967  0.2795  0.5995
 6834TIP3    H141917   2.167   5.232  14.783  0.7530  1.8323  1.4995
 6834TIP3    H241918   2.308   5.245  14.837  1.8690  0.6173 -0.9453
 6835TIP3   OH241919   5.458   6.188  16.771 -0.3555 -0.4155 -0.2551
 6835TIP3    H141920   5.480   6.114  16.828 -1.3381  0.5324  1.4395
 6835TIP3    H241921   5.501   6.263  16.812  0.4144  0.0163 -1.8034
 6836TIP3   OH241922   1.480   2.913  15.762  0.2309  0.1952 -0.6005
 6836TIP3    H141923   1.518   2.963  15.690  1.7732 -0.4427 -0.2734
 6836TIP3    H241924   1.436   2.978  15.816 -2.8934  0.4737 -3.1514
 6837TIP3   OH241925   5.359   2.551  11.957  0.1324 -0.2892  0.0090
 6837TIP3    H141926   5.398   2.593  12.034  1.6710  1.0889 -1.4527
 6837TIP3    H241927   5.289   2.611  11.930 -0.5712 -0.8936  0.4187
 6838TIP3   OH241928   2.777   3.793   1.806 -0.3623  0.5038 -0.0476
 6838TIP3    H141929   2.789   3.789   1.901 -3.0566 -0.4966  0.3433
 6838TIP3    H241930   2.808   3.880   1.781 -1.8085  1.7592  2.1671
 6839TIP3   OH241931   0.644   0.297  14.612  0.5683 -0.4994 -0.0946
 6839TIP3    H141932   0.587   0.234  14.655  1.0567 -1.4302 -0.7621
 6839TIP3    H241933   0.613   0.300  14.521  0.7910 -0.0763 -0.1591
 6840TIP3   OH241934   5.690   1.207   3.633 -0.6572  0.5534 -0.4683
 6840TIP3    H141935   5.682   1.125   3.683  0.2271 -0.5599 -2.0705
 6840TIP3    H241936   5.751   1.260   3.683 -0.3410 -0.2413  0.0095
 6841TIP3   OH241937   2.798   6.060   0.012 -0.4513  0.0094 -0.1751
 6841TIP3    H141938   2.739   5.986  -0.003 -0.3901  0.2329 -1.6124
 6841TIP3    H241939   2.794   6.112  -0.068 -1.0592  2.0053  1.0698
 6842TIP3   OH241940   1.483   3.960   3.720 -0.6327 -0.2784  0.1499
 6842TIP3    H141941   1.563   3.986   3.765 -1.1230 -1.6930  1.9684
 6842TIP3    H241942   1.414   3.971   3.786 -1.5596 -1.4165 -0.5915
 6843TIP3   OH241943   0.542   6.048   0.235  0.2274  0.3770  0.6659
 6843TIP3    H141944   0.468   6.028   0.177 -1.1780  1.0795  2.1253
 6843TIP3    H241945   0.589   6.118   0.192  1.6916 -1.8199 -1.5852
 6844TIP3   OH241946   4.103   6.507  14.865  0.0817  0.2130 -0.3355
 6844TIP3    H141947   4.090   6.590  14.909 -0.5064  0.7113 -1.4116
 6844TIP3    H241948   4.198   6.500  14.854  0.3050 -0.2425  1.5546
 6845TIP3   OH241949   0.556   6.069  15.605 -0.2248  0.9079 -0.6531
 6845TIP3    H141950   0.631   6.037  15.555 -1.7409  1.2466 -3.3668
 6845TIP3    H241951   0.490   6.000  15.596 -0.3830  0.7161  1.4728
 6846TIP3   OH241952   1.740   5.660  16.340 -0.5371  0.3686  0.0814
 6846TIP3    H141953   1.726   5.753  16.359  0.0154  0.5408 -0.3211
 6846TIP3    H241954   1.760   5.621  16.426  1.2493  1.0155  0.0118
 6847TIP3   OH241955   3.196   4.234  13.615 -0.0566  0.3551  0.4437
 6847TIP3    H141956   3.172   4.200  13.701 -0.0025  0.3220  0.4459
 6847TIP3    H241957   3.279   4.190  13.595  0.1303  0.6558  0.5463
 6848TIP3   OH241958   0.855   1.519   4.388 -0.3036  0.5253  0.5722
 6848TIP3    H141959   0.769   1.516   4.430  0.3466  3.1569  2.3706
 6848TIP3    H241960   0.847   1.587   4.322 -0.2825 -1.0811 -1.1615
 6849TIP3   OH241961   2.881   1.897  15.408 -0.0995  0.0741  0.7721
 6849TIP3    H141962   2.879   1.869  15.317 -0.2069  0.8723  0.5205
 6849TIP3    H241963   2.859   1.818  15.458  0.7657 -0.5639  0.1663
 6850TIP3   OH241964   3.079   5.257   4.547  0.1226 -0.6600 -0.2174
 6850TIP3    H141965   3.091   5.224   4.458  0.1222  0.3687 -0.6179
 6850TIP3    H241966   3.022   5.334   4.536  0.2468 -0.4380  0.6527
 6851TIP3   OH241967   1.241   0.333  16.164  0.0999  0.0968  0.0155
 6851TIP3    H141968   1.323   0.295  16.197 -0.1780 -0.4913  0.0532
 6851TIP3    H241969   1.176   0.312  16.232 -0.4318 -0.9195 -0.7730
 6852TIP3   OH241970   4.185   2.493   5.703  0.6845 -0.1844 -0.0079
 6852TIP3    H141971   4.199   2.484   5.797 -1.2924 -0.5046  0.2917
 6852TIP3    H241972   4.247   2.561   5.676  1.9934 -0.7849  1.3142
 6853TIP3   OH241973   3.493   1.638  16.668  0.1553  0.2119 -0.1782
 6853TIP3    H141974   3.543   1.595  16.598 -0.0742  0.3703 -0.4409
 6853TIP3    H241975   3.457   1.717  16.627  1.3584  1.1708  0.5596
 6854TIP3   OH241976   2.907   2.150   5.450 -0.0728 -0.3605  0.2054
 6854TIP3    H141977   2.949   2.100   5.380  1.3256  0.8302  0.1428
 6854TIP3    H241978   2.953   2.123   5.530 -2.6873 -2.8911  1.0155
 6855TIP3   OH241979   5.862   3.813  13.306 -0.0518 -0.0347  0.3287
 6855TIP3    H141980   5.921   3.866  13.359 -0.8537  1.7665 -0.5040
 6855TIP3    H241981   5.898   3.819  13.217 -1.1053  0.5339 -0.0725
 6856TIP3   OH241982   1.707   6.134  14.525 -0.2691 -0.4901 -0.8459
 6856TIP3    H141983   1.657   6.141  14.607 -1.4456  1.1387 -1.6366
 6856TIP3    H241984   1.758   6.215  14.522  1.4397 -1.5254 -0.7162
 6857TIP3   OH241985   4.387   2.307  12.422  0.1682 -0.2674 -0.2005
 6857TIP3    H141986   4.293   2.316  12.438  0.0694 -0.2927 -0.7439
 6857TIP3    H241987   4.393   2.248  12.347  0.6321 -0.5248  0.0313
 6858TIP3   OH241988   2.155   5.389  12.656 -1.1287 -0.0104 -0.5392
 6858TIP3    H141989   2.086   5.441  12.615 -1.7641  2.1859  2.9344
 6858TIP3    H241990   2.237   5.425  12.621 -1.6045  2.5611  0.7692
 6859TIP3   OH241991   6.175   3.345   3.421  0.4727  0.1728 -0.0382
 6859TIP3    H141992   6.190   3.260   3.380  2.5021  0.5492 -0.1958
 6859TIP3    H241993   6.223   3.340   3.505 -0.4071  0.7419  0.5113
 6860TIP3   OH241994   0.187   5.653   1.159 -0.6335 -0.1284 -0.6403
 6860TIP3    H141995   0.100   5.672   1.194 -1.0220 -0.0361 -1.6216
 6860TIP3    H241996   0.170   5.616   1.072  0.3011 -0.3893 -0.7207
 6861TIP3   OH241997   0.659   2.801  15.650  0.1989 -0.4461  0.0087
 6861TIP3    H141998   0.651   2.834  15.561  1.2819  0.8391  0.3493
 6861TIP3    H241999   0.731   2.852  15.688  0.1957 -1.4224  1.4102
 6862TIP3   OH242000   2.871   6.714   4.987 -0.3076  0.0948  0.7399
 6862TIP3    H142001   2.926   6.791   4.972 -1.4096  0.5038 -1.6243
 6862TIP3    H242002   2.909   6.646   4.930 -0.9110 -0.3180  0.8222
 6863TIP3   OH242003   5.301   2.495  15.356 -0.3323 -0.1960 -0.0687
 6863TIP3    H142004   5.267   2.559  15.294 -1.7603  0.4682  1.3210
 6863TIP3    H242005   5.383   2.532  15.387  0.2392 -0.3927 -1.3023
 6864TIP3   OH242006   0.865   3.406   3.250  0.2495 -0.6925  0.6884
 6864TIP3    H142007   0.858   3.482   3.192  3.2215 -1.3947 -0.8168
 6864TIP3    H242008   0.907   3.440   3.329 -2.0995 -0.0939  1.7572
 6865TIP3   OH242009   2.548   1.223   0.920 -0.9951  0.3399 -0.4846
 6865TIP3    H142010   2.504   1.302   0.889  0.2868  0.4785 -2.1376
 6865TIP3    H242011   2.551   1.165   0.843  1.9549  0.5169 -0.6377
 6866TIP3   OH242012   2.579   3.353   3.149  0.4092 -0.3091 -0.7684
 6866TIP3    H142013   2.553   3.362   3.241  0.3214  0.1450 -0.8368
 6866TIP3    H242014   2.531   3.422   3.104  1.4389  0.3039 -0.9622
 6867TIP3   OH242015   1.043   2.042  14.777  0.3127 -0.2354 -0.7366
 6867TIP3    H142016   1.094   1.962  14.795  0.0177 -0.1215  0.7745
 6867TIP3    H242017   1.087   2.110  14.828 -1.9406 -0.3738  1.5745
 6868TIP3   OH242018   5.219   0.982  11.605  0.0084  0.2782 -0.4628
 6868TIP3    H142019   5.239   1.065  11.649  1.5153  0.5896 -1.6419
 6868TIP3    H242020   5.124   0.974  11.611 -0.0203  1.2511  1.1110
 6869TIP3   OH242021   4.328   0.618   3.720 -0.1923 -0.1823  0.4856
 6869TIP3    H142022   4.267   0.560   3.765 -1.2978  1.8163  1.7401
 6869TIP3    H242023   4.271   0.674   3.667  0.8445 -0.2834 -0.7862
 6870TIP3   OH242024   0.505   6.468  16.387 -0.4245  0.1919 -0.4235
 6870TIP3    H142025   0.587   6.428  16.417  0.2170  1.7187 -0.0599
 6870TIP3    H242026   0.526   6.504  16.301 -0.6391  0.7857 -0.2331
 6871TIP3   OH242027   1.256   2.286   2.173 -0.1989  0.2109 -0.5753
 6871TIP3    H142028   1.265   2.377   2.201 -1.8762  0.2205  0.0798
 6871TIP3    H242029   1.232   2.240   2.254 -1.1775 -0.4726 -1.2355
 6872TIP3   OH242030   2.750   5.985   3.383  0.0833  0.3675  0.4217
 6872TIP3    H142031   2.750   5.919   3.451  0.9691  0.9364  0.9896
 6872TIP3    H242032   2.658   5.991   3.355 -0.5183  1.0292  2.4372
 6873TIP3   OH242033   3.146   3.143  16.280  0.1387  0.2650 -0.2069
 6873TIP3    H142034   3.154   3.213  16.214 -1.3653 -0.1940 -0.9225
 6873TIP3    H242035   3.052   3.125  16.284  0.3698 -0.8058  0.9541
 6874TIP3   OH242036   1.969   2.517   0.923 -0.2394 -0.2013  0.8338
 6874TIP3    H142037   1.889   2.556   0.889 -0.6147 -0.0014  1.9337
 6874TIP3    H242038   1.941   2.467   1.000  0.5719 -0.7864  0.7661
 6875TIP3   OH242039   4.324   0.612   0.726 -0.5155 -0.4248  0.0109
 6875TIP3    H142040   4.276   0.551   0.781 -0.8469 -0.6650 -0.5360
 6875TIP3    H242041   4.417   0.591   0.741 -0.6364 -2.5967 -1.8416
 6876TIP3   OH242042   3.373   3.757  17.071 -0.4885  0.4859 -0.1731
 6876TIP3    H142043   3.353   3.673  17.113 -2.4425  1.0316  0.1013
 6876TIP3    H242044   3.458   3.744  17.029 -0.9650 -1.7924 -0.5601
 6877TIP3   OH242045   0.009   4.587   1.035  0.6064 -0.6567 -0.0789
 6877TIP3    H142046  -0.050   4.652   0.994 -0.0179 -1.2593 -0.1654
 6877TIP3    H242047   0.013   4.613   1.127 -0.5359 -1.1304  0.1190
 6878TIP3   OH242048   1.498   0.480   0.707  0.2570 -0.0854  0.3732
 6878TIP3    H142049   1.492   0.541   0.634 -1.9189  0.3084  0.8080
 6878TIP3    H242050   1.577   0.507   0.754 -0.4919  2.2780  0.3990
 6879TIP3   OH242051   2.293   2.673   1.285 -0.4746  0.3570 -0.2116
 6879TIP3    H142052   2.273   2.744   1.224 -2.7288  0.1769  0.2357
 6879TIP3    H242053   2.218   2.671   1.345  0.7198 -0.7852  1.3330
 6880TIP3   OH242054   4.407   2.312   1.947 -0.7554  0.1513 -0.2688
 6880TIP3    H142055   4.354   2.382   1.909  1.0636  0.8048 -1.7736
 6880TIP3    H242056   4.375   2.233   1.903 -1.7007  0.2463  0.2111
 6881TIP3   OH242057   5.283   1.676   0.639  0.2049 -0.3726  0.2452
 6881TIP3    H142058   5.238   1.592   0.623 -0.9700  0.2033  0.3892
 6881TIP3    H242059   5.211   1.738   0.651  0.9387  1.3192 -3.0127
 6882TIP3   OH242060   0.893   3.008  16.822 -0.2146  0.2727 -0.7131
 6882TIP3    H142061   0.901   2.926  16.870  1.5109 -0.5984 -2.3554
 6882TIP3    H242062   0.979   3.051  16.833 -1.0279  1.8171 -0.0079
 6883TIP3   OH242063   0.542   0.287  15.222  0.2688 -0.4038  0.3189
 6883TIP3    H142064   0.451   0.267  15.244  0.1532  0.8964  1.1725
 6883TIP3    H242065   0.555   0.249  15.135 -1.4477  0.3861 -0.3345
 6884TIP3   OH242066   5.439   4.044   2.130 -1.1657  0.5778  0.6339
 6884TIP3    H142067   5.510   3.983   2.109 -1.3473  1.0282 -1.5631
 6884TIP3    H242068   5.483   4.129   2.138 -1.2506  0.5928  0.9239
 6885TIP3   OH242069   5.605   2.301   1.430 -0.1037  0.3185 -0.1122
 6885TIP3    H142070   5.643   2.376   1.385  0.6509  0.9086  1.4090
 6885TIP3    H242071   5.681   2.249   1.458 -0.4152  0.8925  1.9597
 6886TIP3   OH242072   5.621   6.241  12.715 -0.0717  0.6148 -0.1495
 6886TIP3    H142073   5.623   6.302  12.789  0.0826  0.2815  0.1285
 6886TIP3    H242074   5.531   6.206  12.716  0.2218 -0.1594  0.5333
 6887TIP3   OH242075   2.909   6.364   2.569 -0.2088  0.2899  0.4529
 6887TIP3    H142076   2.816   6.365   2.547  0.0784 -1.5099 -1.1577
 6887TIP3    H242077   2.917   6.295   2.635  0.0586 -0.0480  0.0723
 6888TIP3   OH242078   6.027   4.350   0.847 -0.0538 -0.0978  0.4855
 6888TIP3    H142079   6.014   4.432   0.895  0.0979  0.0650  0.2528
 6888TIP3    H242080   5.970   4.359   0.770  1.3244  0.5904 -0.5062
 6889TIP3   OH242081   6.708   2.176  16.036 -0.2096  0.5571 -0.3937
 6889TIP3    H142082   6.680   2.144  16.122  0.5174  1.9228  0.3821
 6889TIP3    H242083   6.675   2.110  15.974  0.7871 -1.4022  1.0487
 6890TIP3   OH242084   2.003   0.420   2.946  0.5436  0.0973 -0.3830
 6890TIP3    H142085   2.019   0.384   3.033  0.7210  0.6765 -0.1701
 6890TIP3    H242086   2.046   0.505   2.947  0.7752  0.0034 -1.1237
 6891TIP3   OH242087   4.045   4.647   5.041  0.8412  0.1445  0.2482
 6891TIP3    H142088   4.081   4.647   5.129 -1.5297 -1.0922  1.3133
 6891TIP3    H242089   4.059   4.557   5.010 -0.1169 -0.0006  0.1992
 6892TIP3   OH242090   0.250   4.010   5.706  0.0758 -0.3762  0.4520
 6892TIP3    H142091   0.281   3.928   5.743  0.7996 -0.4395 -0.2629
 6892TIP3    H242092   0.155   3.999   5.700 -0.1843 -0.1012  2.8786
 6893TIP3   OH242093   1.170   5.965   4.937 -0.1642 -0.5099 -0.4218
 6893TIP3    H142094   1.170   5.877   4.900 -1.4888 -0.3580 -0.8122
 6893TIP3    H242095   1.082   5.977   4.974 -0.3477  1.0017 -1.2503
 6894TIP3   OH242096   5.746   3.978   4.438  0.6440 -0.3184  0.2692
 6894TIP3    H142097   5.841   3.964   4.441  0.7453  0.3886  0.9910
 6894TIP3    H242098   5.719   3.946   4.352  1.6892  0.3514 -0.3277
 6895TIP3   OH242099   3.814   0.053  16.762 -0.3169  0.1282 -0.6670
 6895TIP3    H142100   3.828   0.044  16.856 -0.1697  1.9174 -0.4725
 6895TIP3    H242101   3.773  -0.029  16.736  1.3124 -1.1644  0.5994
 6896TIP3   OH242102   5.297   5.988   1.739  0.7543 -0.2878 -0.4232
 6896TIP3    H142103   5.222   5.983   1.680 -0.8988  0.3679  1.5006
 6896TIP3    H242104   5.369   6.015   1.683 -0.6323 -0.0791 -2.2139
 6897TIP3   OH242105   5.947   3.432  15.628  0.2668  0.2090  0.1071
 6897TIP3    H142106   6.031   3.387  15.638 -0.4200 -1.2023 -0.1301
 6897TIP3    H242107   5.963   3.500  15.563  1.1996 -0.1209 -0.0175
 6898TIP3   OH242108   2.949   2.203  10.498 -0.2438 -0.0875 -0.1709
 6898TIP3    H142109   2.942   2.287  10.451  0.4567 -0.7318 -1.4982
 6898TIP3    H242110   2.877   2.205  10.561 -4.6658 -1.1821 -4.5492
 6899TIP3   OH242111   6.296   5.270   2.793  0.1651  0.5261  0.0292
 6899TIP3    H142112   6.266   5.222   2.870  2.2312  0.7021  0.9980
 6899TIP3    H242113   6.386   5.295   2.813  0.3337  1.7185 -1.9199
 6900TIP3   OH242114   0.541   6.399   0.337 -0.1434 -0.6099  0.3471
 6900TIP3    H142115   0.577   6.480   0.303 -1.8621  0.1690  0.2509
 6900TIP3    H242116   0.572   6.331   0.277  1.0090  0.0154  0.2183
 6901TIP3   OH242117   6.143   0.751   1.131 -0.2939 -0.3215  0.2981
 6901TIP3    H142118   6.151   0.665   1.172 -1.1063 -0.6506 -0.2054
 6901TIP3    H242119   6.219   0.800   1.162 -0.5392 -0.7671  1.6769
 6902TIP3   OH242120   3.729   1.205  11.746  0.2434  0.3478 -0.3182
 6902TIP3    H142121   3.796   1.268  11.775  1.1344 -0.8866  0.4214
 6902TIP3    H242122   3.764   1.169  11.665  1.2860 -1.4140  0.8483
 6903TIP3   OH242123   0.213   3.444  11.879  0.6285  0.0601  0.3011
 6903TIP3    H142124   0.144   3.410  11.936 -0.8363  0.6585 -1.0445
 6903TIP3    H242125   0.197   3.538  11.876 -0.7570 -0.1641 -2.7882
 6904TIP3   OH242126   1.642   1.220   4.081  0.3828  0.6772 -0.1797
 6904TIP3    H142127   1.703   1.258   4.144  1.1402 -1.4673  0.4787
 6904TIP3    H242128   1.605   1.144   4.126 -1.1804  0.7002 -1.3431
 6905TIP3   OH242129   2.995   3.038  15.495 -0.3674  0.1587  0.9106
 6905TIP3    H142130   2.994   3.133  15.484 -0.5048  0.0512 -0.0800
 6905TIP3    H242131   3.008   3.004  15.407 -0.3969 -0.7464  1.2489
 6906TIP3   OH242132   1.232   0.755  14.837  0.2261  0.1738  0.3828
 6906TIP3    H142133   1.255   0.740  14.745  2.3083  0.2906  0.8347
 6906TIP3    H242134   1.316   0.748  14.884 -1.1900 -3.4343  2.7775
 6907TIP3   OH242135   3.481   4.280   5.561 -0.5716  1.3007 -0.2331
 6907TIP3    H142136   3.413   4.213   5.551  0.6502 -0.0107 -0.1246
 6907TIP3    H242137   3.517   4.291   5.473  0.8516 -0.0308  0.1186
 6908TIP3   OH242138   6.146   4.437   5.879  0.0151  0.5332  0.3266
 6908TIP3    H142139   6.188   4.415   5.962 -1.2429  0.9136  1.0841
 6908TIP3    H242140   6.058   4.464   5.903 -1.3843 -2.1000 -1.3818
 6909TIP3   OH242141   6.759   2.040   2.467 -0.2118 -0.3501  0.8858
 6909TIP3    H142142   6.751   2.013   2.376 -3.8559  1.9065  0.3530
 6909TIP3    H242143   6.755   1.958   2.517  0.9333 -1.5497 -0.8645
 6910TIP3   OH242144   2.854   0.687   5.867  0.0373  0.2010  0.2202
 6910TIP3    H142145   2.916   0.615   5.881 -1.4284 -0.9680  1.0491
 6910TIP3    H242146   2.768   0.647   5.881 -0.8525  2.0163  0.1957
 6911TIP3   OH242147   2.706   0.521  13.987  0.0609 -0.0469 -0.6099
 6911TIP3    H142148   2.649   0.506  13.912  0.2342  0.7429 -0.9064
 6911TIP3    H242149   2.795   0.519  13.951  0.0901  2.6554 -0.9043
 6912TIP3   OH242150   3.006   2.614   5.617 -0.2444 -1.0165  0.1625
 6912TIP3    H142151   3.100   2.615   5.600 -0.0680 -1.5426  1.0253
 6912TIP3    H242152   2.967   2.590   5.533  0.4201 -1.2105 -0.1015
 6913TIP3   OH242153   6.197   6.785  10.466  0.3736 -0.1757  0.1562
 6913TIP3    H142154   6.114   6.795  10.513  0.2154  0.4552 -0.2370
 6913TIP3    H242155   6.187   6.703  10.418 -0.1933  0.0923 -0.2004
 6914TIP3   OH242156   1.470   4.993  11.781  1.0078  0.1686  0.1971
 6914TIP3    H142157   1.494   5.070  11.729  0.5095 -0.7953 -1.5758
 6914TIP3    H242158   1.451   5.027  11.868 -1.4331  2.4313 -1.0724
 6915TIP3   OH242159   3.580   5.875   3.546 -0.4301  0.5737  0.3360
 6915TIP3    H142160   3.553   5.967   3.549  2.3738  1.4877  0.9384
 6915TIP3    H242161   3.584   5.847   3.637  0.7873  0.5939  0.3165
 6916TIP3   OH242162   4.135   1.709   4.082 -0.6541  0.1846  0.3102
 6916TIP3    H142163   4.136   1.619   4.115  1.8863  0.4204  1.0791
 6916TIP3    H242164   4.204   1.753   4.131 -2.2320  2.7434  0.3568
 6917TIP3   OH242165   1.381   1.407   0.450  0.2454 -0.2443  0.2204
 6917TIP3    H142166   1.469   1.378   0.475  0.3642 -0.8164 -0.8348
 6917TIP3    H242167   1.334   1.412   0.533  0.5867 -2.2318  0.5876
 6918TIP3   OH242168   2.042   1.296   2.841  0.0179 -0.1396 -0.1250
 6918TIP3    H142169   2.050   1.203   2.860 -0.3161 -0.3807 -1.1149
 6918TIP3    H242170   1.962   1.324   2.885 -1.2791 -0.9058 -1.8747
 6919TIP3   OH242171   3.421   3.582  13.043  0.5465  0.2259 -0.4806
 6919TIP3    H142172   3.426   3.677  13.050  0.2119  0.1944  0.2593
 6919TIP3    H242173   3.332   3.564  13.012  0.6000  0.1491 -0.5930
 6920TIP3   OH242174   4.563   3.139  15.139  0.1380 -0.2608  0.3047
 6920TIP3    H142175   4.510   3.063  15.112  1.3001 -1.9400  2.4344
 6920TIP3    H242176   4.652   3.116  15.110  0.6621 -0.1830  1.7922
 6921TIP3   OH242177   4.941   4.552  12.559  0.1077 -0.3623 -0.0269
 6921TIP3    H142178   5.031   4.578  12.578  0.4856 -0.8659 -1.0375
 6921TIP3    H242179   4.924   4.480  12.619  1.0856 -1.5678 -1.1366
 6922TIP3   OH242180   4.725   2.705   5.079  0.7097  0.0159  0.1196
 6922TIP3    H142181   4.652   2.711   5.017  0.1761 -1.3585  0.5736
 6922TIP3    H242182   4.707   2.775   5.143  1.2206  1.3783 -1.1782
 6923TIP3   OH242183   4.264   2.348   6.445  0.4686 -0.4431  0.6744
 6923TIP3    H142184   4.337   2.407   6.425 -0.7225  0.7121 -0.4998
 6923TIP3    H242185   4.195   2.406   6.478  0.2387 -1.5807  2.3323
 6924TIP3   OH242186   2.808   2.060  16.826 -0.1883 -0.2872  0.3439
 6924TIP3    H142187   2.863   2.125  16.871  1.8971 -0.7032 -1.3967
 6924TIP3    H242188   2.776   2.003  16.896  2.5576 -0.6728  1.4112
 6925TIP3   OH242189   4.113   1.733   1.756  0.0605  0.6455  0.2442
 6925TIP3    H142190   4.103   1.674   1.831  2.2689  0.2901  0.3270
 6925TIP3    H242191   4.038   1.792   1.762 -1.2147 -0.9771  1.2281
 6926TIP3   OH242192   3.300   2.128   6.088 -0.3854 -0.5374 -0.1172
 6926TIP3    H142193   3.344   2.186   6.150 -0.2948 -0.4289 -0.2821
 6926TIP3    H242194   3.207   2.144   6.101 -0.3901 -0.9879  0.4479
 6927TIP3   OH242195   6.349   3.698  16.719  0.3038  0.6892 -0.4579
 6927TIP3    H142196   6.407   3.646  16.665  0.9823 -0.1381  1.0015
 6927TIP3    H242197   6.304   3.756  16.658  1.0677 -0.1620 -1.8699
 6928TIP3   OH242198   3.091   3.780   1.312  0.0664  0.7930  0.2625
 6928TIP3    H142199   3.105   3.848   1.246 -0.0192  1.3847  0.8303
 6928TIP3    H242200   3.108   3.698   1.268 -0.9729  1.1069 -0.7786
 6929TIP3   OH242201   1.666   6.069  14.820  0.1987 -0.5876 -0.4394
 6929TIP3    H142202   1.591   6.030  14.867  1.5331 -0.4893  1.9627
 6929TIP3    H242203   1.668   6.160  14.849  1.4532 -0.6880 -0.1359
 6930TIP3   OH242204   5.246   6.303  16.212 -0.2233 -0.0929 -0.4595
 6930TIP3    H142205   5.328   6.341  16.242 -0.6113  0.6605 -0.3352
 6930TIP3    H242206   5.266   6.211  16.198  0.8232  0.2318 -1.1334
 6931TIP3   OH242207   6.508   4.282   5.047  0.1805  0.0031  0.1729
 6931TIP3    H142208   6.530   4.284   4.954 -0.5844  0.2286 -0.0095
 6931TIP3    H242209   6.541   4.364   5.081 -1.1252  0.7443 -0.2826
 6932TIP3   OH242210   3.742   4.897   1.539  0.0609 -0.3086 -0.1860
 6932TIP3    H142211   3.658   4.855   1.558  0.3829 -1.5127 -1.2981
 6932TIP3    H242212   3.719   4.983   1.505 -0.7239 -0.5964 -0.3960
 6933TIP3   OH242213   1.567   2.972  14.516 -1.0378  0.1283 -0.1833
 6933TIP3    H142214   1.584   3.003  14.427 -3.1281  0.9926 -0.3276
 6933TIP3    H242215   1.639   3.008  14.568 -1.0582  1.5964 -1.1259
 6934TIP3   OH242216   4.716   5.441  15.700  0.0234 -0.7523 -0.3200
 6934TIP3    H142217   4.736   5.447  15.794 -0.0867  4.0610 -0.3408
 6934TIP3    H242218   4.623   5.420  15.696  0.1513 -1.5546  0.5722
 6935TIP3   OH242219   1.403   1.944   3.698  0.4492  0.1137 -0.2910
 6935TIP3    H142220   1.340   1.883   3.659 -0.5547  1.9522 -1.7321
 6935TIP3    H242221   1.477   1.889   3.724 -0.4963 -1.7350 -1.2958
 6936TIP3   OH242222   1.033   0.669   5.090  0.0400  0.3304 -0.1705
 6936TIP3    H142223   1.023   0.752   5.137  2.1099 -0.1515  1.2665
 6936TIP3    H242224   0.992   0.604   5.147 -0.4312  0.1694 -0.6819
 6937TIP3   OH242225   3.656   1.210  15.285  0.0081  0.3237  0.3162
 6937TIP3    H142226   3.656   1.210  15.381  0.4156 -0.7148  0.3311
 6937TIP3    H242227   3.748   1.194  15.262  0.4095  3.0256 -0.2977
 6938TIP3   OH242228   3.412   6.766  13.856  0.2904 -0.3875  0.4573
 6938TIP3    H142229   3.420   6.808  13.770  0.7907 -2.3852 -0.5395
 6938TIP3    H242230   3.370   6.682  13.838 -1.5023 -0.0147  2.4810
 6939TIP3   OH242231   5.943   6.792   0.500  0.2136  0.2093  0.2572
 6939TIP3    H142232   6.002   6.726   0.463  0.5376  1.4550 -1.6080
 6939TIP3    H242233   5.940   6.861   0.434  1.3078  2.9566  2.8396
 6940TIP3   OH242234   5.421   5.874   1.129  0.5597 -0.0474  0.6663
 6940TIP3    H142235   5.461   5.961   1.135 -0.1344  0.3022  0.2169
 6940TIP3    H242236   5.483   5.823   1.076 -0.9606  1.3402 -2.7239
 6941TIP3   OH242237   6.584   1.676  10.471 -0.3807 -0.2626  0.1625
 6941TIP3    H142238   6.596   1.585  10.498  1.5580  0.4082  1.8070
 6941TIP3    H242239   6.625   1.682  10.385 -1.3306 -1.1098 -0.3707
 6942TIP3   OH242240   0.592   1.107  14.286  0.0965  0.5037 -0.4889
 6942TIP3    H142241   0.566   1.131  14.375  1.9302 -0.7229  0.4532
 6942TIP3    H242242   0.533   1.035  14.263  1.1032 -0.7674  0.7253
 6943TIP3   OH242243   1.043   2.635   3.174  0.2087 -0.3206  0.1504
 6943TIP3    H142244   1.113   2.696   3.200 -0.0233  0.2234 -0.4674
 6943TIP3    H242245   1.084   2.549   3.178  0.7641 -0.0565  0.3114
 6944TIP3   OH242246   5.765   2.994   0.180 -0.0911  0.0550 -0.2989
 6944TIP3    H142247   5.675   3.008   0.212  0.0253 -1.3596  0.7566
 6944TIP3    H242248   5.813   2.967   0.258  1.2009  0.5178 -0.9192
 6945TIP3   OH242249   4.563   4.248   5.343  0.8206  0.2125 -0.0849
 6945TIP3    H142250   4.589   4.172   5.395  1.4528  0.1139 -0.5367
 6945TIP3    H242251   4.592   4.323   5.395  0.4359  0.1413  0.2352
 6946TIP3   OH242252   1.968   1.218   4.031  0.2725  0.1448 -0.0965
 6946TIP3    H142253   1.891   1.162   4.019  0.2640  0.5666 -2.3727
 6946TIP3    H242254   2.043   1.158   4.021  0.2986 -0.1131  1.3265
 6947TIP3   OH242255   5.321   4.931   6.301  0.1202  0.4989  0.9149
 6947TIP3    H142256   5.406   4.919   6.343  0.6176 -0.1027 -0.2048
 6947TIP3    H242257   5.274   4.849   6.318  0.0033  0.5824  0.9987
 6948TIP3   OH242258   3.360   4.801  13.432  0.3321 -0.7793 -0.2302
 6948TIP3    H142259   3.333   4.890  13.411  1.5378 -0.4158 -0.2652
 6948TIP3    H242260   3.304   4.746  13.376  0.9651  0.0304 -1.7311
 6949TIP3   OH242261   3.795   4.062  14.139 -0.2894 -0.2238 -0.3166
 6949TIP3    H142262   3.854   4.102  14.204 -0.1498  1.3081 -1.3328
 6949TIP3    H242263   3.830   3.973  14.126  1.2960  0.3564 -0.2467
 6950TIP3   OH242264   5.497   1.570   0.978  0.2827 -0.2333  0.0414
 6950TIP3    H142265   5.451   1.553   0.896 -0.6466  1.0950  0.2629
 6950TIP3    H242266   5.498   1.485   1.023 -0.0707 -0.7487 -0.8904
 6951TIP3   OH242267   4.170   2.798   3.438 -0.2164  0.0561 -0.4075
 6951TIP3    H142268   4.141   2.726   3.494  0.8526  0.9356  1.3578
 6951TIP3    H242269   4.175   2.759   3.350 -0.6356 -1.7424  0.3148
 6952TIP3   OH242270   0.492   5.436  13.406  0.3329 -0.0524 -0.2467
 6952TIP3    H142271   0.462   5.491  13.478 -1.5304  0.5373 -1.3928
 6952TIP3    H242272   0.552   5.492  13.356 -0.6673  0.5970 -0.7642
 6953TIP3   OH242273   3.165   1.183   0.240  0.7770  0.0175  0.2861
 6953TIP3    H142274   3.145   1.261   0.188  1.0098 -0.2745 -0.2459
 6953TIP3    H242275   3.259   1.169   0.228  0.7226 -0.3853  0.3178
 6954TIP3   OH242276   3.913   1.686  11.537 -0.0108 -0.3099  0.1648
 6954TIP3    H142277   3.830   1.671  11.582 -0.5295  0.0773 -0.6315
 6954TIP3    H242278   3.897   1.655  11.448  0.8706 -0.7005  0.1353
 6955TIP3   OH242279   0.285   3.448   2.945  0.3248 -0.2497 -0.3984
 6955TIP3    H142280   0.282   3.538   2.913  1.2758 -0.2372 -0.4656
 6955TIP3    H242281   0.314   3.455   3.035 -2.5957 -0.2657  0.6470
 6956TIP3   OH242282   2.542   6.767  16.522  0.2490  0.3820  0.0109
 6956TIP3    H142283   2.588   6.708  16.582  2.2030  0.8938 -0.9133
 6956TIP3    H242284   2.584   6.853  16.536 -1.4150  1.2085  0.1506
 6957TIP3   OH242285   5.262   0.395   0.717 -0.1819  0.5609  0.0857
 6957TIP3    H142286   5.277   0.387   0.623 -0.2153 -0.2581  0.1424
 6957TIP3    H242287   5.178   0.441   0.724 -0.5818 -0.0827 -0.3066
 6958TIP3   OH242288   4.912   4.349  12.154  0.1562  0.4239 -0.8001
 6958TIP3    H142289   4.954   4.364  12.238 -0.6588  0.5750 -0.4105
 6958TIP3    H242290   4.870   4.432  12.132 -0.4658  0.0951 -0.8750
 6959TIP3   OH242291   3.178   3.270  14.668  0.4207  0.7682  0.6854
 6959TIP3    H142292   3.146   3.206  14.731  4.3671 -0.7288  1.4671
 6959TIP3    H242293   3.214   3.341  14.721 -0.3063  1.7464 -0.0810
 6960TIP3   OH242294   1.331   1.382   1.011  0.0399 -0.0555  0.5088
 6960TIP3    H142295   1.251   1.425   1.041 -1.0436 -1.6752  0.0585
 6960TIP3    H242296   1.376   1.449   0.958 -1.4913  0.5816 -0.0332
 6961TIP3   OH242297   0.078   6.014  13.852  0.2578  0.4497 -0.2208
 6961TIP3    H142298   0.092   5.947  13.785  0.5835 -0.7970  1.0164
 6961TIP3    H242299   0.049   6.091  13.805 -0.3959 -0.6571 -1.6880
 6962TIP3   OH242300   2.854   0.009  16.242 -0.4162 -0.0774 -0.1932
 6962TIP3    H142301   2.880   0.099  16.227  1.0202 -0.3434  0.5220
 6962TIP3    H242302   2.862  -0.003  16.337  0.2943 -1.1999 -0.3761
 6963TIP3   OH242303   1.083   6.572   6.371 -0.3657  0.1029  0.0394
 6963TIP3    H142304   1.128   6.635   6.315  1.1198  0.0262  1.0962
 6963TIP3    H242305   1.055   6.623   6.447  0.5516 -0.4270  0.7469
 6964TIP3   OH242306   4.710   0.642  11.154 -0.3039 -0.1301 -0.1797
 6964TIP3    H142307   4.688   0.571  11.093  0.6826 -1.3743  0.8657
 6964TIP3    H242308   4.764   0.702  11.102 -1.8882  0.3853 -1.3351
 6965TIP3   OH242309   2.562   2.997  16.880 -0.4675  0.0012 -0.3046
 6965TIP3    H142310   2.522   2.992  16.794 -0.9155  0.9961 -0.1647
 6965TIP3    H242311   2.521   2.926  16.930 -1.6765  0.6697 -0.3218
 6966TIP3   OH242312   6.389   1.337   2.854 -0.2372 -0.2293  0.0323
 6966TIP3    H142313   6.296   1.333   2.877 -0.4754 -0.3707 -0.8767
 6966TIP3    H242314   6.407   1.252   2.814  0.0750  0.0864 -0.5141
 6967TIP3   OH242315   5.982   2.692  14.650 -0.2012  0.0704  0.2884
 6967TIP3    H142316   5.914   2.625  14.660 -0.7385  0.6378  0.4698
 6967TIP3    H242317   6.061   2.643  14.625 -0.5641 -0.6397  0.5231
 6968TIP3   OH242318   4.634   3.883   1.777 -0.2696  0.3138 -0.0594
 6968TIP3    H142319   4.720   3.854   1.809 -0.9666 -3.4188 -1.0141
 6968TIP3    H242320   4.572   3.852   1.842 -1.0288  2.3117  0.2395
 6969TIP3   OH242321   4.997   5.107  16.571 -0.1100 -0.0059 -0.4008
 6969TIP3    H142322   4.969   5.102  16.662  1.7178  0.5603  0.2245
 6969TIP3    H242323   5.090   5.130  16.575  0.2829 -1.0059 -2.3873
 6970TIP3   OH242324   1.599   0.896   6.058  0.2256  0.0314  0.6381
 6970TIP3    H142325   1.626   0.869   6.146 -1.6915  2.3682  2.1026
 6970TIP3    H242326   1.648   0.977   6.042 -0.5075  0.4000  0.2035
 6971TIP3   OH242327   4.130   1.741  11.679  0.3540 -0.7063  0.1424
 6971TIP3    H142328   4.043   1.717  11.649 -0.3204 -0.3072  1.6830
 6971TIP3    H242329   4.132   1.837  11.674  1.2487 -0.7661 -1.2519
 6972TIP3   OH242330   1.457   2.402   3.120 -0.3243  0.2268  0.0001
 6972TIP3    H142331   1.475   2.415   3.213  0.4226  0.4917 -0.1778
 6972TIP3    H242332   1.542   2.380   3.082  0.4264  4.7631 -1.4747
 6973TIP3   OH242333   2.900   4.376  15.422 -0.1367  0.2821  0.5259
 6973TIP3    H142334   2.905   4.465  15.457 -0.3445  1.1517 -1.4911
 6973TIP3    H242335   2.814   4.345  15.450  0.3234  0.3098  2.0675
 6974TIP3   OH242336   2.107   3.139   2.689  0.1313 -0.1822 -0.2772
 6974TIP3    H142337   2.047   3.213   2.686 -1.3119 -1.2739  0.1961
 6974TIP3    H242338   2.110   3.114   2.782  2.6978  0.8658  0.0103
 6975TIP3   OH242339   3.019   4.147   0.465 -0.3167  0.4612  0.1912
 6975TIP3    H142340   3.072   4.174   0.390 -0.4637  1.5382  0.4533
 6975TIP3    H242341   2.996   4.056   0.447 -2.1774  1.2955 -2.1758
 6976TIP3   OH242342   1.925   0.866   1.265  0.1556  0.6158  0.1721
 6976TIP3    H142343   1.967   0.914   1.336  2.1465  1.1824 -1.2824
 6976TIP3    H242344   1.867   0.930   1.224  0.4899  0.8773  0.1019
 6977TIP3   OH242345   2.661   4.184  13.639 -0.7717 -0.1827  0.0670
 6977TIP3    H142346   2.739   4.144  13.602  0.1623  0.0513  1.6963
 6977TIP3    H242347   2.595   4.177  13.569  0.4075 -1.2369 -0.9932
 6978TIP3   OH242348   2.125   3.962   2.022 -0.3874 -0.2200  0.3906
 6978TIP3    H142349   2.217   3.989   2.027 -0.1772 -0.9983  0.9837
 6978TIP3    H242350   2.078   4.042   1.999  0.3225  0.4281  1.1200
 6979TIP3   OH242351   2.095   4.298  12.844  0.4544  0.0041  1.0959
 6979TIP3    H142352   2.176   4.264  12.808  0.3669  0.4997  0.4096
 6979TIP3    H242353   2.081   4.381  12.798 -2.4784 -1.8333 -1.8064
 6980TIP3   OH242354   2.048   4.991  15.296 -0.5425 -0.8400  0.4085
 6980TIP3    H142355   1.965   4.983  15.248 -1.5528 -1.3489  2.1657
 6980TIP3    H242356   2.112   4.946  15.240 -1.6081 -1.1740 -0.5950
 6981TIP3   OH242357   2.274   5.622   0.805  0.0034 -0.5865  0.9284
 6981TIP3    H142358   2.271   5.715   0.828  1.2668 -0.2959 -0.0207
 6981TIP3    H242359   2.217   5.614   0.728  1.1599 -0.2789  0.0201
 6982TIP3   OH242360   5.726   1.809  15.679 -0.5698  0.1562  0.4524
 6982TIP3    H142361   5.685   1.737  15.727 -1.1788 -1.7936 -2.7312
 6982TIP3    H242362   5.657   1.873  15.668 -0.5050  0.4956  1.8155
 6983TIP3   OH242363   2.070   3.670  14.323  0.1750  0.0169  0.1644
 6983TIP3    H142364   2.073   3.655  14.417  1.6222  1.9463  0.4848
 6983TIP3    H242365   2.077   3.582  14.285  1.5161 -0.6767  1.8501
 6984TIP3   OH242366   3.482   1.380  17.144  0.1666 -0.2133 -0.5081
 6984TIP3    H142367   3.487   1.468  17.182  1.0555 -0.9878  1.2973
 6984TIP3    H242368   3.569   1.365  17.107 -0.2190 -0.0585 -1.4912
 6985TIP3   OH242369   0.489   5.171   3.819 -0.3887  0.3291  0.4234
 6985TIP3    H142370   0.504   5.197   3.728 -0.3257  0.7768  0.5603
 6985TIP3    H242371   0.431   5.096   3.813 -0.2170  0.2274  0.0024
 6986TIP3   OH242372   2.469   2.547   2.800  0.0388 -0.6126 -0.0969
 6986TIP3    H142373   2.563   2.560   2.817 -0.0532 -0.6435  0.4687
 6986TIP3    H242374   2.439   2.630   2.764  0.0184 -0.1405  0.9603
 6987TIP3   OH242375   3.505   4.885   5.365  0.1429  0.0910 -0.5837
 6987TIP3    H142376   3.478   4.794   5.352  0.9390 -0.0703 -1.2061
 6987TIP3    H242377   3.472   4.931   5.288 -1.4772  0.6390  0.3884
 6988TIP3   OH242378   3.578   1.200   3.366 -0.6970 -0.2821 -0.2557
 6988TIP3    H142379   3.638   1.197   3.441 -1.1819 -1.0109  0.1115
 6988TIP3    H242380   3.618   1.263   3.306  0.2652 -0.5063  0.1317
 6989TIP3   OH242381   1.688   1.824   5.887  0.8458  0.1921  0.0107
 6989TIP3    H142382   1.688   1.910   5.846 -0.3984  0.1286 -0.1649
 6989TIP3    H242383   1.776   1.790   5.872  1.5395  1.6656  0.6126
 6990TIP3   OH242384   6.589   0.059  16.518  0.8321 -0.3098  0.3245
 6990TIP3    H142385   6.685   0.060  16.513  0.9127 -1.2826  1.4642
 6990TIP3    H242386   6.569   0.037  16.608 -0.5051  3.0786  1.0284
 6991TIP3   OH242387   2.248   2.244  15.565  0.2497 -0.2794  0.1069
 6991TIP3    H142388   2.203   2.250  15.481 -0.1921 -1.1427  0.2723
 6991TIP3    H242389   2.326   2.299  15.555 -0.0364 -0.0198 -0.7126
 6992TIP3   OH242390   6.463   5.744   1.176  0.1772 -0.0134  0.0396
 6992TIP3    H142391   6.467   5.763   1.270  0.0739 -1.4374  0.3483
 6992TIP3    H242392   6.533   5.681   1.162 -0.2307 -0.3032 -0.7192
 6993TIP3   OH242393   5.873   5.441  11.632  0.7319 -0.3556  0.3041
 6993TIP3    H142394   5.938   5.510  11.619  1.5542 -0.8796  1.4832
 6993TIP3    H242395   5.803   5.482  11.682  0.4501  0.0317 -0.3906
 6994TIP3   OH242396   1.865   2.859  12.262 -0.0450 -0.1118  0.2839
 6994TIP3    H142397   1.827   2.943  12.236 -0.6562 -1.2974 -3.1624
 6994TIP3    H242398   1.797   2.817  12.316 -0.4785  0.8416  0.4952
 6995TIP3   OH242399   6.350   6.735  12.746  0.0031  0.1796 -0.1584
 6995TIP3    H142400   6.429   6.775  12.710 -0.0995 -0.3300 -0.9666
 6995TIP3    H242401   6.345   6.769  12.835  0.7593  0.7499 -0.3232
 6996TIP3   OH242402   1.319   5.507  11.968  0.1505  0.5421 -0.4923
 6996TIP3    H142403   1.353   5.436  11.914  0.3067 -0.3348  0.7004
 6996TIP3    H242404   1.262   5.463  12.031  0.1636  1.4866  0.1947
 6997TIP3   OH242405   2.951   3.826   5.361 -0.0880  0.0102 -0.2104
 6997TIP3    H142406   2.950   3.867   5.275 -0.1339 -0.1832 -0.3024
 6997TIP3    H242407   3.006   3.749   5.351  0.5946  0.4453  0.1475
 6998TIP3   OH242408   1.646   1.828  13.875  0.2585  0.1612  0.0337
 6998TIP3    H142409   1.672   1.842  13.966 -0.9483 -2.2350  0.8354
 6998TIP3    H242410   1.728   1.811  13.829  0.7073 -1.0561  1.2157
 6999TIP3   OH242411   4.549   0.030   6.371 -0.0888  0.4419  0.3678
 6999TIP3    H142412   4.559   0.124   6.388  1.9756 -0.2105  3.6302
 6999TIP3    H242413   4.457   0.012   6.392 -1.1305  1.9433 -2.3327
 7000TIP3   OH242414   1.941   2.054   3.293  0.4254 -0.0677  0.1533
 7000TIP3    H142415   1.900   2.065   3.379 -0.4402  1.4064 -0.4215
 7000TIP3    H242416   1.887   1.989   3.249 -0.6510  1.0169 -0.1740
 7001TIP3   OH242417   2.113   1.807  16.942  0.1462 -0.5816 -0.6997
 7001TIP3    H142418   2.036   1.814  16.887 -0.8022 -0.8169  0.5529
 7001TIP3    H242419   2.099   1.728  16.994  0.2692  0.4447  0.9646
 7002TIP3   OH242420   4.104   1.379   2.394  0.2356 -0.2417 -0.0685
 7002TIP3    H142421   4.108   1.473   2.378  1.3933 -0.4510 -1.1578
 7002TIP3    H242422   4.196   1.351   2.399  0.0650 -1.7683 -2.9037
 7003TIP3   OH242423   4.339   0.735  12.542 -0.3015 -0.1672  0.0232
 7003TIP3    H142424   4.398   0.802  12.576 -2.2400  0.6072  2.1314
 7003TIP3    H242425   4.307   0.770  12.459  1.4028 -0.1662 -0.6631
 7004TIP3   OH242426   5.280   4.881  17.025 -0.4417  0.0049  0.4842
 7004TIP3    H142427   5.309   4.850  16.939  3.1861  0.7614  1.2852
 7004TIP3    H242428   5.264   4.975  17.012  1.8508  0.5069  0.9247
 7005TIP3   OH242429   6.413   1.749   4.330 -0.1896 -0.2304 -0.6726
 7005TIP3    H142430   6.333   1.708   4.298 -0.5484 -1.5288  1.6660
 7005TIP3    H242431   6.384   1.833   4.366 -0.6831 -0.9953  0.8022
 7006TIP3   OH242432   4.867   0.066  11.646  0.4421 -0.0570 -0.8349
 7006TIP3    H142433   4.864   0.065  11.741 -0.9531 -0.3768 -0.8527
 7006TIP3    H242434   4.948   0.022  11.623  2.1028  2.2133  0.2162
 7007TIP3   OH242435   2.137   0.755   4.377  0.2754 -0.5749 -0.4403
 7007TIP3    H142436   2.149   0.739   4.471  0.2012 -0.4132 -0.4029
 7007TIP3    H242437   2.137   0.668   4.338 -4.2446 -1.0933  0.2065
 7008TIP3   OH242438   0.002   2.121   0.816 -0.2146  0.1176  0.2931
 7008TIP3    H142439  -0.026   2.069   0.892 -0.9812  1.5462  1.0330
 7008TIP3    H242440   0.048   2.059   0.760  0.3613 -0.9997  1.9203
 7009TIP3   OH242441   0.782   6.059  13.382 -0.8856 -0.5533 -0.0577
 7009TIP3    H142442   0.785   5.997  13.455 -0.5327 -0.4178  0.0444
 7009TIP3    H242443   0.702   6.110  13.397 -0.5686 -0.2163  0.4895
 7010TIP3   OH242444   5.502   1.910   5.190 -0.1540  0.2985  0.2057
 7010TIP3    H142445   5.465   1.987   5.233 -1.4828  0.1383 -0.5954
 7010TIP3    H242446   5.455   1.836   5.228  1.3662 -0.2096  1.2391
 7011TIP3   OH242447   5.966   0.015  15.239 -0.3762  0.0249  0.7540
 7011TIP3    H142448   5.903  -0.002  15.309 -1.3384 -0.4251 -0.2005
 7011TIP3    H242449   5.982  -0.071  15.200  0.2578  0.2542  0.5015
 7012TIP3   OH242450   1.546   3.048  15.529  0.3858  0.3060  0.3571
 7012TIP3    H142451   1.614   3.074  15.467  0.8038 -0.4432  0.4943
 7012TIP3    H242452   1.466   3.091  15.496  0.5455 -0.2681 -0.8465
 7013TIP3   OH242453   1.940   3.703   4.428  0.1982 -0.7220  0.1745
 7013TIP3    H142454   1.940   3.611   4.452  0.2332 -1.3013 -1.8675
 7013TIP3    H242455   1.866   3.713   4.369  1.6781 -0.0638 -1.6780
 7014TIP3   OH242456   5.792   5.496  14.746 -0.1932 -0.5189  0.2615
 7014TIP3    H142457   5.725   5.503  14.678 -0.6056 -0.8051  0.6329
 7014TIP3    H242458   5.760   5.427  14.805 -0.1686  0.1639  1.1044
 7015TIP3   OH242459   2.823   5.048  14.599  0.2222  0.2107 -0.5418
 7015TIP3    H142460   2.763   5.098  14.655 -0.5757 -0.2484 -0.9710
 7015TIP3    H242461   2.823   5.096  14.516 -0.9168 -0.7252 -1.1153
 7016TIP3   OH242462   0.737   6.640   4.270  0.2158  0.4111  0.4709
 7016TIP3    H142463   0.749   6.729   4.301  1.7750 -0.4146  2.4314
 7016TIP3    H242464   0.815   6.621   4.219  0.1768 -0.0397  0.5755
 7017TIP3   OH242465   2.609   4.096  15.240 -0.0435  0.1444 -0.2511
 7017TIP3    H142466   2.593   4.002  15.249  1.8663 -0.5106 -2.5186
 7017TIP3    H242467   2.586   4.115  15.149  0.2088  1.7371  0.0019
 7018TIP3   OH242468   1.188   0.486  14.126 -0.2432 -0.0649 -1.0846
 7018TIP3    H142469   1.113   0.427  14.134 -1.1804  1.2371  0.1921
 7018TIP3    H242470   1.174   0.530  14.042 -1.1508  0.4748 -0.6603
 7019TIP3   OH242471   2.510   2.890   4.119 -0.1078  0.2141 -0.5057
 7019TIP3    H142472   2.416   2.903   4.134 -0.3044  0.3138 -1.7442
 7019TIP3    H242473   2.544   2.977   4.100  0.1430  0.1047 -0.5694
 7020TIP3   OH242474   1.809   4.172  14.345 -0.0458 -0.4847 -0.1752
 7020TIP3    H142475   1.765   4.244  14.299  0.1236 -0.3036 -0.0565
 7020TIP3    H242476   1.891   4.160  14.297  0.3491  0.0224  0.3570
 7021TIP3   OH242477   5.891   4.307  15.467 -0.3086 -0.2415  0.0386
 7021TIP3    H142478   5.818   4.310  15.405 -1.6236 -3.4153  1.2090
 7021TIP3    H242479   5.876   4.383  15.524 -1.3331  0.4832 -1.1272
 7022TIP3   OH242480   4.007   1.694  16.986 -0.2052 -0.4748  0.2824
 7022TIP3    H142481   4.063   1.769  16.968 -0.2087 -0.7110 -0.7731
 7022TIP3    H242482   3.974   1.667  16.900  0.0152 -1.8577  0.6079
 7023TIP3   OH242483   2.449   5.374   3.207  0.0788  0.1760  0.5645
 7023TIP3    H142484   2.532   5.413   3.181  0.3456  0.4970  1.8670
 7023TIP3    H242485   2.394   5.449   3.230 -0.4021 -0.0654  0.2265
 7024TIP3   OH242486   1.362   5.248   5.646 -0.4330  0.2694 -0.0186
 7024TIP3    H142487   1.402   5.305   5.580  1.1908  0.0122  0.6679
 7024TIP3    H242488   1.332   5.308   5.714  2.0452  0.3855  1.1105
 7025TIP3   OH242489   5.348   2.904  12.192 -0.1104 -0.3196 -0.1463
 7025TIP3    H142490   5.361   2.981  12.246 -0.5163  0.3853 -1.0221
 7025TIP3    H242491   5.268   2.923  12.142  1.0062 -0.3057 -2.0209
 7026TIP3   OH242492   1.739   0.656   5.354 -0.3636 -0.3253 -0.0236
 7026TIP3    H142493   1.689   0.577   5.377  1.1751 -1.7621 -1.3378
 7026TIP3    H242494   1.782   0.681   5.436 -0.5269 -1.1120  0.3152
 7027TIP3   OH242495   1.190   2.031  12.664 -0.1804 -0.0980  0.6848
 7027TIP3    H142496   1.111   2.071  12.628 -0.8188 -1.2182  0.7845
 7027TIP3    H242497   1.262   2.081  12.625 -0.9265  1.2259  0.9362
 7028TIP3   OH242498   1.032   2.989  12.221  0.0967  0.1288 -0.2271
 7028TIP3    H142499   0.997   3.067  12.264  0.4938 -0.2767  0.8707
 7028TIP3    H242500   1.109   2.965  12.274 -1.0777 -2.0647  0.6075
 7029TIP3   OH242501   4.488   1.306  14.567 -0.3271 -0.2948  0.1406
 7029TIP3    H142502   4.448   1.279  14.649  0.7373 -0.7512  0.5323
 7029TIP3    H242503   4.427   1.278  14.499 -1.6311  0.8512  0.7966
 7030TIP3   OH242504   4.510   1.576   2.663  0.2004  0.6280 -0.2755
 7030TIP3    H142505   4.583   1.515   2.665  1.3430  1.9521  0.0939
 7030TIP3    H242506   4.501   1.606   2.754 -2.8851 -1.8003  0.3969
 7031TIP3   OH242507   1.497   2.783   5.011 -0.1266 -0.0173 -0.6046
 7031TIP3    H142508   1.461   2.787   4.922 -2.5499 -0.8842  0.2882
 7031TIP3    H242509   1.469   2.865   5.051 -2.1382 -1.1313  0.4114
 7032TIP3   OH242510   4.414   5.785   2.013  0.2370  0.1993  0.2458
 7032TIP3    H142511   4.358   5.846   2.061  0.5015 -0.6392  1.6715
 7032TIP3    H242512   4.476   5.841   1.966  0.2392  1.0481  1.2291
 7033TIP3   OH242513   5.145   1.680  14.865  0.4784 -0.2742  0.4312
 7033TIP3    H142514   5.188   1.711  14.945 -0.8094  1.7167  0.4287
 7033TIP3    H242515   5.054   1.711  14.874 -0.5896 -2.8905 -0.3012
 7034TIP3   OH242516   1.121   0.538  14.941 -0.3277  0.0737  0.4588
 7034TIP3    H142517   1.139   0.630  14.924  0.9988 -0.4557 -1.2942
 7034TIP3    H242518   1.029   0.536  14.968 -0.9648  1.6849 -1.3910
 7035TIP3   OH242519   1.414   3.851  14.842  0.3671 -0.3166  0.4094
 7035TIP3    H142520   1.411   3.891  14.929  1.1140 -0.9578  0.7427
 7035TIP3    H242521   1.351   3.901  14.790  0.4546  0.5469  1.1207
 7036TIP3   OH242522   4.352   6.210  15.388  0.0754  0.0534  0.1775
 7036TIP3    H142523   4.406   6.242  15.460 -0.2650 -0.6217  0.7430
 7036TIP3    H242524   4.286   6.155  15.430  0.2841 -0.9084 -0.7136
 7037TIP3   OH242525   2.897   5.987  13.969 -0.8360 -0.4565 -0.0562
 7037TIP3    H142526   2.875   6.036  13.890 -1.9852  0.0403  0.5646
 7037TIP3    H242527   2.896   6.052  14.039 -1.8508 -1.2496  0.6887
 7038TIP3   OH242528   5.307   4.526   2.805 -0.7720  0.2127 -0.5083
 7038TIP3    H142529   5.282   4.582   2.732  1.3235  2.2384  0.2303
 7038TIP3    H242530   5.402   4.534   2.811 -0.7809 -0.6225  1.8664
 7039TIP3   OH242531   6.743   5.071  11.657  0.6024 -0.1316  0.2848
 7039TIP3    H142532   6.790   5.115  11.728 -0.9763 -1.4370  2.2814
 7039TIP3    H242533   6.787   4.987  11.647  0.2230 -0.3501  0.4293
 7040TIP3   OH242534   0.639   6.314   6.596 -0.6444 -0.1767  0.2550
 7040TIP3    H142535   0.615   6.264   6.518 -1.0806  0.2617  0.1024
 7040TIP3    H242536   0.611   6.259   6.669 -0.3970 -0.5092  0.1013
 7041TIP3   OH242537   2.964   2.357  15.935  0.1461  0.6767 -0.3257
 7041TIP3    H142538   2.979   2.273  15.977 -1.6469 -0.6164 -2.0593
 7041TIP3    H242539   2.876   2.382  15.962 -0.1189  0.9631 -1.3948
 7042TIP3   OH242540   0.970   6.622  12.455 -0.2169  0.2214 -0.6959
 7042TIP3    H142541   0.979   6.586  12.367  0.3894  0.1086 -0.5938
 7042TIP3    H242542   0.926   6.706  12.443 -1.2124 -0.3283 -0.9843
 7043TIP3   OH242543   5.085   4.928  12.051 -0.0828  0.1503  0.1860
 7043TIP3    H142544   5.009   4.979  12.021 -0.0344 -0.6617 -1.3829
 7043TIP3    H242545   5.071   4.920  12.145 -2.5077 -0.8472 -0.1747
 7044TIP3   OH242546   3.339   4.438  13.968 -0.3667  0.0904  0.0351
 7044TIP3    H142547   3.331   4.431  13.873  0.0725  1.0217 -0.0824
 7044TIP3    H242548   3.263   4.392  14.003  0.0401 -1.2009 -0.7338
 7045TIP3   OH242549   6.524   5.534  14.994  0.1490 -0.6371 -0.4192
 7045TIP3    H142550   6.574   5.614  14.981 -1.8473  0.9641  0.9975
 7045TIP3    H242551   6.450   5.542  14.934 -0.9426 -0.5576  0.8725
 7046TIP3   OH242552   4.698   6.636  16.877 -0.3748 -0.1423  0.2835
 7046TIP3    H142553   4.693   6.722  16.918 -0.3525 -0.3884  0.8092
 7046TIP3    H242554   4.787   6.606  16.895 -0.3582 -0.2464  0.0367
 7047TIP3   OH242555   2.688   0.934  12.364 -0.0715  0.2088 -0.4945
 7047TIP3    H142556   2.640   0.997  12.417 -0.2968 -0.3275 -0.0610
 7047TIP3    H242557   2.742   0.988  12.306  0.5825  0.8071  0.6345
 7048TIP3   OH242558   6.371   3.037   2.868 -0.0912  0.5958  0.1384
 7048TIP3    H142559   6.307   3.101   2.899 -0.8826  0.0331 -0.2984
 7048TIP3    H242560   6.321   2.978   2.811  0.6448 -0.3144  0.3990
 7049TIP3   OH242561   5.661   1.035  16.264  0.1187  0.5747  0.1797
 7049TIP3    H142562   5.646   0.941  16.254 -0.5040  0.6888 -0.0423
 7049TIP3    H242563   5.631   1.054  16.353  0.0182  0.5990  0.1415
 7050TIP3   OH242564   0.921   6.349   0.615  0.2571  0.0120  0.0632
 7050TIP3    H142565   0.947   6.422   0.672 -1.6520  2.1719 -1.6045
 7050TIP3    H242566   1.003   6.320   0.575  1.2410  0.3728  1.7259
 7051TIP3   OH242567   0.563   1.590  15.073  0.3496 -0.0281  0.3653
 7051TIP3    H142568   0.587   1.511  15.123  0.6896 -0.8697 -1.0774
 7051TIP3    H242569   0.546   1.656  15.140  2.1123 -0.7269  1.5940
 7052TIP3   OH242570   6.786   4.877  15.913  0.1051  0.1098  0.6510
 7052TIP3    H142571   6.776   4.972  15.909  1.6480  0.3155  0.8895
 7052TIP3    H242572   6.829   4.854  15.830 -1.3897 -0.5605  0.0394
 7053TIP3   OH242573   2.581   0.218   0.185 -0.3741 -0.5162  0.0373
 7053TIP3    H142574   2.650   0.182   0.129 -0.5334  0.3592 -0.7565
 7053TIP3    H242575   2.507   0.159   0.171  0.1262 -1.3457  0.7404
 7054TIP3   OH242576   2.693   2.476  16.837  0.1535  0.2514 -0.5991
 7054TIP3    H142577   2.784   2.461  16.810 -0.1025  1.6176 -2.5026
 7054TIP3    H242578   2.644   2.475  16.754 -1.5485 -0.3075  0.3780
 7055TIP3   OH242579   6.136   3.532  15.965 -0.5177 -0.1130 -0.1717
 7055TIP3    H142580   6.070   3.463  15.978  0.6025 -0.7554  3.1857
 7055TIP3    H242581   6.215   3.497  16.007  1.0006  1.9722 -1.1652
 7056TIP3   OH242582   5.815   5.230  14.982  0.2006 -0.4174  0.2623
 7056TIP3    H142583   5.744   5.273  14.934  1.6078  0.4111 -1.1584
 7056TIP3    H242584   5.773   5.198  15.062 -2.3646 -2.2932 -1.6656
 7057TIP3   OH242585   2.661   6.685   3.976 -0.4519 -0.1069  0.3052
 7057TIP3    H142586   2.680   6.681   3.882 -0.2161 -0.6276  0.3673
 7057TIP3    H242587   2.582   6.632   3.985 -0.9467  0.6266  0.2869
 7058TIP3   OH242588   4.849   2.224   6.423 -0.5270 -0.3111 -0.3037
 7058TIP3    H142589   4.815   2.193   6.339 -3.3777  4.2517 -1.1957
 7058TIP3    H242590   4.936   2.259   6.402 -1.0084  0.3383 -1.3212
 7059TIP3   OH242591   2.054   6.700   1.459 -0.4898  0.1800 -0.0949
 7059TIP3    H142592   2.057   6.711   1.554 -0.1389  0.3274 -0.1234
 7059TIP3    H242593   2.137   6.659   1.437 -0.5678  0.1517 -0.3418
 7060TIP3   OH242594   2.949   1.291   1.908 -0.2345  0.8378  0.2171
 7060TIP3    H142595   2.857   1.272   1.887  0.1288  1.2296 -2.0603
 7060TIP3    H242596   2.990   1.205   1.919 -0.7028  0.6402  0.4385
 7061TIP3   OH242597   5.781   0.302   2.106  0.7349  0.4249 -0.1789
 7061TIP3    H142598   5.697   0.262   2.124  1.9888 -3.1346 -1.3802
 7061TIP3    H242599   5.804   0.349   2.187 -2.6473  2.3097 -0.1376
 7062TIP3   OH242600   3.788   0.063   4.045 -0.1395  0.5406 -0.1009
 7062TIP3    H142601   3.777   0.125   3.973  1.0160 -1.0715 -1.7384
 7062TIP3    H242602   3.711   0.006   4.040 -1.2763  1.8168  1.4954
 7063TIP3   OH242603   5.063   6.306   1.669 -0.1891  0.2928 -0.1743
 7063TIP3    H142604   5.124   6.266   1.731 -0.3183  0.6562  0.1890
 7063TIP3    H242605   5.030   6.384   1.714 -1.3977 -0.2309 -0.1216
 7064TIP3   OH242606   0.143   6.129  12.092  0.3036 -0.6987 -0.2821
 7064TIP3    H142607   0.235   6.148  12.073  0.0199  2.6656  0.9372
 7064TIP3    H242608   0.095   6.201  12.051 -1.3587 -0.1303  2.3613
 7065TIP3   OH242609   5.621   3.412   5.959  0.3245  0.0066 -0.5461
 7065TIP3    H142610   5.668   3.449   5.883 -0.4530  0.3091 -0.8913
 7065TIP3    H242611   5.672   3.441   6.034  0.4010  0.8059 -0.8877
 7066TIP3   OH242612   4.078   5.051  15.848  0.1550 -0.6270 -0.0200
 7066TIP3    H142613   4.060   5.088  15.761  0.3336 -2.1748 -0.7513
 7066TIP3    H242614   4.067   4.957  15.836  1.6196 -0.9902  1.2932
 7067TIP3   OH242615   2.131   2.228  16.738 -0.4928  0.1172 -0.0973
 7067TIP3    H142616   2.153   2.227  16.645 -0.2196 -2.9221 -0.0840
 7067TIP3    H242617   2.203   2.278  16.779 -0.2443  0.8625 -1.3895
 7068TIP3   OH242618   6.136   4.925  15.747  0.0631 -0.4073  0.0903
 7068TIP3    H142619   6.214   4.940  15.801 -1.3543  2.3577  1.5693
 7068TIP3    H242620   6.171   4.894  15.663  2.4526 -3.3403  1.9445
 7069TIP3   OH242621   6.341   6.719   0.984  0.2417 -0.1888  0.1311
 7069TIP3    H142622   6.292   6.801   0.996 -3.4845 -2.1564 -0.2909
 7069TIP3    H242623   6.384   6.705   1.068 -2.3311  0.2794  1.6246
 7070TIP3   OH242624   5.667   3.074  10.874 -0.4663 -0.1755  0.0080
 7070TIP3    H142625   5.663   2.982  10.847 -0.1346  0.1789 -1.3268
 7070TIP3    H242626   5.755   3.103  10.850 -0.1894  0.2148  1.4031
 7071TIP3   OH242627   5.533   5.695  13.267  0.6661 -0.0987  0.4517
 7071TIP3    H142628   5.573   5.645  13.196  0.3055 -0.5463  0.5618
 7071TIP3    H242629   5.496   5.629  13.325  2.3684  0.1770  1.9326
 7072TIP3   OH242630   3.471   0.329  17.135 -0.6023 -0.5313 -0.3649
 7072TIP3    H142631   3.521   0.334  17.217 -0.5467 -0.2466 -0.4166
 7072TIP3    H242632   3.517   0.386  17.075 -1.5222  0.4997 -0.1339
 7073TIP3   OH242633   6.096   4.924  16.627 -0.6665 -0.0887 -0.3261
 7073TIP3    H142634   6.189   4.927  16.652 -0.8534  0.8455  0.3219
 7073TIP3    H242635   6.095   4.879  16.543  0.2793 -0.9022  0.0775
 7074TIP3   OH242636   4.145   0.988   3.528 -0.4077 -0.9094 -0.0125
 7074TIP3    H142637   4.126   1.078   3.502 -1.6092 -0.8397  0.9800
 7074TIP3    H242638   4.065   0.939   3.506 -0.3847 -1.3973  0.9184
 7075TIP3   OH242639   5.585   2.202  16.359 -0.5313 -0.5036 -0.4710
 7075TIP3    H142640   5.581   2.106  16.367  0.2711 -0.5947 -1.0855
 7075TIP3    H242641   5.494   2.229  16.353 -0.8645 -1.0813  1.2741
 7076TIP3   OH242642   4.399   5.505  15.860 -0.1953 -0.4053  0.0382
 7076TIP3    H142643   4.397   5.426  15.806  0.0946  0.6399 -1.5691
 7076TIP3    H242644   4.460   5.484  15.931  1.0314 -1.1234 -1.1885
 7077TIP3   OH242645   2.767   2.791  13.440  0.1052 -0.1000 -0.3168
 7077TIP3    H142646   2.771   2.713  13.384 -0.4639  1.0866 -2.0892
 7077TIP3    H242647   2.841   2.845  13.412 -1.4158  1.4817 -1.4970
 7078TIP3   OH242648   1.423   4.230  11.704  0.2443  0.0998  0.2723
 7078TIP3    H142649   1.332   4.254  11.718  0.2551  1.6037 -1.6997
 7078TIP3    H242650   1.473   4.305  11.738  0.6395  0.0164 -0.1117
 7079TIP3   OH242651   4.654   0.452  14.362  0.1498 -0.0749  0.0377
 7079TIP3    H142652   4.702   0.407  14.293 -0.7612  0.1749 -0.7671
 7079TIP3    H242653   4.563   0.429  14.347 -0.1874  0.9785  0.4097
 7080TIP3   OH242654   3.137   5.814  13.847 -0.1542  0.0819  0.1229
 7080TIP3    H142655   3.153   5.860  13.930  1.2161 -0.2437  0.0560
 7080TIP3    H242656   3.084   5.875  13.796  1.0120  1.2863  0.3220
 7081TIP3   OH242657   4.080   3.825   4.673  0.4255 -0.3163  0.0508
 7081TIP3    H142658   4.010   3.836   4.609  1.0214 -0.4193 -0.6209
 7081TIP3    H242659   4.036   3.835   4.758 -0.7641 -2.3047 -0.2709
 7082TIP3   OH242660   0.655   4.813   0.163  0.6102  0.6361  0.2057
 7082TIP3    H142661   0.666   4.720   0.186 -1.6265  0.6322  1.5640
 7082TIP3    H242662   0.630   4.812   0.071 -2.4477 -0.4867  0.8989
 7083TIP3   OH242663   2.571   0.723  16.880 -0.4081  0.2404  0.2064
 7083TIP3    H142664   2.520   0.796  16.914 -0.2413 -0.3771  1.8860
 7083TIP3    H242665   2.557   0.725  16.786 -0.5587  2.3014  0.2401
 7084TIP3   OH242666   3.762   5.414   0.516  0.3553  0.1368 -0.4115
 7084TIP3    H142667   3.764   5.504   0.549 -1.0404 -0.2732  0.8801
 7084TIP3    H242668   3.670   5.388   0.522  0.8804 -1.7454  0.2685
 7085TIP3   OH242669   2.653   4.672  16.831 -0.2692 -0.0661 -0.3812
 7085TIP3    H142670   2.626   4.758  16.800 -1.5442 -0.3912 -0.2371
 7085TIP3    H242671   2.625   4.668  16.922  1.5259  0.0693  0.2138
 7086TIP3   OH242672   3.612   3.086   2.855 -0.7307  0.3535  0.5476
 7086TIP3    H142673   3.628   3.180   2.853  1.1764  0.0825 -1.6924
 7086TIP3    H242674   3.664   3.054   2.929 -0.4521  0.9472  0.6110
 7087TIP3   OH242675   0.619   3.237   4.040  0.0258  0.1960 -0.5815
 7087TIP3    H142676   0.606   3.145   4.019 -0.9399  0.3797 -0.8401
 7087TIP3    H242677   0.699   3.239   4.093 -1.1653 -1.0777  1.3729
 7088TIP3   OH242678   3.917   1.995   2.256 -0.0561  0.6080 -0.5542
 7088TIP3    H142679   3.912   2.084   2.292  1.2459  0.5007 -0.0818
 7088TIP3    H242680   3.953   2.007   2.168  0.5137  0.5076 -0.3337
 7089TIP3   OH242681   6.705   4.288   4.480  0.5050 -0.1657  0.0045
 7089TIP3    H142682   6.783   4.273   4.534 -0.1378 -0.3921  0.8791
 7089TIP3    H242683   6.711   4.221   4.411  2.1579  1.1215 -1.1798
 7090TIP3   OH242684   3.724   3.357  11.324 -0.1826 -0.7652 -0.0155
 7090TIP3    H142685   3.755   3.325  11.409  0.2035 -1.3083 -0.3554
 7090TIP3    H242686   3.699   3.277  11.276 -0.0786 -0.4874 -0.5361
 7091TIP3   OH242687   4.456   6.080   5.781 -0.2873 -0.2036  0.2730
 7091TIP3    H142688   4.466   6.175   5.788  1.0984 -0.2654 -0.6388
 7091TIP3    H242689   4.372   6.062   5.825 -0.5538  1.4194  0.4948
 7092TIP3   OH242690   2.367   3.206   6.009 -0.7816 -0.1687 -0.4400
 7092TIP3    H142691   2.374   3.153   5.930 -0.2579  2.1571 -2.0662
 7092TIP3    H242692   2.448   3.188   6.057 -1.4466 -2.1783  0.0385
 7093TIP3   OH242693   6.325   4.256   2.050  0.5786  0.1841  0.0014
 7093TIP3    H142694   6.334   4.200   2.127  0.8887 -1.7260 -1.3516
 7093TIP3    H242695   6.300   4.196   1.979  0.2556  1.8777 -1.3855
 7094TIP3   OH242696   1.042   1.743   4.249 -0.2709 -0.5885 -0.4597
 7094TIP3    H142697   0.985   1.800   4.301 -0.3043 -2.6227  1.9502
 7094TIP3    H242698   1.131   1.774   4.269 -0.3203 -0.8965  0.2724
 7095TIP3   OH242699   4.609   2.876   2.281  0.2016  0.0699 -0.8338
 7095TIP3    H142700   4.666   2.910   2.211 -0.1249  0.4856 -0.9014
 7095TIP3    H242701   4.592   2.786   2.255  1.2336 -0.2189 -0.5541
 7096TIP3   OH242702   5.334   0.462   4.975  0.4351  0.3555 -0.7642
 7096TIP3    H142703   5.410   0.412   5.002  1.1208  1.9856  0.4806
 7096TIP3    H242704   5.348   0.477   4.881  0.0206 -1.9822 -1.2759
 7097TIP3   OH242705   0.102   1.462  12.710 -0.4085 -0.3779  0.0559
 7097TIP3    H142706   0.171   1.500  12.765 -0.9630 -0.9780  1.1971
 7097TIP3    H242707   0.026   1.518  12.724 -0.7901 -1.0017  0.5693
 7098TIP3   OH242708   0.325   3.299   5.803 -0.2838  0.0193  0.0878
 7098TIP3    H142709   0.257   3.231   5.812  0.5849 -0.8573  0.1959
 7098TIP3    H242710   0.368   3.278   5.720 -0.3419  0.7696 -0.1404
 7099TIP3   OH242711   1.684   2.691   5.782  0.5110  0.4583 -0.1085
 7099TIP3    H142712   1.591   2.713   5.790  1.0721  2.6046  1.2860
 7099TIP3    H242713   1.693   2.610   5.832 -0.3773  0.9889  0.9606
 7100TIP3   OH242714   0.032   1.078   5.750 -0.0039  0.1375 -0.5177
 7100TIP3    H142715   0.058   1.115   5.834  0.6511  0.9980 -1.0853
 7100TIP3    H242716  -0.015   1.148   5.706  0.3104 -0.0528 -1.1696
 7101TIP3   OH242717   2.830   2.620   4.237 -0.9266  0.6383  0.5602
 7101TIP3    H142718   2.746   2.641   4.198 -1.4722 -2.0181  0.1377
 7101TIP3    H242719   2.887   2.601   4.163 -0.4515  0.6820  0.9080
 7102TIP3   OH242720   2.459   4.616   6.673 -0.5233 -0.6462 -0.2815
 7102TIP3    H142721   2.412   4.610   6.590  0.0486  0.6949 -0.7410
 7102TIP3    H242722   2.404   4.672   6.728  0.4141  0.8191 -0.7742
 7103TIP3   OH242723   1.630   3.022   4.800 -0.3762 -0.0635 -0.0932
 7103TIP3    H142724   1.605   3.090   4.863  0.2026  0.5491 -0.4983
 7103TIP3    H242725   1.683   3.069   4.735 -0.1045 -0.8801 -0.4728
 7104TIP3   OH242726   3.615   0.513   0.355 -0.6180  0.6300 -0.1213
 7104TIP3    H142727   3.702   0.483   0.381 -0.9953  0.2553  0.7559
 7104TIP3    H242728   3.628   0.604   0.328 -0.0917  0.8367  0.7980
 7105TIP3   OH242729   2.771   2.574   3.319 -0.3763  0.1294 -0.0702
 7105TIP3    H142730   2.770   2.639   3.389  1.0953 -0.8518  0.9102
 7105TIP3    H242731   2.805   2.621   3.243 -0.5281  0.8151  0.2790
 7106TIP3   OH242732   6.540   0.980  11.756  0.4927 -0.9011  0.2556
 7106TIP3    H142733   6.598   1.040  11.710  0.2728 -0.6454  0.3108
 7106TIP3    H242734   6.571   0.981  11.847  0.4580 -0.8360  0.2669
 7107TIP3   OH242735   4.442   3.134  12.661  0.1890  0.0199 -0.0670
 7107TIP3    H142736   4.394   3.205  12.704  1.7011 -0.1242  2.0177
 7107TIP3    H242737   4.532   3.143  12.693  0.6748 -2.1349 -0.6573
 7108TIP3   OH242738   4.451   2.716   4.582 -0.0486  0.6027 -0.3070
 7108TIP3    H142739   4.447   2.811   4.580 -0.9793  0.5731 -0.1634
 7108TIP3    H242740   4.545   2.696   4.576  0.2365  1.5508  0.6346
 7109TIP3   OH242741   1.726   3.092  14.953 -0.0060  0.4217 -0.0936
 7109TIP3    H142742   1.664   3.142  15.006  0.5257  0.7941  0.1867
 7109TIP3    H242743   1.717   3.002  14.983 -2.1033  0.0186 -1.6573
 7110TIP3   OH242744   4.268   3.994   3.264  0.3032 -0.5676 -0.1992
 7110TIP3    H142745   4.302   3.907   3.286 -1.6790 -0.8224  2.2569
 7110TIP3    H242746   4.301   4.051   3.333  1.4361  0.6746 -1.6977
 7111TIP3   OH242747   0.535   5.636  12.358  0.4732 -0.0404  0.0072
 7111TIP3    H142748   0.492   5.719  12.340 -0.6306 -0.8402 -1.2567
 7111TIP3    H242749   0.463   5.576  12.378  1.3297  0.1749  5.4842
 7112TIP3   OH242750   6.264   4.114  12.209 -0.0803 -0.6780  0.1768
 7112TIP3    H142751   6.217   4.188  12.171  0.7976 -0.0323  0.3249
 7112TIP3    H242752   6.286   4.143  12.297  2.0275 -0.2949 -0.4278
 7113TIP3   OH242753   4.863   1.556  15.767 -0.2604 -1.0697 -0.2534
 7113TIP3    H142754   4.866   1.469  15.806 -0.1127 -1.5112 -1.2187
 7113TIP3    H242755   4.770   1.574  15.754 -0.4379 -0.1386  1.9504
 7114TIP3   OH242756   1.307   3.291  10.507 -0.1640  0.3581  0.2752
 7114TIP3    H142757   1.272   3.378  10.526 -1.5345 -0.5174  2.1293
 7114TIP3    H242758   1.241   3.251  10.450  0.5713  0.5735 -0.7556
 7115TIP3   OH242759   2.643   0.090   0.969 -0.1658  0.0786  0.2857
 7115TIP3    H142760   2.679   0.166   1.014  0.5184 -0.6257  0.9474
 7115TIP3    H242761   2.701   0.018   0.993  0.2697 -0.3185 -1.7933
 7116TIP3   OH242762   3.398   5.400   0.341 -0.0675 -0.2518 -0.3024
 7116TIP3    H142763   3.408   5.493   0.320  1.4116 -0.4881 -0.8034
 7116TIP3    H242764   3.369   5.361   0.258 -0.3881 -0.2841 -0.1750
 7117TIP3   OH242765   2.711   2.361   3.513 -0.5016 -0.5790  0.8922
 7117TIP3    H142766   2.733   2.452   3.533  3.7949 -1.5661  1.5043
 7117TIP3    H242767   2.691   2.361   3.419 -2.6387  1.2220  1.2750
 7118TIP3   OH242768   6.088   3.785  13.771 -0.5254  0.4032  0.0361
 7118TIP3    H142769   6.149   3.838  13.823 -0.5507 -1.0618  1.6783
 7118TIP3    H242770   6.016   3.765  13.832 -0.6890 -1.1707 -0.6267
 7119TIP3   OH242771   3.467   0.187  16.669  0.6794  0.2716 -0.7741
 7119TIP3    H142772   3.521   0.264  16.653  0.3072  0.4590 -1.1385
 7119TIP3    H242773   3.524   0.128  16.718  1.0456  0.6761 -0.7050
 7120TIP3   OH242774   2.675   6.197   2.133 -0.1775 -0.4369 -0.0238
 7120TIP3    H142775   2.606   6.217   2.196 -0.9816  1.2509 -1.3567
 7120TIP3    H242776   2.631   6.149   2.063  0.3849 -0.9399 -0.0448
 7121TIP3   OH242777   4.954   6.242  16.794 -0.0413 -0.4227  0.1204
 7121TIP3    H142778   5.038   6.240  16.750  0.2047  0.1519  0.5410
 7121TIP3    H242779   4.941   6.154  16.827  0.1878 -0.6250 -0.3277
 7122TIP3   OH242780   0.612   1.753   1.473  0.1067 -0.1502  0.3002
 7122TIP3    H142781   0.609   1.768   1.567  2.4956  1.9213  0.1754
 7122TIP3    H242782   0.545   1.687   1.456 -1.3499  0.4316  3.2203
 7123TIP3   OH242783   3.107   2.154   6.446  0.4582  0.0109  0.6762
 7123TIP3    H142784   3.068   2.232   6.485 -0.3787  0.2078 -0.5045
 7123TIP3    H242785   3.196   2.180   6.422  0.6299  0.1892  1.4830
 7124TIP3   OH242786   4.066   0.972  13.172 -0.2884 -0.0719  0.4008
 7124TIP3    H142787   4.065   0.888  13.218  1.1446  0.3432  1.2630
 7124TIP3    H242788   4.060   1.038  13.242 -2.3343  0.5924 -0.3083
 7125TIP3   OH242789   0.118   5.889  12.226 -0.2422 -0.0874 -0.1445
 7125TIP3    H142790   0.129   5.978  12.193  0.4986 -0.0619  0.1484
 7125TIP3    H242791   0.031   5.863  12.197  0.2544  0.0430 -1.8961
 7126TIP3   OH242792   5.110   2.882   3.746  0.3319 -0.1362  0.1088
 7126TIP3    H142793   5.143   2.853   3.831  1.7026  0.4558 -0.2031
 7126TIP3    H242794   5.177   2.855   3.683  0.6483  1.8397 -0.4543
 7127TIP3   OH242795   1.773   0.689  12.034  0.5776  0.0829 -0.1575
 7127TIP3    H142796   1.837   0.618  12.025 -0.4396 -0.8136 -0.4004
 7127TIP3    H242797   1.704   0.652  12.089 -0.7406  0.3453 -1.6084
 7128TIP3   OH242798   1.248   4.322  12.047 -0.6115 -0.0957  0.0551
 7128TIP3    H142799   1.247   4.227  12.036 -0.5664  0.0961 -1.7712
 7128TIP3    H242800   1.236   4.334  12.142 -2.0743 -1.8749  0.1656
 7129TIP3   OH242801   4.215   0.136   4.268  0.1921 -0.0192 -0.5273
 7129TIP3    H142802   4.157   0.084   4.213  0.2507  0.6162 -1.2036
 7129TIP3    H242803   4.173   0.136   4.354 -1.0342  0.7871 -1.1075
 7130TIP3   OH242804   0.459   5.152  10.988  0.1078  0.4402 -0.2149
 7130TIP3    H142805   0.441   5.061  10.962  0.0369  0.6449 -0.8954
 7130TIP3    H242806   0.555   5.157  10.990  0.1169  0.5682 -0.9603
 7131TIP3   OH242807   6.311   1.018   1.850  0.2991  0.7623 -0.1797
 7131TIP3    H142808   6.332   0.977   1.766  0.6851 -0.8397  0.6621
 7131TIP3    H242809   6.330   0.951   1.915 -1.4133  1.4409  1.1077
 7132TIP3   OH242810   6.322   4.082  16.927  0.0530 -0.2705 -0.2308
 7132TIP3    H142811   6.286   4.156  16.975  0.6002 -0.3789  0.3590
 7132TIP3    H242812   6.408   4.067  16.967  1.1792  0.5592 -2.2159
 7133TIP3   OH242813   2.073   2.190   1.653 -0.4753 -0.2260  0.2694
 7133TIP3    H142814   2.109   2.276   1.676  1.1280 -0.3087 -1.6492
 7133TIP3    H242815   2.078   2.187   1.558 -0.6435 -2.4080  0.2797
 7134TIP3   OH242816   6.199   6.016   4.477 -0.0809  0.0528 -0.0582
 7134TIP3    H142817   6.204   6.101   4.432 -0.2927  0.8583  1.3530
 7134TIP3    H242818   6.289   5.998   4.504  0.0106 -0.3189 -0.6079
 7135TIP3   OH242819   0.184   4.462   1.939  0.5847  0.7757  0.2671
 7135TIP3    H142820   0.263   4.409   1.953 -0.8022 -1.5657 -0.1973
 7135TIP3    H242821   0.196   4.499   1.851 -0.5939 -3.1966 -1.8212
 7136TIP3   OH242822   0.011   2.500  11.657 -0.4677  0.0684 -0.2073
 7136TIP3    H142823  -0.072   2.548  11.653 -0.4126  0.1738 -0.0744
 7136TIP3    H242824  -0.001   2.438  11.729  0.8374  2.4668  2.2501
 7137TIP3   OH242825   2.153   6.672   3.401 -0.6802 -0.1829 -0.1690
 7137TIP3    H142826   2.109   6.588   3.391 -2.3342  0.7546 -1.1215
 7137TIP3    H242827   2.150   6.712   3.315  2.3583 -0.1585 -0.3548
 7138TIP3   OH242828   4.329   3.774   0.638 -0.0281 -0.7717  0.4179
 7138TIP3    H142829   4.414   3.764   0.594  0.1311  0.7238  0.3333
 7138TIP3    H242830   4.265   3.772   0.568 -0.0364 -1.5632  0.4466
 7139TIP3   OH242831   0.519   6.091   4.275  0.6105 -0.2265  0.0523
 7139TIP3    H142832   0.476   6.173   4.249 -0.7783 -1.1218 -0.6054
 7139TIP3    H242833   0.493   6.029   4.207  1.1711 -1.3603  0.8546
 7140TIP3   OH242834   0.756   4.024  16.120  0.3234 -0.1645  0.1590
 7140TIP3    H142835   0.698   3.953  16.090  0.0799  0.0999 -0.0085
 7140TIP3    H242836   0.839   4.006  16.077  0.5728 -0.9302  0.9381
 7141TIP3   OH242837   1.540   3.245   2.184  0.3546  0.4316  0.0149
 7141TIP3    H142838   1.526   3.249   2.089  0.1901  1.0831  0.0654
 7141TIP3    H242839   1.462   3.285   2.222  1.3245  2.0779  0.3580
 7142TIP3   OH242840   1.705   2.175   2.772  0.0070  0.3103 -0.0745
 7142TIP3    H142841   1.746   2.090   2.788  1.1877  0.7723 -0.5126
 7142TIP3    H242842   1.771   2.224   2.722 -0.8984  1.2634 -0.3644
 7143TIP3   OH242843   5.332   5.122   2.938  0.2761 -0.4818 -0.3017
 7143TIP3    H142844   5.237   5.113   2.935  0.1098 -0.1462  2.0612
 7143TIP3    H242845   5.347   5.197   2.996  1.9943  0.0411 -1.3313
 7144TIP3   OH242846   6.331   6.759   5.331 -0.2887 -0.3706  0.1026
 7144TIP3    H142847   6.359   6.669   5.349 -1.2165 -0.5882  0.5721
 7144TIP3    H242848   6.381   6.786   5.254 -0.3338 -1.4591 -0.3252
 7145TIP3   OH242849   1.071   0.405   4.980  0.5953  0.1988 -0.5638
 7145TIP3    H142850   0.990   0.426   5.025  0.7617 -0.4871  0.0797
 7145TIP3    H242851   1.139   0.449   5.031  0.7376 -0.2185 -0.3805
 7146TIP3   OH242852   2.203   0.079  15.475  0.3281  0.1484  0.5009
 7146TIP3    H142853   2.181  -0.014  15.486  0.9161  0.2676  3.2927
 7146TIP3    H242854   2.265   0.080  15.402  0.5625 -1.6815  0.6212
 7147TIP3   OH242855   0.111   6.339  15.011 -0.1342  0.1467 -0.2111
 7147TIP3    H142856   0.047   6.323  14.941  0.7060  0.7258 -1.1308
 7147TIP3    H242857   0.091   6.427  15.043 -0.1633  0.0986 -0.0941
 7148TIP3   OH242858   3.467   4.509  12.278  0.0080 -0.2247  0.3039
 7148TIP3    H142859   3.535   4.532  12.341  0.9058  1.2940 -1.1095
 7148TIP3    H242860   3.481   4.570  12.205 -1.8765 -0.9422 -0.7371
 7149TIP3   OH242861   4.676   1.865  16.963  0.0600  0.1602 -0.6009
 7149TIP3    H142862   4.602   1.924  16.977 -0.3708 -0.3008 -0.9025
 7149TIP3    H242863   4.695   1.829  17.050 -1.0049 -0.8142 -0.7519
 7150TIP3   OH242864   2.620   0.643  13.176 -0.2116  0.0798  0.1899
 7150TIP3    H142865   2.622   0.736  13.199 -0.1629 -0.3685  2.1589
 7150TIP3    H242866   2.711   0.615  13.181 -0.2258 -0.0986 -0.4096
 7151TIP3   OH242867   2.897   0.288  16.225  0.0788 -0.6515 -0.0645
 7151TIP3    H142868   2.898   0.286  16.129 -0.5411 -0.5982 -0.0776
 7151TIP3    H242869   2.958   0.358  16.248  0.5081 -0.9119 -0.4099
 7152TIP3   OH242870   5.865   1.412  16.583  0.3311  0.3956  0.2034
 7152TIP3    H142871   5.771   1.413  16.570  0.0664  0.7064  1.9536
 7152TIP3    H242872   5.877   1.420  16.678  2.1414  1.7973 -0.0837
 7153TIP3   OH242873   6.048   4.364  10.933 -0.0458  0.2459 -0.0699
 7153TIP3    H142874   6.059   4.435  10.869  0.2429 -0.3862 -0.7478
 7153TIP3    H242875   6.133   4.319  10.934 -0.2131 -0.0682  0.3652
 7154TIP3   OH242876   1.148   1.597   1.103 -0.0923 -0.5405 -0.5331
 7154TIP3    H142877   1.123   1.687   1.082 -0.5237 -1.1860 -3.1821
 7154TIP3    H242878   1.239   1.603   1.132  0.7752  0.5765 -3.1274
 7155TIP3   OH242879   6.114   5.022  14.928  0.2656 -0.0382 -0.5413
 7155TIP3    H142880   6.120   5.110  14.891  0.1878 -0.4680 -1.6185
 7155TIP3    H242881   6.196   4.980  14.902  0.5373 -0.1335  0.4195
 7156TIP3   OH242882   0.825   2.099   4.775 -0.1465 -0.2656  0.0692
 7156TIP3    H142883   0.824   2.175   4.717 -0.1897 -0.3282 -0.0131
 7156TIP3    H242884   0.857   2.132   4.859 -0.6740 -0.0535  0.1859
 7157TIP3   OH242885   2.144   6.016  11.293 -0.1742 -0.3726 -0.1397
 7157TIP3    H142886   2.084   6.008  11.367 -1.2085 -0.1271 -0.9314
 7157TIP3    H242887   2.191   5.933  11.291 -0.2215 -0.4299  0.7137
 7158TIP3   OH242888   4.352   4.187   1.167 -0.4141  0.2936 -0.0254
 7158TIP3    H142889   4.412   4.231   1.228  1.4685  0.0149 -1.5877
 7158TIP3    H242890   4.378   4.218   1.081 -0.6433 -1.9881 -0.9920
 7159TIP3   OH242891   1.171   5.853  16.613  0.1128  0.1575 -0.5556
 7159TIP3    H142892   1.198   5.880  16.525  0.1476 -0.6173 -0.7862
 7159TIP3    H242893   1.123   5.928  16.648  0.0807  0.4596 -1.2447
 7160TIP3   OH242894   1.813   4.346   2.990  0.2216  0.0736 -1.0910
 7160TIP3    H142895   1.833   4.283   3.059  1.1920  1.3350 -0.1611
 7160TIP3    H242896   1.751   4.301   2.933  1.3445 -1.9271 -0.8185
 7161TIP3   OH242897   6.634   2.984   2.198 -0.0328  0.9781  0.2267
 7161TIP3    H142898   6.538   2.989   2.207 -0.1205  0.5297 -0.3909
 7161TIP3    H242899   6.648   2.972   2.104  0.6028  0.4155  0.3889
 7162TIP3   OH242900   3.127   5.734   1.962  0.3228  0.1544 -0.3904
 7162TIP3    H142901   3.180   5.685   1.899  0.2862 -0.6848  0.2102
 7162TIP3    H242902   3.155   5.700   2.047 -0.8414  0.0297 -0.0399
 7163TIP3   OH242903   0.845   1.361   5.168  0.0900 -0.4268 -0.3955
 7163TIP3    H142904   0.856   1.325   5.256 -0.0215  0.8187  0.1513
 7163TIP3    H242905   0.857   1.455   5.179 -0.8511 -0.1442 -1.5588
 7164TIP3   OH242906   2.739   6.081   1.156 -0.7468  0.8533 -0.1264
 7164TIP3    H142907   2.785   6.061   1.074 -0.7189 -1.7413  0.4249
 7164TIP3    H242908   2.809   6.095   1.220 -0.7753  2.0187 -0.3219
 7165TIP3   OH242909   4.965   6.778   1.822  0.0053  0.4968 -0.4281
 7165TIP3    H142910   4.997   6.793   1.733  1.0288  1.0733  0.0258
 7165TIP3    H242911   5.032   6.722   1.862  0.1925  1.2844  0.3753
 7166TIP3   OH242912   2.193   4.281   5.858  0.0423 -0.3994  0.1675
 7166TIP3    H142913   2.199   4.291   5.953  0.5129  2.2900 -0.0554
 7166TIP3    H242914   2.099   4.284   5.840 -0.3231 -3.9566  0.6681
 7167TIP3   OH242915   6.092   1.187  12.903  0.1603 -0.2552 -0.3805
 7167TIP3    H142916   6.044   1.212  12.825 -0.1280 -1.4533 -0.6129
 7167TIP3    H242917   6.162   1.252  12.911 -1.6595  1.7491  0.1729
 7168TIP3   OH242918   3.785   5.788  14.041  0.3194 -0.0411  0.1208
 7168TIP3    H142919   3.759   5.780  13.949 -0.2652  1.5794  0.1132
 7168TIP3    H242920   3.729   5.858  14.075  0.7277 -0.4332  1.6447
 7169TIP3   OH242921   3.398   1.834   5.170  0.6054 -0.4547 -0.1813
 7169TIP3    H142922   3.467   1.874   5.223  1.0403  1.1801 -1.8929
 7169TIP3    H242923   3.317   1.872   5.204  1.0394  2.7095 -2.2408
 7170TIP3   OH242924   4.527   0.217  11.601 -0.2021 -0.4117 -0.0674
 7170TIP3    H142925   4.432   0.212  11.604 -0.2876  1.0871  0.8128
 7170TIP3    H242926   4.557   0.154  11.667 -0.7187  1.1122  1.7084
 7171TIP3   OH242927   1.700   1.872  14.184  0.5989 -0.4306 -0.4101
 7171TIP3    H142928   1.681   1.878  14.278  0.5554  0.3034 -0.4549
 7171TIP3    H242929   1.672   1.785  14.159 -0.0816 -0.3708  0.1158
 7172TIP3   OH242930   1.670   3.442  16.951 -0.0600  0.2753 -0.1707
 7172TIP3    H142931   1.596   3.481  16.999  1.1649  2.6686 -0.0614
 7172TIP3    H242932   1.630   3.400  16.875 -1.5253  2.4261 -0.6923
 7173TIP3   OH242933   2.712   1.646   2.517 -0.2515 -0.0848  0.4205
 7173TIP3    H142934   2.731   1.736   2.492  0.7879 -0.6486 -1.0373
 7173TIP3    H242935   2.692   1.602   2.434 -0.3289 -1.2732  1.0406
 7174TIP3   OH242936   6.523   5.810   2.060 -0.4167 -0.2686 -0.9922
 7174TIP3    H142937   6.588   5.764   2.113 -1.1575  0.0759  0.2503
 7174TIP3    H242938   6.543   5.903   2.073 -0.5973 -0.1826 -1.3308
 7175TIP3   OH242939   5.054   6.471   6.131 -0.2739 -0.1638  0.5775
 7175TIP3    H142940   4.985   6.413   6.162 -0.3929 -0.5082 -0.3002
 7175TIP3    H242941   5.018   6.559   6.142 -0.6608 -0.3210  0.5954
 7176TIP3   OH242942   0.539   1.862  11.139  0.0538  0.0870  0.0263
 7176TIP3    H142943   0.531   1.952  11.173 -2.3307  0.0724 -0.2812
 7176TIP3    H242944   0.614   1.825  11.185  1.1795  2.2698  0.0621
 7177TIP3   OH242945   0.588   4.319  11.082  0.7181  0.0218 -0.3301
 7177TIP3    H142946   0.557   4.233  11.054  3.0613 -1.2000  0.5297
 7177TIP3    H242947   0.681   4.306  11.101  0.9460  2.5431  0.7183
 7178TIP3   OH242948   0.973   4.170   0.064 -0.7852 -0.4262 -0.2850
 7178TIP3    H142949   0.918   4.234   0.018  1.4520  1.2602 -0.7985
 7178TIP3    H242950   0.981   4.097   0.002 -2.3586 -0.6856 -0.2179
 7179TIP3   OH242951   5.638   5.588   4.386  0.1181  0.1421 -0.4281
 7179TIP3    H142952   5.655   5.648   4.313 -1.4806  0.7183 -0.3521
 7179TIP3    H242953   5.724   5.575   4.426  1.3996 -1.4839 -3.3570
 7180TIP3   OH242954   5.251   3.779   4.115  0.5678 -0.4942  0.3367
 7180TIP3    H142955   5.203   3.703   4.149  1.6749 -0.8753  1.1227
 7180TIP3    H242956   5.342   3.763   4.141  1.1307  0.1824 -1.1385
 7181TIP3   OH242957   4.681   4.119  12.670  0.4015 -0.4075  0.4594
 7181TIP3    H142958   4.673   4.116  12.575  1.1390  1.2002  0.3057
 7181TIP3    H242959   4.745   4.050  12.691  1.3832  0.2024 -0.3942
 7182TIP3   OH242960   1.490   5.641   4.583  0.1520 -0.2253  0.0133
 7182TIP3    H142961   1.525   5.728   4.569  0.2782 -0.0873  1.1154
 7182TIP3    H242962   1.455   5.615   4.498  1.3191  0.3441 -0.6624
 7183TIP3   OH242963   2.328   0.863  13.474 -0.3263 -0.7332 -0.2832
 7183TIP3    H142964   2.249   0.839  13.522  0.5293 -0.4078  1.3561
 7183TIP3    H242965   2.400   0.839  13.532  0.6948  1.3909 -0.5664
 7184TIP3   OH242966   6.746   0.659  11.247  0.3954 -0.3287  0.0745
 7184TIP3    H142967   6.834   0.677  11.214  0.3664 -0.6077 -0.1636
 7184TIP3    H242968   6.748   0.684  11.339  0.1536  1.6001 -0.4032
 7185TIP3   OH242969   4.482   3.792   5.840  0.0757  0.1599 -0.5295
 7185TIP3    H142970   4.481   3.707   5.796 -0.4686 -0.1903  0.1569
 7185TIP3    H242971   4.521   3.775   5.925 -2.6692 -0.0046  0.7845
 7186TIP3   OH242972   5.146   0.527  13.539  0.2043 -0.2247 -0.1696
 7186TIP3    H142973   5.071   0.483  13.498 -1.0354  0.5174  1.2140
 7186TIP3    H242974   5.219   0.512  13.479 -1.2037 -0.3971 -1.8983
 7187TIP3   OH242975   2.837   6.654  11.052 -0.4673  0.3461 -0.7766
 7187TIP3    H142976   2.818   6.628  10.962 -2.1484  1.3960 -0.7553
 7187TIP3    H242977   2.812   6.746  11.057 -0.5066  0.2814  0.7979
 7188TIP3   OH242978   0.054   3.359   2.772  0.3234  0.0251 -0.3344
 7188TIP3    H142979   0.140   3.394   2.794 -0.9475  2.2058  1.5115
 7188TIP3    H242980   0.038   3.291   2.839  0.2631  0.2077 -0.1633
 7189TIP3   OH242981   1.053   2.015   1.596 -0.3911 -0.1836  0.5267
 7189TIP3    H142982   0.983   1.949   1.597 -0.0109 -0.5883  0.7637
 7189TIP3    H242983   1.011   2.096   1.625 -0.5096 -0.6749  1.7602
 7190TIP3   OH242984   6.133   2.332   3.545  0.4723 -0.0250  0.3886
 7190TIP3    H142985   6.166   2.418   3.571 -0.9156  0.3714  0.8797
 7190TIP3    H242986   6.039   2.344   3.536  0.3514 -1.3240 -0.2521
 7191TIP3   OH242987   5.558   2.661  15.793 -0.0957  0.2977  0.7768
 7191TIP3    H142988   5.623   2.624  15.733  0.5213  2.0358  0.3146
 7191TIP3    H242989   5.500   2.712  15.736  0.5568  2.0599  1.6365
 7192TIP3   OH242990   5.589   0.499   1.901 -0.3609  0.4954 -0.7216
 7192TIP3    H142991   5.578   0.587   1.866 -2.1668  1.0850  1.0875
 7192TIP3    H242992   5.502   0.474   1.931  0.4689 -1.1158  0.5538
 7193TIP3   OH242993   3.717   6.763   1.389 -0.3542 -0.2924  0.2608
 7193TIP3    H142994   3.701   6.853   1.416  0.0867 -0.0607 -0.2308
 7193TIP3    H242995   3.802   6.765   1.346 -0.3367 -0.9453  0.2482
 7194TIP3   OH242996   4.466   2.456  14.001  0.0710 -0.1336 -0.4353
 7194TIP3    H142997   4.524   2.416  13.936  0.4100  0.9799 -0.8232
 7194TIP3    H242998   4.515   2.531  14.035 -0.3831 -0.2879  0.6101
 7195TIP3   OH242999   6.370   5.759   1.767  0.1334 -0.2503 -0.0027
 7195TIP3    H143000   6.451   5.797   1.732  1.5915 -1.4536  1.9016
 7195TIP3    H243001   6.382   5.761   1.862 -0.4072 -3.8771  0.2502
 7196TIP3   OH243002   2.020   4.071   2.519 -1.2242  0.0980  0.2580
 7196TIP3    H143003   2.030   4.034   2.431  0.9981 -3.8319  1.9203
 7196TIP3    H243004   2.087   4.140   2.523  1.9563 -2.7108  0.0937
 7197TIP3   OH243005   2.924   4.003  13.637  0.6522  0.0018  0.6587
 7197TIP3    H143006   2.987   4.042  13.698  1.7370  0.0908 -0.4753
 7197TIP3    H243007   2.969   4.005  13.553 -1.2969  1.0902 -0.4250
 7198TIP3   OH243008   1.205   3.732   3.966  0.2583 -0.8292 -0.4204
 7198TIP3    H143009   1.248   3.680   4.034  0.3709 -2.4200 -1.6171
 7198TIP3    H243010   1.195   3.670   3.893 -2.5485 -0.0421 -0.7954
 7199TIP3   OH243011   2.035   1.840  13.927 -0.4990 -0.0936 -0.2820
 7199TIP3    H143012   1.983   1.766  13.893 -1.3403  1.1983 -1.9590
 7199TIP3    H243013   2.084   1.803  14.001 -0.9387 -2.3002 -1.0217
 7200TIP3   OH243014   4.276   2.388   2.480  0.2563  0.2462  0.3318
 7200TIP3    H143015   4.303   2.479   2.491  2.2910 -0.3634  0.8732
 7200TIP3    H243016   4.238   2.386   2.392  0.0782  1.6271  0.3458
 7201TIP3   OH243017   5.659   0.650   0.875  0.2306  0.3007 -0.1286
 7201TIP3    H143018   5.613   0.630   0.794 -0.0694  1.7146 -0.3314
 7201TIP3    H243019   5.590   0.657   0.941  0.3536  0.3828 -0.0075
 7202TIP3   OH243020   5.331   5.977   3.043  0.5272  0.4476 -0.5632
 7202TIP3    H143021   5.298   5.910   2.983 -1.3812  1.6113 -0.9007
 7202TIP3    H243022   5.327   5.935   3.129 -2.0163  0.5058 -0.5798
 7203TIP3   OH243023   5.260   5.399   1.378  0.2524  0.2823 -0.0963
 7203TIP3    H143024   5.303   5.413   1.463  0.6625 -0.6257 -0.1462
 7203TIP3    H243025   5.176   5.446   1.386  0.8347  1.2869  0.3362
 7204TIP3   OH243026   1.060   4.357   2.317 -0.7881  0.0220  0.7558
 7204TIP3    H143027   1.091   4.267   2.317 -0.2756  0.1840 -0.4266
 7204TIP3    H243028   1.001   4.362   2.393 -0.5441 -1.1943  1.0451
 7205TIP3   OH243029   1.796   3.053  14.686  0.6349 -0.5335  0.0704
 7205TIP3    H143030   1.867   3.112  14.665  2.4944 -2.3402  0.8882
 7205TIP3    H243031   1.776   3.070  14.778  1.1964 -1.1630  0.3168
 7206TIP3   OH243032   5.707   4.894  15.792 -0.0118 -0.2335 -0.4639
 7206TIP3    H143033   5.630   4.872  15.845  0.0082  2.8431  1.0439
 7206TIP3    H243034   5.778   4.904  15.854  1.4591 -2.0423 -1.7484
 7207TIP3   OH243035   6.199   2.072  11.627  0.1036 -0.5978 -0.4643
 7207TIP3    H143036   6.204   1.977  11.638 -1.7408 -0.7469 -0.5995
 7207TIP3    H243037   6.228   2.107  11.711 -0.0268 -1.3119 -0.1133
 7208TIP3   OH243038   3.569   5.014  11.796  0.3512 -0.0667 -0.9221
 7208TIP3    H143039   3.546   5.106  11.784  0.9504  0.0919 -0.8532
 7208TIP3    H243040   3.564   5.000  11.890  2.2955  0.4457 -0.7046
 7209TIP3   OH243041   3.535   1.797   0.217 -0.2849 -0.0544  0.8973
 7209TIP3    H143042   3.584   1.751   0.149 -1.4529  0.7101 -0.5236
 7209TIP3    H243043   3.482   1.729   0.259 -0.3216 -0.3782  0.3307
 7210TIP3   OH243044   1.400   3.964  16.300  0.1314 -0.3776  0.2613
 7210TIP3    H143045   1.474   3.916  16.262 -1.7329 -2.2318 -1.2918
 7210TIP3    H243046   1.402   3.939  16.393  1.7316  0.0482  0.3821
 7211TIP3   OH243047   2.089   5.935  12.604  0.5052  0.1335  0.0250
 7211TIP3    H143048   2.181   5.932  12.630  0.3205 -1.3911  0.6417
 7211TIP3    H243049   2.088   5.898  12.515  0.4472 -0.2301  0.1749
 7212TIP3   OH243050   2.858   4.715   2.450  0.2942 -0.2523 -0.1979
 7212TIP3    H143051   2.802   4.787   2.480  0.0659 -1.2657  2.0029
 7212TIP3    H243052   2.797   4.643   2.434  0.6946 -0.5226 -0.5057
 7213TIP3   OH243053   0.131   1.168  11.729  0.0466  0.3226  0.2110
 7213TIP3    H143054   0.067   1.146  11.796 -1.5852 -0.2086 -1.4466
 7213TIP3    H243055   0.083   1.222  11.666  1.2047 -0.1175 -1.1107
 7214TIP3   OH243056   0.364   1.174   1.989  0.5625  0.1405 -0.1658
 7214TIP3    H143057   0.430   1.198   1.925  1.1044  1.2200  0.7668
 7214TIP3    H243058   0.411   1.171   2.073 -0.3518 -0.0898  0.3562
 7215TIP3   OH243059   0.278   5.169  12.193 -0.2651  0.5871 -0.1692
 7215TIP3    H143060   0.347   5.110  12.164 -0.2876  0.1246  0.6976
 7215TIP3    H243061   0.212   5.111  12.231 -1.9223  0.8393 -2.4242
 7216TIP3   OH243062   5.760   6.709   4.951  0.0716 -0.4291  0.3459
 7216TIP3    H143063   5.746   6.748   5.038 -2.9703  1.8665 -0.9886
 7216TIP3    H243064   5.761   6.615   4.967 -3.0434 -0.2359  2.6937
 7217TIP3   OH243065   3.754   3.014  15.703  0.0698 -0.4667 -0.6400
 7217TIP3    H143066   3.790   2.926  15.696  0.5085 -0.2012 -2.2832
 7217TIP3    H243067   3.780   3.057  15.621 -0.9118  0.8968 -0.2782
 7218TIP3   OH243068   3.884   4.673  17.172 -0.8588 -0.4453  0.0621
 7218TIP3    H143069   3.960   4.720  17.206  0.2607 -2.4579  0.5307
 7218TIP3    H243070   3.903   4.659  17.079  1.1537 -3.9130  0.8075
 7219TIP3   OH243071   4.014   2.059  14.003 -0.3034 -0.0689  0.3608
 7219TIP3    H143072   4.042   2.009  14.080  1.1926 -0.4103 -0.3608
 7219TIP3    H243073   4.063   2.141  14.008  0.6457 -0.5430 -0.7682
 7220TIP3   OH243074   3.014   5.174  14.131 -0.2310 -0.4821 -0.0840
 7220TIP3    H143075   3.054   5.103  14.080 -0.8026 -1.5701  0.9407
 7220TIP3    H243076   2.950   5.212  14.071 -1.8772 -2.6354  0.1915
 7221TIP3   OH243077   0.683   6.558   4.753  0.1866  0.2202 -0.0129
 7221TIP3    H143078   0.660   6.474   4.715 -0.2891 -0.4294  1.6191
 7221TIP3    H243079   0.777   6.568   4.735  0.7670 -1.7015  1.5999
 7222TIP3   OH243080   1.207   6.447  14.172  0.3193  0.4277 -0.0283
 7222TIP3    H143081   1.273   6.506  14.136  0.0574  1.1197  0.6081
 7222TIP3    H243082   1.253   6.401  14.243  1.0615 -1.4836 -1.6399
 7223TIP3   OH243083   4.050   0.464  15.244 -0.7090 -0.2507  0.3331
 7223TIP3    H143084   4.129   0.517  15.233 -0.2816 -0.9406 -0.0376
 7223TIP3    H243085   4.027   0.474  15.336 -0.7299  0.6914  0.2383
 7224TIP3   OH243086   2.306   4.019  13.007 -0.3713 -0.0755  0.0936
 7224TIP3    H143087   2.301   4.074  13.085 -0.7312  1.1912 -0.7770
 7224TIP3    H243088   2.398   3.995  13.000 -0.1044  0.8525  0.2386
 7225TIP3   OH243089   0.621   0.844  12.795  0.2059  0.0798 -0.3986
 7225TIP3    H143090   0.577   0.783  12.735  3.3553 -0.4651 -2.3759
 7225TIP3    H243091   0.690   0.792  12.835  1.8255  1.8526 -0.7555
 7226TIP3   OH243092   1.590   3.583   1.677 -0.5274  0.0691  0.0810
 7226TIP3    H143093   1.674   3.557   1.639 -0.7192 -0.8398  0.2521
 7226TIP3    H243094   1.580   3.674   1.652  0.8467  0.4119  0.6712
 7227TIP3   OH243095   4.847   3.516  14.713  1.0482  0.3644 -0.0401
 7227TIP3    H143096   4.880   3.549  14.797 -0.3984 -1.5156  1.3769
 7227TIP3    H243097   4.925   3.501  14.661  2.2286 -0.8088  1.9383
 7228TIP3   OH243098   0.981   3.292   2.392 -0.6125  0.2520 -0.3250
 7228TIP3    H143099   0.914   3.225   2.386 -1.2675  0.6680  1.6510
 7228TIP3    H243100   0.966   3.334   2.477  1.8725  0.6458  0.0026
 7229TIP3   OH243101   2.762   1.416   5.896 -0.4188  0.3039 -0.0022
 7229TIP3    H143102   2.719   1.339   5.859 -0.9474  0.2365  0.7307
 7229TIP3    H243103   2.721   1.490   5.851 -0.1661  0.1777 -0.4474
 7230TIP3   OH243104   0.775   2.899   4.965  0.2031 -0.1980 -0.2100
 7230TIP3    H143105   0.703   2.873   5.022  1.1282 -2.2847  0.1002
 7230TIP3    H243106   0.850   2.906   5.023  0.6561 -0.0188 -0.8106
 7231TIP3   OH243107   6.345   6.043  11.931 -0.0511  0.4117  0.2183
 7231TIP3    H143108   6.340   6.080  12.019  1.9640  0.2537  0.4441
 7231TIP3    H243109   6.433   6.066  11.900  1.5758 -4.2705  0.5108
 7232TIP3   OH243110   2.402   5.683   1.070  0.1410  0.7200 -0.4367
 7232TIP3    H143111   2.434   5.753   1.126  1.5618  0.6520 -1.1353
 7232TIP3    H243112   2.329   5.722   1.021 -0.2530  1.1579  0.4777
 7233TIP3   OH243113   5.848   0.490  15.241 -0.1224  0.0884  0.0178
 7233TIP3    H143114   5.905   0.502  15.165  0.3557  1.8658  0.6127
 7233TIP3    H243115   5.762   0.471  15.204  0.9474 -3.6899 -0.8980
 7234TIP3   OH243116   4.364   4.179   2.569 -0.4099 -0.2216 -0.7970
 7234TIP3    H143117   4.296   4.242   2.545 -1.5800 -0.1534  2.2870
 7234TIP3    H243118   4.438   4.233   2.598 -0.2723 -0.2909 -1.0143
 7235TIP3   OH243119   2.554   2.116   2.909  0.5248 -0.5367  0.2770
 7235TIP3    H143120   2.578   2.178   2.840  0.8611 -0.9314  0.0317
 7235TIP3    H243121   2.461   2.097   2.893  0.6511 -0.7789 -0.1975
 7236TIP3   OH243122   0.171   2.845   3.732 -0.2991 -0.6691 -0.1005
 7236TIP3    H143123   0.252   2.802   3.704  1.8124  1.1797  2.5295
 7236TIP3    H243124   0.138   2.889   3.654  0.8432 -1.9887 -1.3912
 7237TIP3   OH243125   2.889   2.375   0.971  0.4664  0.2188  0.0662
 7237TIP3    H143126   2.982   2.353   0.981  0.5092  0.2841 -0.1871
 7237TIP3    H243127   2.843   2.311   1.025  0.6233 -0.1546 -0.2467
 7238TIP3   OH243128   6.141   0.016   4.840 -0.3569  0.1418 -0.1876
 7238TIP3    H143129   6.097  -0.066   4.820 -0.6680  0.6632 -1.7739
 7238TIP3    H243130   6.159   0.011   4.934 -3.1796 -0.4066  0.4203
 7239TIP3   OH243131   0.159   5.931   5.524 -0.1906 -0.4867 -0.0899
 7239TIP3    H143132   0.230   5.900   5.579 -0.4098 -0.3870  0.2487
 7239TIP3    H243133   0.143   6.021   5.553  0.0482 -0.2517 -0.6698
 7240TIP3   OH243134   4.451   5.164   0.249 -0.2492  0.5116  0.3252
 7240TIP3    H143135   4.512   5.212   0.193  1.3592 -1.4144  0.3311
 7240TIP3    H243136   4.365   5.197   0.224  0.5576  1.1167 -1.8722
 7241TIP3   OH243137   0.619   2.759  15.350 -0.3555 -0.5480  0.0031
 7241TIP3    H143138   0.545   2.815  15.325 -1.0051 -1.6368 -0.5582
 7241TIP3    H243139   0.674   2.756  15.272 -0.5661 -1.0802 -0.1241
 7242TIP3   OH243140   3.444   3.661  16.635 -0.6949 -0.1014  0.2521
 7242TIP3    H143141   3.450   3.597  16.706  0.5213  0.0153  0.2873
 7242TIP3    H243142   3.413   3.741  16.677  2.8144  0.8693  1.3681
 7243TIP3   OH243143   1.483   3.590  11.363 -0.5874 -0.2163 -0.0300
 7243TIP3    H143144   1.544   3.519  11.380  0.1094  0.0811 -1.1752
 7243TIP3    H243145   1.398   3.556  11.391 -0.4543 -1.9246 -1.4877
 7244TIP3   OH243146   6.682   2.248  13.395  0.4315  0.1559  0.2942
 7244TIP3    H143147   6.649   2.282  13.312 -0.6887  0.4483  0.8473
 7244TIP3    H243148   6.741   2.316  13.427  0.3638  0.3314  0.0492
 7245TIP3   OH243149   3.538   4.529  12.551  0.3027 -0.0359  0.1205
 7245TIP3    H143150   3.514   4.567  12.635  1.1766  0.7705  0.0259
 7245TIP3    H243151   3.467   4.468  12.531 -0.6442  0.8226  0.7501
 7246TIP3   OH243152   4.172   1.888  16.307  0.1219 -0.3763  0.5522
 7246TIP3    H143153   4.227   1.874  16.230  1.1810 -0.5437  1.3096
 7246TIP3    H243154   4.194   1.976  16.338  0.1384 -0.5290  0.9901
 7247TIP3   OH243155   3.987   6.729   3.920  0.1015 -0.4225  0.4282
 7247TIP3    H143156   3.897   6.759   3.935  1.1697  4.5307 -1.2032
 7247TIP3    H243157   4.014   6.690   4.003 -2.9038 -0.3609  1.5528
 7248TIP3   OH243158   5.437   2.037  13.534 -0.7678 -0.4451 -0.3476
 7248TIP3    H143159   5.402   2.037  13.623  1.9607 -0.8331  0.8484
 7248TIP3    H243160   5.397   1.962  13.492 -2.5526  0.0784  0.3284
 7249TIP3   OH243161   4.427   6.330   5.900  0.3734  0.2692 -0.2785
 7249TIP3    H143162   4.359   6.336   5.967  0.5122  0.8314 -0.1827
 7249TIP3    H243163   4.389   6.375   5.824 -0.0132 -0.8611 -0.7822
 7250TIP3   OH243164   1.762   6.012   0.464 -0.2239 -0.3815  0.6614
 7250TIP3    H143165   1.698   5.943   0.480  1.1164 -1.6415  0.8267
 7250TIP3    H243166   1.774   6.054   0.550 -0.1652 -0.7256  0.8225
 7251TIP3   OH243167   1.015   4.631   0.856  0.4385 -0.0588 -0.2924
 7251TIP3    H143168   0.961   4.558   0.887 -0.3673  0.4356 -0.4841
 7251TIP3    H243169   0.953   4.703   0.847  1.1731  0.5618 -0.3939
 7252TIP3   OH243170   4.068   5.496   0.100  0.0818  0.1993  0.0836
 7252TIP3    H143171   4.058   5.560   0.028 -0.9589 -0.3251 -0.2665
 7252TIP3    H243172   3.979   5.485   0.134  0.5749  0.5303  1.5590
 7253TIP3   OH243173   6.587   1.916  11.708 -0.3182 -0.0916  0.0318
 7253TIP3    H143174   6.649   1.847  11.734 -0.0647  0.0536 -0.1890
 7253TIP3    H243175   6.567   1.962  11.790  0.7174  0.5602 -0.0666
 7254TIP3   OH243176   4.281   3.240  14.849  0.4902 -0.0700 -0.2281
 7254TIP3    H143177   4.317   3.182  14.782  0.4117  0.7606 -1.0248
 7254TIP3    H243178   4.192   3.259  14.818 -0.0303 -0.7347  0.8211
 7255TIP3   OH243179   0.744   2.459   3.968 -0.5889  0.0752  0.2420
 7255TIP3    H143180   0.707   2.419   3.889  0.6256  0.7334 -0.6913
 7255TIP3    H243181   0.798   2.390   4.006  0.7727  0.4911 -0.8666
 7256TIP3   OH243182   0.833   4.110   2.690  0.1585 -0.3561 -0.4233
 7256TIP3    H143183   0.768   4.159   2.739 -0.9040  0.7063 -2.7687
 7256TIP3    H243184   0.786   4.035   2.655  0.9207 -1.1463  0.1848
 7257TIP3   OH243185   1.317   2.130   4.938  1.2908 -0.0267  0.0957
 7257TIP3    H143186   1.396   2.116   4.885 -0.0013  1.4688 -2.4776
 7257TIP3    H243187   1.272   2.046   4.937  1.7958 -0.2985 -0.3515
 7258TIP3   OH243188   4.823   1.087   2.440  0.0857  0.2682 -0.0697
 7258TIP3    H143189   4.899   1.086   2.498  0.1358  1.0260 -0.1155
 7258TIP3    H243190   4.751   1.054   2.494  0.1333  0.9633  0.4225
 7259TIP3   OH243191   1.517   1.009   4.238  0.0379  0.1998  0.2852
 7259TIP3    H143192   1.523   1.067   4.314  0.7873 -1.2679  1.4211
 7259TIP3    H243193   1.437   0.959   4.252 -0.7024  1.0544 -0.7785
 7260TIP3   OH243194   0.873   4.514   5.429 -0.2085 -0.2698 -0.3711
 7260TIP3    H143195   0.846   4.542   5.516 -1.4261 -0.0978 -0.7819
 7260TIP3    H243196   0.841   4.424   5.421 -1.7492  0.3095 -1.2732
 7261TIP3   OH243197   5.678   6.135  14.554 -0.3396  0.1624  0.1149
 7261TIP3    H143198   5.670   6.088  14.470 -1.2865 -1.1886  0.9234
 7261TIP3    H243199   5.605   6.103  14.606 -0.5760  2.0279  0.9963
 7262TIP3   OH243200   4.246   5.511   2.297 -0.0841 -0.6325 -0.1659
 7262TIP3    H143201   4.339   5.518   2.279 -0.2216  1.2594 -0.3530
 7262TIP3    H243202   4.233   5.561   2.378 -0.9987 -0.4427 -0.4196
 7263TIP3   OH243203   1.018   2.639  15.213  0.8497  0.1748  0.0777
 7263TIP3    H143204   1.016   2.705  15.282 -0.6919 -0.0934  0.3221
 7263TIP3    H243205   1.098   2.658  15.164  1.3340  1.1261  1.1934
 7264TIP3   OH243206   6.247   2.713   1.951 -0.0656 -0.6301  0.8259
 7264TIP3    H143207   6.295   2.796   1.953  0.3442 -0.8317 -0.1204
 7264TIP3    H243208   6.180   2.722   2.019  0.8803 -0.0798  1.7148
 7265TIP3   OH243209   2.832   5.374   1.276 -0.1310  0.7286  0.2814
 7265TIP3    H143210   2.832   5.469   1.282 -0.8214  0.6949  0.8984
 7265TIP3    H243211   2.756   5.353   1.223 -1.7273  0.4116  2.5536
 7266TIP3   OH243212   1.841   6.031  11.107  0.5146  0.3930 -0.2282
 7266TIP3    H143213   1.755   6.071  11.122  0.4318  0.1862 -0.1449
 7266TIP3    H243214   1.827   5.972  11.032  0.0383 -1.2652  1.0939
 7267TIP3   OH243215   3.243   3.885   3.220 -0.5737 -0.5799  0.3953
 7267TIP3    H143216   3.336   3.899   3.233  0.0495 -0.2996 -3.2098
 7267TIP3    H243217   3.236   3.797   3.184 -1.5967 -0.3485 -0.0345
 7268TIP3   OH243218   3.560   1.127  11.440 -0.2466 -0.2535 -0.7073
 7268TIP3    H143219   3.535   1.219  11.450 -3.0475 -1.0212  0.2755
 7268TIP3    H243220   3.538   1.106  11.349  1.1483  0.2078 -1.1736
 7269TIP3   OH243221   3.768   6.684   0.118  0.1496  0.1025  0.1931
 7269TIP3    H143222   3.812   6.759   0.078 -1.5621  1.3731  0.5313
 7269TIP3    H243223   3.755   6.710   0.209  0.4666 -1.0666  0.5850
 7270TIP3   OH243224   2.368   3.539  13.166  0.0623 -0.3078  0.3072
 7270TIP3    H143225   2.351   3.551  13.072 -0.2552  0.6650  0.4719
 7270TIP3    H243226   2.281   3.540  13.206  0.1423 -1.5079  0.5461
 7271TIP3   OH243227   1.236   2.564   0.230  0.8641  0.2595  0.2868
 7271TIP3    H143228   1.284   2.560   0.147 -0.8840 -0.6544 -0.7206
 7271TIP3    H243229   1.232   2.473   0.260 -0.4365  0.2724  0.2100
 7272TIP3   OH243230   3.535   3.562  14.286 -0.6364 -0.5683 -0.2668
 7272TIP3    H143231   3.497   3.550  14.199 -0.1117 -1.7324 -0.3532
 7272TIP3    H243232   3.459   3.568  14.344 -1.0483 -2.8980 -0.4325
 7273TIP3   OH243233   1.279   3.773  14.038  0.0479  0.1654 -0.2217
 7273TIP3    H143234   1.262   3.835  14.109 -0.5012  1.4249 -1.4212
 7273TIP3    H243235   1.278   3.687  14.081 -0.4571  0.8804  1.2622
 7274TIP3   OH243236   3.566   4.320  14.830 -0.4215 -0.3067 -0.4764
 7274TIP3    H143237   3.627   4.251  14.805  0.4132 -0.5770  1.9998
 7274TIP3    H243238   3.480   4.286  14.805 -0.0149 -2.2068  0.4914
 7275TIP3   OH243239   0.218   3.068  14.411  0.0555  0.0140  0.8734
 7275TIP3    H143240   0.244   3.143  14.357 -0.6418  1.1139  1.9998
 7275TIP3    H243241   0.159   3.105  14.477 -0.0941 -1.4879  1.6337
 7276TIP3   OH243242   4.361   2.292  15.484 -0.2264 -0.3334 -0.5329
 7276TIP3    H143243   4.280   2.260  15.443  0.5063  0.5120 -2.7847
 7276TIP3    H243244   4.362   2.386  15.465  2.1760 -0.6133 -2.3270
 7277TIP3   OH243245   5.214   5.554   4.653  0.3998  0.5935 -0.4117
 7277TIP3    H143246   5.285   5.593   4.603 -0.3503  0.6496 -1.4663
 7277TIP3    H243247   5.192   5.620   4.719 -0.1949  1.5576 -1.5476
 7278TIP3   OH243248   3.742   2.179   6.555  0.0620 -0.3325  0.0995
 7278TIP3    H143249   3.740   2.085   6.536 -0.8819 -1.0657  3.2496
 7278TIP3    H243250   3.804   2.187   6.628  1.5874  1.8269 -1.3186
 7279TIP3   OH243251   5.785   5.280   3.748  0.5285 -0.3431  0.1472
 7279TIP3    H143252   5.741   5.266   3.832  1.7178 -1.7385  0.5719
 7279TIP3    H243253   5.878   5.286   3.770  0.7950  0.0649 -1.0041
 7280TIP3   OH243254   0.041   0.858   5.409  0.5596 -0.1297  0.5015
 7280TIP3    H143255   0.053   0.839   5.502  2.3742 -0.0894  0.3092
 7280TIP3    H243256   0.063   0.951   5.400 -1.1733  0.2907  0.2601
 7281TIP3   OH243257   5.210   2.054   4.137 -0.1747  0.1130  0.1268
 7281TIP3    H143258   5.268   2.081   4.208  0.3388 -0.2022 -0.1712
 7281TIP3    H243259   5.255   2.083   4.057 -1.6235  2.1914 -0.0196
 7282TIP3   OH243260   5.907   1.870  13.774  0.5926 -0.6220  0.1003
 7282TIP3    H143261   5.864   1.892  13.856 -0.9636  0.2435 -0.8987
 7282TIP3    H243262   5.907   1.774  13.771  0.9615 -0.6669  1.2373
 7283TIP3   OH243263   5.918   2.572   0.995 -0.5333 -0.2922 -0.1509
 7283TIP3    H143264   5.883   2.584   1.084 -0.2787 -1.1774  0.0765
 7283TIP3    H243265   6.013   2.577   1.006 -0.5243  0.3500 -0.4943
 7284TIP3   OH243266   0.823   3.042  13.633 -0.0425 -0.2342 -0.2077
 7284TIP3    H143267   0.843   2.958  13.591  1.4996  0.2626 -0.5288
 7284TIP3    H243268   0.901   3.062  13.685 -0.6019  0.7539  0.2735
 7285TIP3   OH243269   1.226   1.682  11.857  0.0389 -0.1768 -0.1604
 7285TIP3    H143270   1.162   1.695  11.787  0.7441 -0.7660 -0.9302
 7285TIP3    H243271   1.207   1.752  11.920  0.0258  0.9994 -1.4071
 7286TIP3   OH243272   0.220   0.489   0.180 -0.9715  0.4210  0.2286
 7286TIP3    H143273   0.166   0.452   0.110 -1.5518  0.4852  0.6387
 7286TIP3    H243274   0.172   0.566   0.209  0.5405  1.9308 -1.0657
 7287TIP3   OH243275   5.015   6.283   6.445  0.3692  0.0982  0.4329
 7287TIP3    H143276   4.954   6.211   6.459 -1.4463  1.5386  0.2375
 7287TIP3    H243277   4.993   6.346   6.514 -0.4094  1.9263 -1.3765
 7288TIP3   OH243278   1.223   2.502   4.448 -0.0428 -0.5445 -0.2522
 7288TIP3    H143279   1.268   2.448   4.513  0.0131 -0.0690  0.1044
 7288TIP3    H243280   1.134   2.511   4.482 -0.9367 -2.8270 -1.7324
 7289TIP3   OH243281   1.699   2.829  13.159  0.2914 -0.1201 -0.9666
 7289TIP3    H143282   1.768   2.794  13.215 -0.4690  1.8776  1.4046
 7289TIP3    H243283   1.725   2.920  13.143 -0.4091 -0.1495 -2.4033
 7290TIP3   OH243284   1.662   3.211  11.660  0.3081  0.0293 -0.5993
 7290TIP3    H143285   1.628   3.122  11.665 -0.8859  0.4988 -0.0449
 7290TIP3    H243286   1.711   3.223  11.741  0.4557 -0.1132 -0.6669
 7291TIP3   OH243287   5.959   2.578  11.635 -0.0538 -0.2631 -0.0519
 7291TIP3    H143288   6.052   2.592  11.654 -0.1026  0.5112 -0.3521
 7291TIP3    H243289   5.922   2.547  11.718  0.4154 -0.3154  0.1414
 7292TIP3   OH243290   3.558   6.590   3.307 -0.6346  0.3159 -0.1560
 7292TIP3    H143291   3.466   6.572   3.291 -1.0384  0.9044  1.3300
 7292TIP3    H243292   3.604   6.549   3.233 -1.7016 -3.8990  1.2118
 7293TIP3   OH243293   6.482   3.060  12.735 -0.5556 -0.3375  0.2794
 7293TIP3    H143294   6.542   3.135  12.734 -1.5918  0.5084 -1.5373
 7293TIP3    H243295   6.438   3.066  12.820 -0.3013  0.8325  0.3403
 7294TIP3   OH243296   5.269   1.874  11.099  0.1162  0.2766  0.1420
 7294TIP3    H143297   5.204   1.915  11.157 -0.2084 -0.6017  0.4125
 7294TIP3    H243298   5.285   1.788  11.138  1.0778  0.2812 -0.2041
 7295TIP3   OH243299   3.380   5.353   5.135 -0.1631  0.0978  0.0749
 7295TIP3    H143300   3.327   5.275   5.118 -0.3193  0.2762 -0.2759
 7295TIP3    H243301   3.319   5.426   5.126  0.2226  0.3290 -0.7402
 7296TIP3   OH243302   4.062   5.946  13.069 -0.8230 -0.6683  0.5845
 7296TIP3    H143303   4.063   5.875  13.005  0.3676 -0.4883  0.3771
 7296TIP3    H243304   4.021   6.019  13.024  3.1014  0.6132 -1.3491
 7297TIP3   OH243305   1.732   1.347  17.027  0.4314 -0.1013 -0.3152
 7297TIP3    H143306   1.796   1.417  17.045 -1.3341  1.9247 -1.4524
 7297TIP3    H243307   1.660   1.392  16.983 -1.1995 -2.5365 -0.2836
 7298TIP3   OH243308   6.777   5.575  13.779 -0.2405  0.0976  0.7444
 7298TIP3    H143309   6.752   5.574  13.872 -0.8852  1.6370  0.6168
 7298TIP3    H243310   6.699   5.609  13.734  1.2098  2.6624  0.0363
 7299TIP3   OH243311   1.474   0.506   2.344 -0.0646  0.3937  0.1235
 7299TIP3    H143312   1.480   0.558   2.424  2.4857  3.2320 -1.7353
 7299TIP3    H243313   1.380   0.496   2.329 -0.6064  1.0266  2.6273
 7300TIP3   OH243314   4.752   6.091  12.193 -0.2648  0.3576  0.4467
 7300TIP3    H143315   4.826   6.152  12.192  1.1155 -1.1703  2.0051
 7300TIP3    H243316   4.687   6.133  12.249  0.5342  0.5901  1.2379
 7301TIP3   OH243317   3.955   6.180  13.982  0.8186  0.4465  0.0973
 7301TIP3    H143318   3.862   6.179  13.962  0.3203 -1.5204  2.1124
 7301TIP3    H243319   3.996   6.137  13.906  0.2695  2.1903 -1.2487
 7302TIP3   OH243320   5.060   3.089  13.858 -0.3449 -0.0998  0.0501
 7302TIP3    H143321   5.000   3.157  13.889 -0.2482  1.0079 -2.0183
 7302TIP3    H243322   5.087   3.119  13.772  1.4637 -1.6935  0.0071
 7303TIP3   OH243323   3.183   3.225  15.762  0.6279  0.3219 -0.5822
 7303TIP3    H143324   3.274   3.208  15.736 -0.3942 -1.5809 -3.4359
 7303TIP3    H243325   3.144   3.138  15.768 -0.9920  1.0989  0.8027
 7304TIP3   OH243326   1.666   4.897   5.464 -0.1406 -0.0945  0.4215
 7304TIP3    H143327   1.588   4.926   5.512 -1.5247 -2.2989 -0.3451
 7304TIP3    H243328   1.645   4.913   5.373  0.1844 -0.9807  0.1841
 7305TIP3   OH243329   6.112   5.333   3.103 -0.0174  0.1769 -0.6183
 7305TIP3    H143330   6.031   5.383   3.105 -0.8114 -0.8169  3.8243
 7305TIP3    H243331   6.174   5.386   3.154  0.0932 -1.7886  1.4437
 7306TIP3   OH243332   5.973   0.007  14.772 -0.4821 -0.4538  0.5833
 7306TIP3    H143333   5.996   0.083  14.825  3.1580  0.0211 -1.3746
 7306TIP3    H243334   5.970  -0.066  14.834  0.6193  0.5623  1.8660
 7307TIP3   OH243335   6.453   2.955   1.876 -0.2832  0.2431 -0.3284
 7307TIP3    H143336   6.453   2.946   1.781 -2.3456  2.3390 -0.6134
 7307TIP3    H243337   6.544   2.974   1.899  0.2498 -0.3656 -1.8326
 7308TIP3   OH243338   5.696   2.782  17.108 -0.3961 -0.2327  0.3257
 7308TIP3    H143339   5.617   2.754  17.061 -0.2416  0.7030 -0.5319
 7308TIP3    H243340   5.664   2.809  17.194 -0.8572 -0.8723  0.3562
 7309TIP3   OH243341   4.268   1.771   5.360 -0.0511  0.3053  0.4659
 7309TIP3    H143342   4.345   1.815   5.325 -0.5121 -0.6621 -1.9716
 7309TIP3    H243343   4.194   1.810   5.313 -0.9501  0.3612  1.8758
 7310TIP3   OH243344   2.393   1.957  11.743 -0.1222  0.0238  0.1162
 7310TIP3    H143345   2.386   1.947  11.838 -0.8415  2.4443  0.3907
 7310TIP3    H243346   2.471   2.012  11.730 -1.4083  1.8192 -0.4401
 7311TIP3   OH243347   6.300   4.647  15.844 -0.4193 -0.8378 -0.2051
 7311TIP3    H143348   6.349   4.566  15.858 -0.0273 -0.5293  0.2514
 7311TIP3    H243349   6.218   4.634  15.891 -0.6383 -1.2244 -0.6859
 7312TIP3   OH243350   0.052   4.388   0.712 -0.4809  0.4026 -0.7945
 7312TIP3    H143351   0.081   4.384   0.621 -1.5011 -0.0316 -1.1075
 7312TIP3    H243352   0.097   4.465   0.747  1.4519 -0.5304 -1.1011
 7313TIP3   OH243353   1.370   2.943   5.842  0.4237  0.7018 -0.1873
 7313TIP3    H143354   1.365   2.851   5.818  1.1129  0.6200 -0.0436
 7313TIP3    H243355   1.429   2.945   5.917  0.7329  1.3081 -0.4422
 7314TIP3   OH243356   3.525   6.349  15.070 -0.0172  0.9115 -0.0081
 7314TIP3    H143357   3.540   6.425  15.013  0.7599  1.0956  0.4315
 7314TIP3    H243358   3.582   6.281  15.035 -1.4397  0.1818 -1.0148
 7315TIP3   OH243359   2.088   1.253  16.084  0.4923 -0.3187 -0.3314
 7315TIP3    H143360   2.165   1.223  16.035  1.5881  0.5690  0.7986
 7315TIP3    H243361   2.082   1.192  16.158  0.4788 -0.0205 -0.0859
 7316TIP3   OH243362   4.927   5.505   4.576  0.0679 -0.4257  0.4616
 7316TIP3    H143363   5.011   5.468   4.602  0.5475 -0.4559 -1.0665
 7316TIP3    H243364   4.875   5.429   4.549  0.1040 -0.2442 -0.1091
 7317TIP3   OH243365   4.337   0.213  15.990  0.3402  0.5408  0.3534
 7317TIP3    H143366   4.342   0.211  15.894  1.4712  1.3862  0.3728
 7317TIP3    H243367   4.246   0.234  16.009  0.1380  0.5359 -0.5412
 7318TIP3   OH243368   3.056   1.098  10.961 -0.0127  0.0016 -0.6416
 7318TIP3    H143369   3.114   1.037  11.007 -0.3546 -0.6889 -1.1144
 7318TIP3    H243370   3.034   1.053  10.880 -0.4807  0.6525 -0.8768
 7319TIP3   OH243371   0.943   6.446  12.234 -0.7628  0.3146  0.1975
 7319TIP3    H143372   0.848   6.443  12.242 -0.7788 -1.4669 -0.0694
 7319TIP3    H243373   0.963   6.381  12.166  0.6857  0.0357  0.8492
 7320TIP3   OH243374   5.115   6.593  14.922 -0.1133 -0.4017 -0.0964
 7320TIP3    H143375   5.090   6.684  14.937 -1.6923 -1.1922  2.8859
 7320TIP3    H243376   5.209   6.590  14.940 -0.3811  0.3769  1.6750
 7321TIP3   OH243377   4.098   6.181  15.984  0.1060  0.1489 -0.8369
 7321TIP3    H143378   4.044   6.138  15.918 -2.6888  2.2141 -0.1358
 7321TIP3    H243379   4.070   6.141  16.067  0.1620  0.7591 -0.5189
 7322TIP3   OH243380   5.036   4.295  15.498 -0.2194  0.2309  0.3120
 7322TIP3    H143381   5.022   4.384  15.529  0.0019  0.1822  0.5542
 7322TIP3    H243382   5.101   4.304  15.428 -0.3097  0.2756  0.2339
 7323TIP3   OH243383   1.027   1.923   5.412  0.4321  0.5013 -0.5374
 7323TIP3    H143384   1.123   1.931   5.417  0.4197  0.3878 -0.1160
 7323TIP3    H243385   1.008   1.930   5.319  0.7798  1.3024 -0.5520
 7324TIP3   OH243386   1.927   4.201   1.112 -0.0755 -0.5428  0.4052
 7324TIP3    H143387   1.842   4.158   1.124 -0.5711  0.7395  1.8673
 7324TIP3    H243388   1.909   4.271   1.050 -0.4974  0.6697  1.8278
 7325TIP3   OH243389   4.985   5.892  13.895 -0.1556 -0.2727 -0.1305
 7325TIP3    H143390   4.900   5.907  13.853 -0.6330 -0.0727  0.8838
 7325TIP3    H243391   4.975   5.926  13.984  0.3379 -2.0578  0.6557
 7326TIP3   OH243392   3.888   6.146   0.965 -0.1256  0.4664 -0.3513
 7326TIP3    H143393   3.897   6.091   1.043  0.4442  1.7658  0.5386
 7326TIP3    H243394   3.964   6.205   0.968  0.9273 -0.6312 -2.8825
 7327TIP3   OH243395   2.132   0.722  13.629 -0.7569  0.4819 -0.1098
 7327TIP3    H143396   2.170   0.767  13.704 -0.6298  0.0717  0.0762
 7327TIP3    H243397   2.155   0.630  13.642 -0.0536  0.5167 -1.0760
 7328TIP3   OH243398   0.107   5.055  14.817  0.8121 -0.0159 -0.2545
 7328TIP3    H143399   0.086   5.106  14.895  0.3444 -0.4414 -0.0978
 7328TIP3    H243400   0.102   5.118  14.745  1.8597  0.5204  0.1187
 7329TIP3   OH243401   3.780   6.493  13.485  0.2710 -0.3691 -0.3039
 7329TIP3    H143402   3.698   6.508  13.532 -0.3066 -1.2113 -1.0123
 7329TIP3    H243403   3.753   6.473  13.395  1.2943  0.1060 -0.7376
 7330TIP3   OH243404   3.116   1.918  13.592 -0.0493  0.2351  0.0449
 7330TIP3    H143405   3.179   1.979  13.631 -0.4792  1.5227 -1.1975
 7330TIP3    H243406   3.087   1.864  13.665  1.1265  0.8345  0.9905
 7331TIP3   OH243407   1.131   3.047   0.342  0.1722  0.3317 -0.6584
 7331TIP3    H143408   1.180   2.974   0.304 -0.3221 -0.3790  0.0219
 7331TIP3    H243409   1.041   3.014   0.349  0.6481 -0.6431  3.5843
 7332TIP3   OH243410   2.350   0.418  12.721 -0.3635  0.1594 -0.2982
 7332TIP3    H143411   2.391   0.382  12.642  0.7167 -0.8446  0.6658
 7332TIP3    H243412   2.395   0.372  12.793 -1.6305  0.7142  0.8752
 7333TIP3   OH243413   3.387   6.008  11.456  0.2413  0.3278 -0.6651
 7333TIP3    H143414   3.403   5.916  11.435 -0.3704 -0.8611  3.2204
 7333TIP3    H243415   3.295   6.022  11.433 -0.0468 -0.4741 -0.0636
 7334TIP3   OH243416   0.158   5.909   4.293 -0.5806  0.0528  0.2069
 7334TIP3    H143417   0.111   5.988   4.266 -1.0030 -0.2603 -0.0028
 7334TIP3    H243418   0.248   5.923   4.265 -0.0845  1.4856  2.3061
 7335TIP3   OH243419   0.411   5.337   4.908  0.2080 -0.0964 -0.0280
 7335TIP3    H143420   0.427   5.408   4.846  0.1888 -1.1318 -1.2654
 7335TIP3    H243421   0.325   5.356   4.946  0.7562  1.2022  0.6262
 7336TIP3   OH243422   5.887   0.345   4.257 -0.0160  0.0504 -0.4516
 7336TIP3    H143423   5.881   0.280   4.327  0.5396  0.8570  0.3607
 7336TIP3    H243424   5.971   0.388   4.272 -0.4478  1.0590 -0.8886
 7337TIP3   OH243425   2.040   2.568  13.111 -0.4192  0.0395 -0.0511
 7337TIP3    H143426   2.118   2.514  13.120 -1.5186 -1.8502 -1.1455
 7337TIP3    H243427   2.047   2.606  13.023 -0.5472  0.1818 -0.0003
 7338TIP3   OH243428   2.741   0.754   0.786  1.1201  0.4616  0.2288
 7338TIP3    H143429   2.754   0.749   0.881 -0.9240  0.4545  0.5530
 7338TIP3    H243430   2.723   0.846   0.769 -0.3049  0.2031  0.1629
 7339TIP3   OH243431   2.688   5.726  16.665 -0.5479  0.3758  0.4868
 7339TIP3    H143432   2.774   5.762  16.645 -0.2448  0.8887  2.4774
 7339TIP3    H243433   2.649   5.789  16.725 -2.5518  0.4094 -0.7630
 7340TIP3   OH243434   0.350   1.672  15.333 -0.0756 -0.4940  0.5313
 7340TIP3    H143435   0.257   1.658  15.351  0.0577 -0.1322  1.5733
 7340TIP3    H243436   0.385   1.705  15.416  0.4456  1.9141 -0.5673
 7341TIP3   OH243437   4.800   6.141  12.473 -0.3328 -0.1578 -0.2896
 7341TIP3    H143438   4.864   6.179  12.533 -0.6820 -0.4389  0.2818
 7341TIP3    H243439   4.850   6.117  12.396  0.0878  0.4377 -0.2136
 7342TIP3   OH243440   2.632   2.045   3.914  0.1620  0.4873 -0.2879
 7342TIP3    H143441   2.640   2.105   3.840  1.0774  0.6169 -0.0926
 7342TIP3    H243442   2.585   1.970   3.878  0.9289  0.3794 -1.1173
 7343TIP3   OH243443   4.679   2.517  15.557  0.2856  0.4378 -0.1723
 7343TIP3    H143444   4.651   2.572  15.483 -0.0058  1.5424  0.7401
 7343TIP3    H243445   4.749   2.463  15.520  0.3939  1.2230 -1.1750
 7344TIP3   OH243446   2.437   5.037   3.917 -0.2488  0.1031 -0.0197
 7344TIP3    H143447   2.480   4.955   3.893  0.4064  0.8898 -1.7747
 7344TIP3    H243448   2.372   5.051   3.848 -2.5709 -0.4584  1.9508
 7345TIP3   OH243449   2.704   4.614   0.716 -0.0943 -0.2409  0.4225
 7345TIP3    H143450   2.694   4.563   0.636 -0.2191  0.7811 -0.2260
 7345TIP3    H243451   2.629   4.674   0.716 -0.1757 -0.3199  1.3811
 7346TIP3   OH243452   1.320   3.306   0.847  0.0028  0.1096 -0.4014
 7346TIP3    H143453   1.342   3.376   0.786 -1.5050  0.7367 -0.2709
 7346TIP3    H243454   1.301   3.351   0.930  1.4545 -0.6829  0.4099
 7347TIP3   OH243455   1.934   3.740  13.366 -0.3099 -0.6649 -0.0177
 7347TIP3    H143456   1.895   3.766  13.450 -0.7632  0.4696 -0.5641
 7347TIP3    H243457   1.895   3.799  13.302  2.5500  0.8213 -0.5641
 7348TIP3   OH243458   3.224   4.963  13.212 -0.0388  0.4469  0.3791
 7348TIP3    H143459   3.131   4.949  13.232 -0.2588 -0.4031 -1.0646
 7348TIP3    H243460   3.227   5.048  13.168 -0.0191  0.8247  1.1068
 7349TIP3   OH243461   5.170   1.273  17.013  0.2362 -0.3423  0.1518
 7349TIP3    H143462   5.091   1.223  17.034  0.5185 -0.7632  0.2197
 7349TIP3    H243463   5.242   1.211  17.025  0.5902  0.0704  0.2074
 7350TIP3   OH243464   1.985   3.095   3.853 -0.3591  0.9585 -0.3238
 7350TIP3    H143465   2.052   3.027   3.862 -1.7087 -0.3297  0.3637
 7350TIP3    H243466   1.951   3.084   3.764 -0.8884  0.4175 -0.0603
 7351TIP3   OH243467   2.654   3.457   4.109  0.4375  0.4905 -0.0982
 7351TIP3    H143468   2.559   3.466   4.117  0.3818 -0.7230  1.0069
 7351TIP3    H243469   2.667   3.374   4.062  0.9389  0.1125  0.6786
 7352TIP3   OH243470   1.302   0.802   2.466 -0.0844  0.0457  0.4537
 7352TIP3    H143471   1.357   0.742   2.515  0.4360 -2.7243 -3.1416
 7352TIP3    H243472   1.363   0.865   2.428  0.0237 -0.2667  0.1102
 7353TIP3   OH243473   0.616   5.458   0.277 -0.2318  0.1321 -0.5417
 7353TIP3    H143474   0.661   5.381   0.242 -0.6344 -0.6193  0.5434
 7353TIP3    H243475   0.686   5.520   0.296  0.1460 -0.1689 -0.9119
 7354TIP3   OH243476   4.007   2.492  14.581  0.0872 -0.1261  0.3462
 7354TIP3    H143477   3.932   2.480  14.639 -0.1295  0.6711  0.2342
 7354TIP3    H243478   3.975   2.549  14.511  0.1879 -1.4895 -0.8649
 7355TIP3   OH243479   3.713   6.191   2.632  0.2353 -0.1454 -0.4790
 7355TIP3    H143480   3.724   6.286   2.634  1.1659 -0.2303 -1.0303
 7355TIP3    H243481   3.801   6.156   2.617  0.2347 -1.1937  1.4973
 7356TIP3   OH243482   2.470   2.564  11.562 -0.5292  0.4441 -0.8799
 7356TIP3    H143483   2.447   2.495  11.623 -0.8031 -0.5394 -2.0565
 7356TIP3    H243484   2.543   2.610  11.604 -0.0970 -0.7965 -0.2441
 7357TIP3   OH243485   6.218   2.712  11.076  0.1789  0.0161 -0.0841
 7357TIP3    H143486   6.156   2.782  11.097  0.6508  0.4536 -0.1513
 7357TIP3    H243487   6.163   2.635  11.065 -0.3804  0.4381 -0.3138
 7358TIP3   OH243488   4.885   5.155  15.681  0.2298  0.0389  0.2292
 7358TIP3    H143489   4.813   5.099  15.711 -0.4124  0.3385 -0.7126
 7358TIP3    H243490   4.847   5.243  15.676  0.8818  0.3447  0.4695
 7359TIP3   OH243491   4.820   1.940   4.988 -0.5175  0.2813 -0.6727
 7359TIP3    H143492   4.841   1.850   4.965  0.5919  0.3262  0.1119
 7359TIP3    H243493   4.726   1.939   5.007 -0.1907 -1.0974  1.0619
 7360TIP3   OH243494   1.261   3.612   2.806  0.7336  0.5774  0.6221
 7360TIP3    H143495   1.236   3.544   2.868  1.3944 -0.9193 -0.6979
 7360TIP3    H243496   1.197   3.682   2.820 -1.1939 -1.1132  0.6694
 7361TIP3   OH243497   3.015   3.470   2.750 -0.2604  0.0391 -0.3862
 7361TIP3    H143498   3.068   3.401   2.712  0.3697  0.2353  0.1197
 7361TIP3    H243499   2.927   3.454   2.716  0.1262 -0.2514 -1.2832
 7362TIP3   OH243500   4.199   2.029   2.425  0.0630  0.1541  0.5594
 7362TIP3    H143501   4.152   1.947   2.440  0.6801 -0.7155 -1.7563
 7362TIP3    H243502   4.184   2.081   2.504 -2.0262 -1.3780  1.2528
 7363TIP3   OH243503   2.850   0.553  16.834 -0.0816  0.3835  0.5559
 7363TIP3    H143504   2.835   0.522  16.745  1.2616 -0.4430  0.5909
 7363TIP3    H243505   2.938   0.523  16.856 -0.5282  0.2061  2.3092
 7364TIP3   OH243506   6.566   4.868   5.465  0.6063 -0.7070 -0.8761
 7364TIP3    H143507   6.597   4.851   5.376 -0.4596  0.6160 -1.5388
 7364TIP3    H243508   6.472   4.883   5.455  0.5598 -0.0242  0.3955
 7365TIP3   OH243509   5.894   0.719  14.107 -0.0128 -0.1422  0.1720
 7365TIP3    H143510   5.908   0.748  14.197 -0.1070 -1.2987  0.5839
 7365TIP3    H243511   5.829   0.649  14.114 -2.2250  1.6367 -1.1187
 7366TIP3   OH243512   4.411   6.686  12.030 -0.2001 -0.1499 -0.4388
 7366TIP3    H143513   4.493   6.636  12.028  0.8246  1.2294  2.2358
 7366TIP3    H243514   4.416   6.737  12.111 -2.5752  1.9569 -1.4850
 7367TIP3   OH243515   3.935   6.199  10.986 -0.1040 -0.1374  0.2443
 7367TIP3    H143516   3.940   6.181  10.892 -0.0794 -1.6569  0.4994
 7367TIP3    H243517   3.982   6.281  10.998 -1.8725  1.1606 -1.3343
 7368TIP3   OH243518   2.711   4.834   3.993  0.2290 -0.9628  0.4571
 7368TIP3    H143519   2.630   4.792   3.965 -1.0282  1.1018  0.7676
 7368TIP3    H243520   2.746   4.875   3.913 -1.1181  1.3369  0.9403
 7369TIP3   OH243521   1.258   6.571  17.105  0.1199  0.0702 -0.0406
 7369TIP3    H143522   1.250   6.647  17.163 -1.2014  0.5840 -0.8329
 7369TIP3    H243523   1.327   6.518  17.144  0.5207  1.2856  0.9804
 7370TIP3   OH243524   4.884   4.800  16.114  0.2923  0.4041  1.0740
 7370TIP3    H143525   4.843   4.768  16.194 -0.6447  1.9229  1.2436
 7370TIP3    H243526   4.853   4.891  16.106  0.5822  0.3715 -0.8556
 7371TIP3   OH243527   0.845   4.087   0.454 -0.0881  0.2237 -0.2179
 7371TIP3    H143528   0.778   4.045   0.509  0.8261  1.3589  1.8870
 7371TIP3    H243529   0.873   4.163   0.505  3.2360 -0.5353 -0.6657
 7372TIP3   OH243530   3.410   4.344   5.192  0.0030 -0.3471 -0.0587
 7372TIP3    H143531   3.488   4.312   5.238 -0.1532  1.2296  1.3673
 7372TIP3    H243532   3.445   4.386   5.113  0.7250  1.1178  0.9897
 7373TIP3   OH243533   2.593   2.317  15.247  0.0438 -0.3575  0.7662
 7373TIP3    H143534   2.675   2.334  15.201 -0.4722 -0.2657 -0.1622
 7373TIP3    H243535   2.555   2.242  15.200 -1.3369  0.8443 -0.1036
 7374TIP3   OH243536   2.933   5.627   2.616  0.1972  0.5438  0.3170
 7374TIP3    H143537   2.944   5.717   2.586 -1.7794  0.3116 -1.3747
 7374TIP3    H243538   3.006   5.580   2.576  0.0693  1.0443 -0.5394
 7375TIP3   OH243539   0.773   5.819  16.773  0.0188 -0.3524  0.3619
 7375TIP3    H143540   0.834   5.748  16.750 -0.0776 -0.7163  1.2188
 7375TIP3    H243541   0.744   5.853  16.688 -2.9080 -3.8162 -0.2815
 7376TIP3   OH243542   3.516   4.329  15.101 -0.1957 -0.3841 -0.5132
 7376TIP3    H143543   3.517   4.319  15.006  2.9573 -1.0080 -0.5043
 7376TIP3    H243544   3.495   4.421  15.115 -2.0871 -0.5731 -1.6967
 7377TIP3   OH243545   1.331   4.552   2.580  0.6854 -0.0070  0.0379
 7377TIP3    H143546   1.394   4.535   2.650 -1.3648 -1.9572  1.5568
 7377TIP3    H243547   1.287   4.633   2.607 -0.1941 -0.8215  1.1756
 7378TIP3   OH243548   2.323   1.532  11.850  0.0213  0.3724  0.0252
 7378TIP3    H143549   2.258   1.557  11.785 -0.6457 -0.7036  0.2512
 7378TIP3    H243550   2.316   1.598  11.919 -2.4007 -0.8591  1.0926
 7379TIP3   OH243551   4.844   0.769  16.013 -0.0714 -0.3212 -0.1568
 7379TIP3    H143552   4.780   0.795  16.079 -2.1038 -0.6483 -1.9161
 7379TIP3    H243553   4.925   0.814  16.039 -0.5705 -0.9228  2.8704
 7380TIP3   OH243554   4.641   4.108  14.258 -0.8962 -0.3449 -0.2850
 7380TIP3    H143555   4.596   4.034  14.301 -1.9963 -0.1672 -1.0868
 7380TIP3    H243556   4.631   4.090  14.165 -0.7599  0.5849 -0.4791
 7381TIP3   OH243557   4.436   6.513  16.695  0.3757 -0.0357  0.5442
 7381TIP3    H143558   4.357   6.536  16.647  0.7399 -1.2968 -0.7302
 7381TIP3    H243559   4.508   6.544  16.640  0.8433 -2.9633 -0.7001
 7382TIP3   OH243560   3.985   6.054   4.631 -0.5418 -0.1408 -0.3389
 7382TIP3    H143561   3.892   6.031   4.629 -0.8245  0.9601 -2.1351
 7382TIP3    H243562   4.028   5.982   4.585 -0.3796 -0.9481  1.0016
 7383TIP3   OH243563   2.988   1.519   4.368  0.2664 -0.0820  0.0358
 7383TIP3    H143564   2.931   1.506   4.292  1.2173  0.9644 -0.8985
 7383TIP3    H243565   2.933   1.498   4.443 -1.3774  0.8691 -0.8328
 7384TIP3   OH243566   2.633   1.439  15.473  0.4856 -0.1739  0.3066
 7384TIP3    H143567   2.602   1.393  15.395 -0.7260  1.0547  0.0288
 7384TIP3    H243568   2.576   1.408  15.543 -0.7303  1.2532  0.0090
 7385TIP3   OH243569   0.193   4.215  12.170 -0.0277 -0.5676 -0.1454
 7385TIP3    H143570   0.139   4.293  12.153  0.1985 -0.5709 -0.8923
 7385TIP3    H243571   0.141   4.164  12.233 -1.0579 -0.7243 -1.0913
 7386TIP3   OH243572   2.020   2.710   2.085 -0.3032 -0.1449 -0.5166
 7386TIP3    H143573   2.030   2.629   2.035 -1.4811 -2.2942  2.4756
 7386TIP3    H243574   1.970   2.768   2.027 -0.3246 -1.9039 -2.3731
 7387TIP3   OH243575   0.327   2.353   2.591 -0.7803 -0.7953  0.0039
 7387TIP3    H143576   0.363   2.305   2.665 -1.0037  0.5028  0.9889
 7387TIP3    H243577   0.309   2.286   2.525 -0.6797 -1.9927  1.1554
 7388TIP3   OH243578   2.130   0.483  14.839  0.2925 -0.9052  0.6019
 7388TIP3    H143579   2.096   0.480  14.750 -0.6897 -0.4092  0.9488
 7388TIP3    H243580   2.062   0.527  14.890  1.5920  0.4507  1.2581
 7389TIP3   OH243581   3.146   1.369  16.008  0.0611 -0.5107 -0.1144
 7389TIP3    H143582   3.163   1.290  16.058 -0.7534 -0.6297 -0.0246
 7389TIP3    H243583   3.097   1.426  16.067  1.6766  0.5872  0.2667
 7390TIP3   OH243584   1.331   6.282  14.556 -0.0352 -0.0491 -0.7472
 7390TIP3    H143585   1.406   6.341  14.566 -0.8677  1.3500 -2.1842
 7390TIP3    H243586   1.363   6.211  14.501  0.8951 -0.8163  0.7260
 7391TIP3   OH243587   4.606   6.415  13.851  0.1702  0.2372 -0.0437
 7391TIP3    H143588   4.659   6.442  13.776 -0.4558  1.7533  0.0366
 7391TIP3    H243589   4.564   6.334  13.821  1.6165 -0.3816 -0.5112
 7392TIP3   OH243590   4.872   2.359  10.535  0.0284 -0.0765 -0.4454
 7392TIP3    H143591   4.898   2.266  10.538 -1.3559 -0.5918 -2.3188
 7392TIP3    H243592   4.842   2.379  10.623  1.9978 -0.8660  0.4698
 7393TIP3   OH243593   0.666   3.929   0.646 -0.4126 -0.0820  0.9151
 7393TIP3    H143594   0.593   3.892   0.597  0.6634 -1.0824 -0.0066
 7393TIP3    H243595   0.678   3.869   0.720 -0.2087 -0.2183  0.7739
 7394TIP3   OH243596   6.156   3.983  11.829 -0.0296 -0.6056  0.4870
 7394TIP3    H143597   6.184   4.074  11.818 -1.0167 -0.5386 -2.3036
 7394TIP3    H243598   6.079   3.988  11.884  0.8640  0.0388  1.7288
 7395TIP3   OH243599   6.762   4.037   0.638  0.0760 -0.0917 -0.3483
 7395TIP3    H143600   6.843   4.006   0.597  0.5318  1.5714 -0.7456
 7395TIP3    H243601   6.787   4.059   0.728  0.1113  0.6326 -0.5362
 7396TIP3   OH243602   2.961   4.390   3.748  0.5507  0.5347 -0.6404
 7396TIP3    H143603   3.006   4.332   3.808 -0.2341  0.5621 -0.0126
 7396TIP3    H243604   2.909   4.332   3.692 -1.2803  0.6493  0.8442
 7397TIP3   OH243605   2.171   2.705   1.013  0.4369  0.3356 -0.3180
 7397TIP3    H143606   2.118   2.656   0.949  0.6135  1.6055 -1.4750
 7397TIP3    H243607   2.117   2.706   1.092 -1.0758  1.1201 -1.3037
 7398TIP3   OH243608   0.597   0.365   2.832 -0.9208 -0.1551 -0.4566
 7398TIP3    H143609   0.609   0.274   2.806 -0.1343 -0.2747  0.2792
 7398TIP3    H243610   0.673   0.411   2.798  0.6728 -0.4925  2.3099
 7399TIP3   OH243611   4.895   4.544   1.257  0.7362 -0.2739  0.0031
 7399TIP3    H143612   4.817   4.561   1.308  1.9793  1.2188  1.5178
 7399TIP3    H243613   4.928   4.460   1.290  0.8110  0.0361  0.7284
 7400TIP3   OH243614   2.457   0.447   0.079  0.0445  0.1493 -0.4235
 7400TIP3    H143615   2.467   0.497   0.160  4.5537  2.7037 -2.1845
 7400TIP3    H243616   2.483   0.358   0.102  0.4791  0.6358  1.0790
 7401TIP3   OH243617   0.637   3.962  16.871 -0.4733  0.5052  0.3456
 7401TIP3    H143618   0.673   3.914  16.945  1.8432  0.5562 -0.6632
 7401TIP3    H243619   0.684   4.046  16.872 -0.5540  0.5861 -1.0492
 7402TIP3   OH243620   0.283   1.990   0.252 -0.2296  0.3528  0.3791
 7402TIP3    H143621   0.355   1.966   0.194 -0.7371 -1.2797  0.3682
 7402TIP3    H243622   0.245   1.906   0.279 -0.1422  1.0554  2.9292
 7403TIP3   OH243623   1.514   5.400  16.548  0.0715  0.0902 -0.1659
 7403TIP3    H143624   1.421   5.420  16.561  0.0348  0.1992 -0.5954
 7403TIP3    H243625   1.529   5.320  16.598 -0.1594  0.2977  0.2373
 7404TIP3   OH243626   5.186   2.229  14.832 -0.2142 -0.1044  0.3646
 7404TIP3    H143627   5.222   2.315  14.856 -0.1007 -0.1922  0.5102
 7404TIP3    H243628   5.229   2.168  14.892  0.5796 -0.4113 -0.4845
 7405TIP3   OH243629   6.670   0.720  12.807 -0.0961  0.3778 -0.4983
 7405TIP3    H143630   6.576   0.703  12.815  0.3173 -3.0132 -1.2042
 7405TIP3    H243631   6.701   0.724  12.897 -0.9595  2.2233 -0.2441
 7406TIP3   OH243632   6.094   0.306   3.694  0.7176  0.1915 -0.1237
 7406TIP3    H143633   6.057   0.261   3.618 -1.4808  2.3128 -0.4267
 7406TIP3    H243634   6.055   0.262   3.770  1.5277 -0.7741 -0.2427
 7407TIP3   OH243635   1.666   1.746   4.891  0.4578 -0.0751  0.2130
 7407TIP3    H143636   1.651   1.681   4.960 -1.2569  0.5566  0.4867
 7407TIP3    H243637   1.672   1.694   4.811 -0.2214 -0.6330  0.5118
 7408TIP3   OH243638   3.511   1.096  14.938  0.1730  0.3785  0.3311
 7408TIP3    H143639   3.495   1.057  15.024 -1.5095 -0.0191 -0.1358
 7408TIP3    H243640   3.606   1.092  14.928  0.2261 -1.8349  1.1300
 7409TIP3   OH243641   5.623   6.334  15.410 -0.3501  0.1088 -0.2440
 7409TIP3    H143642   5.691   6.295  15.465 -1.6215 -0.7122  0.8071
 7409TIP3    H243643   5.591   6.262  15.357  0.9903  0.9321 -2.3003
 7410TIP3   OH243644   1.147   6.639  11.214 -0.0193  0.0542 -0.2696
 7410TIP3    H143645   1.120   6.549  11.195 -0.0965  0.1791 -0.7700
 7410TIP3    H243646   1.173   6.674  11.129  0.2430  0.4282 -0.0350
 7411TIP3   OH243647   6.426   3.605   0.924 -0.2011  0.2671 -0.3967
 7411TIP3    H143648   6.431   3.540   0.994 -0.7195  0.0618 -0.5484
 7411TIP3    H243649   6.499   3.665   0.942  0.0094 -0.1006 -0.0041
 7412TIP3   OH243650   6.517   5.157  13.575  0.1372 -0.1839 -0.0788
 7412TIP3    H143651   6.505   5.062  13.573 -0.7029 -0.0865 -1.6175
 7412TIP3    H243652   6.528   5.181  13.482 -2.1127  1.4996  0.0159
 7413TIP3   OH243653   6.061   3.093  10.622  0.9786 -0.2353 -0.9173
 7413TIP3    H143654   6.058   3.034  10.546  1.2470  0.5514 -1.5513
 7413TIP3    H243655   6.146   3.076  10.661 -0.4070 -3.1080  1.2706
 7414TIP3   OH243656   6.493   2.443  11.703 -0.4489 -0.2528 -0.2518
 7414TIP3    H143657   6.527   2.390  11.775 -2.0143 -1.8531 -0.6409
 7414TIP3    H243658   6.470   2.527  11.744  0.3958 -0.4756  0.7240
 7415TIP3   OH243659   6.146   3.618   5.593 -0.5393  0.3993  0.3054
 7415TIP3    H143660   6.136   3.564   5.515  1.8899  0.4497 -0.1223
 7415TIP3    H243661   6.198   3.693   5.564 -0.1500  0.7630  1.8338
 7416TIP3   OH243662   2.825   0.367  16.515 -0.9617  0.3584 -0.7943
 7416TIP3    H143663   2.838   0.326  16.430 -0.0641  1.7206 -1.3422
 7416TIP3    H243664   2.900   0.426  16.525 -2.0174  1.5983  0.0978
 7417TIP3   OH243665   2.752   2.801   4.868 -0.2141 -0.2206  0.5147
 7417TIP3    H143666   2.824   2.798   4.931 -2.1663 -0.7810  2.8420
 7417TIP3    H243667   2.736   2.709   4.846  1.1773 -0.0039 -1.8442
 7418TIP3   OH243668   5.056   5.350  12.048  0.9975  0.4171  0.0669
 7418TIP3    H143669   5.047   5.270  11.996  3.0999 -0.1011  0.4038
 7418TIP3    H243670   5.103   5.410  11.990 -0.4324  1.3830 -0.1279
 7419TIP3   OH243671   0.273   2.873  11.445  0.6062 -0.1002  1.0951
 7419TIP3    H143672   0.291   2.810  11.376 -1.1114  0.4865  0.0612
 7419TIP3    H243673   0.188   2.911  11.423  0.5260  0.9411  2.9148
 7420TIP3   OH243674   5.455   0.228  11.395  0.4758  0.3478 -0.0928
 7420TIP3    H143675   5.390   0.284  11.351 -1.0189 -0.1378  1.3894
 7420TIP3    H243676   5.497   0.180  11.323 -0.7210  0.7591 -1.1143
 7421TIP3   OH243677   3.479   4.456   2.973 -0.2242 -0.5885 -0.1258
 7421TIP3    H143678   3.434   4.385   3.020 -1.4394  0.3401  0.1669
 7421TIP3    H243679   3.526   4.412   2.902 -1.8109 -1.6017 -0.5976
 7422TIP3   OH243680   3.908   5.097   6.012  0.5429 -0.1512  1.0164
 7422TIP3    H143681   3.893   5.054   6.096  2.3681 -0.9907  0.9650
 7422TIP3    H243682   3.968   5.038   5.965  1.2986  1.3446  0.0142
 7423TIP3   OH243683   1.561   6.486   3.226  0.4313 -0.3434  0.1872
 7423TIP3    H143684   1.502   6.554   3.195  0.3450 -1.2686 -1.8373
 7423TIP3    H243685   1.605   6.455   3.147  2.3500 -0.8920  1.4021
 7424TIP3   OH243686   6.152   4.517   3.244 -0.1762 -0.2363 -0.1269
 7424TIP3    H143687   6.101   4.591   3.277 -0.2878  0.0155 -0.8407
 7424TIP3    H243688   6.096   4.477   3.178 -0.2535 -1.1658  0.4842
 7425TIP3   OH243689   2.072   4.083   5.488 -0.0944 -0.2458 -0.2310
 7425TIP3    H143690   2.113   4.005   5.526  0.4961  0.1116 -0.1207
 7425TIP3    H243691   1.999   4.049   5.436  0.2288 -0.8753 -0.2797
 7426TIP3   OH243692   2.309   2.614   2.180 -0.4952 -0.4744 -0.0460
 7426TIP3    H143693   2.402   2.598   2.167 -0.7975 -1.5046 -1.0192
 7426TIP3    H243694   2.302   2.636   2.273  1.2325  3.5239 -0.6558
 7427TIP3   OH243695   5.418   5.376   5.848  0.6690  0.0346  0.2278
 7427TIP3    H143696   5.371   5.332   5.918  0.3230  0.4417  0.2562
 7427TIP3    H243697   5.509   5.381   5.879  0.5583  0.0193  0.5528
 7428TIP3   OH243698   2.989   0.734   2.025  0.0668  0.3310  0.3699
 7428TIP3    H143699   2.971   0.646   1.992 -0.8071  0.3858  0.6758
 7428TIP3    H243700   2.975   0.727   2.120  0.4297  0.6879  0.4510
 7429TIP3   OH243701   4.039   0.845  13.941 -1.0310  0.3459 -0.0156
 7429TIP3    H143702   3.986   0.858  13.862  1.0542 -0.0681 -1.5598
 7429TIP3    H243703   3.983   0.793  13.999 -1.5909 -1.9478 -2.4415
 7430TIP3   OH243704   3.770   3.173  16.795 -0.8208 -0.3602  0.2191
 7430TIP3    H143705   3.779   3.108  16.725 -2.4891  0.7800 -1.1381
 7430TIP3    H243706   3.828   3.244  16.769 -2.5405  0.7076 -0.8557
 7431TIP3   OH243707   0.403   2.251   2.060  0.5015  0.4655 -0.0975
 7431TIP3    H143708   0.315   2.262   2.024  0.5583 -1.0592 -0.7846
 7431TIP3    H243709   0.460   2.250   1.983  1.0657  0.8810  0.3075
 7432TIP3   OH243710   0.625   2.008  15.927 -0.1663  0.2090  0.3203
 7432TIP3    H143711   0.611   1.996  15.834  0.5086 -2.2750  0.4915
 7432TIP3    H243712   0.556   1.956  15.969  1.6493 -1.6138  1.1651
 7433TIP3   OH243713   5.975   4.028   5.148  0.9192 -0.1569  0.1411
 7433TIP3    H143714   6.031   4.040   5.071 -1.4166 -1.0493 -1.8182
 7433TIP3    H243715   5.928   4.111   5.156  0.0052 -0.6041 -0.4229
 7434TIP3   OH243716   4.428   4.925   5.400  0.7669 -0.1517 -0.1556
 7434TIP3    H143717   4.336   4.950   5.407  0.6244 -0.3480 -1.2294
 7434TIP3    H243718   4.431   4.835   5.432  0.8961  0.4115  1.5239
 7435TIP3   OH243719   2.596   1.129   0.461  0.2159 -0.1465  0.4423
 7435TIP3    H143720   2.628   1.103   0.374  0.9206  0.2641  0.5661
 7435TIP3    H243721   2.502   1.139   0.450 -0.0543 -2.3691  0.2943
 7436TIP3   OH243722   0.693   5.663   2.885  0.5475  0.3764 -0.1096
 7436TIP3    H143723   0.646   5.690   2.964 -1.0070 -2.2024 -0.0215
 7436TIP3    H243724   0.785   5.667   2.909  0.1609  0.8374  1.4280
 7437TIP3   OH243725   0.878   1.821   4.760  0.6006  0.0940  0.0191
 7437TIP3    H143726   0.957   1.835   4.708 -0.6348 -2.0810 -2.7000
 7437TIP3    H243727   0.844   1.909   4.776  2.0124  0.9303 -1.3015
 7438TIP3   OH243728   3.117   3.809  17.022  0.1103  0.3183 -0.3475
 7438TIP3    H143729   3.087   3.733  17.073  0.8778 -0.5755 -1.1651
 7438TIP3    H243730   3.212   3.809  17.035  0.1376  0.9952 -0.5536
 7439TIP3   OH243731   2.220   1.757   0.115 -0.1826 -0.6271 -0.0651
 7439TIP3    H143732   2.166   1.678   0.124  0.3717 -0.9881  0.1723
 7439TIP3    H243733   2.207   1.805   0.196  0.0433 -0.8386  0.0983
 7440TIP3   OH243734   2.032   4.501   1.431 -0.1926  0.4058 -0.2744
 7440TIP3    H143735   2.068   4.474   1.346 -2.5503 -0.4261 -1.0945
 7440TIP3    H243736   1.948   4.456   1.437  0.2587 -0.2365  2.9380
 7441TIP3   OH243737   2.838   0.276   4.728 -0.7699  0.5110 -0.3788
 7441TIP3    H143738   2.789   0.223   4.666  0.3124 -0.4262 -0.4737
 7441TIP3    H243739   2.884   0.340   4.673 -0.8635  0.5550 -0.4068
 7442TIP3   OH243740   0.297   1.182  13.072  0.4866 -0.2592  0.2846
 7442TIP3    H143741   0.324   1.122  13.002  0.0077 -1.0122  0.7251
 7442TIP3    H243742   0.207   1.156  13.092  0.5374  0.0971  1.0202
 7443TIP3   OH243743   3.809   1.679   0.501 -0.1774  0.6638 -0.2967
 7443TIP3    H143744   3.798   1.683   0.406 -0.9362  0.5517 -0.2202
 7443TIP3    H243745   3.731   1.723   0.535  0.4076  1.2754  0.2652
 7444TIP3   OH243746   6.023   2.711   0.743  0.4491 -0.1692  0.3819
 7444TIP3    H143747   6.082   2.786   0.740  0.1117  0.1157  0.6686
 7444TIP3    H243748   6.015   2.691   0.837 -0.5852  0.3465  0.4212
 7445TIP3   OH243749   1.617   2.407  12.852  0.6484 -0.2521 -0.5709
 7445TIP3    H143750   1.653   2.425  12.939  0.0650  3.7235 -0.9698
 7445TIP3    H243751   1.694   2.395  12.796  1.0507 -1.5925  0.2254
 7446TIP3   OH243752   6.205   1.424   3.750 -0.0049 -0.3539 -0.0521
 7446TIP3    H143753   6.176   1.478   3.823 -2.3465 -1.9320  0.2828
 7446TIP3    H243754   6.133   1.425   3.687 -0.2497 -3.1318  0.0394
 7447TIP3   OH243755   3.070   5.643  11.192  0.0974 -0.0212 -0.5878
 7447TIP3    H143756   3.011   5.718  11.183 -2.0002 -1.2359  1.9155
 7447TIP3    H243757   3.153   5.674  11.154 -1.1911  2.8654 -1.3662
 7448TIP3   OH243758   1.635   0.841  16.975  0.1475 -0.2213 -0.0767
 7448TIP3    H143759   1.716   0.886  16.952  0.4641  0.2111  1.7768
 7448TIP3    H243760   1.663   0.763  17.022 -0.5139 -0.2125  0.3351
 7449TIP3   OH243761   2.415   2.627  15.616 -0.2777  0.7347 -0.0860
 7449TIP3    H143762   2.441   2.601  15.528 -0.5563  0.9058 -0.2209
 7449TIP3    H243763   2.335   2.578  15.633 -0.2517  0.7397  0.0531
 7450TIP3   OH243764   3.959   2.779   2.754 -0.1950  0.9720  0.3318
 7450TIP3    H143765   4.005   2.728   2.688  0.5311  1.0294  0.7767
 7450TIP3    H243766   3.877   2.805   2.712 -0.4122 -0.2184 -0.0478
 7451TIP3   OH243767   5.479   5.067  13.965 -0.0612 -0.2974  0.1068
 7451TIP3    H143768   5.436   5.140  14.010  0.6985  0.8377 -0.9582
 7451TIP3    H243769   5.564   5.060  14.009 -1.0521 -2.2376  1.8993
 7452TIP3   OH243770   4.974   6.308  16.252  0.8542  0.0607  0.5090
 7452TIP3    H143771   5.026   6.353  16.319  0.4355  3.0016 -1.0148
 7452TIP3    H243772   4.892   6.357  16.248  0.2389 -1.0089 -1.0886
 7453TIP3   OH243773   2.652   4.011  13.888 -0.1368  0.1681 -0.2384
 7453TIP3    H143774   2.697   3.933  13.856  1.7336  0.9677  0.2830
 7453TIP3    H243775   2.649   4.070  13.813 -1.0767 -0.1832 -0.4894
 7454TIP3   OH243776   4.495   0.498   4.890 -0.6747 -0.1035  0.3117
 7454TIP3    H143777   4.400   0.506   4.875 -1.0588 -1.7913  1.5642
 7454TIP3    H243778   4.526   0.447   4.815 -0.5344  1.2936 -0.6301
 7455TIP3   OH243779   1.818   5.835  15.766 -0.3013  0.5267  0.6205
 7455TIP3    H143780   1.737   5.885  15.764 -0.3042  0.6298  2.2217
 7455TIP3    H243781   1.791   5.744  15.778 -0.1948  0.5663  1.2050
 7456TIP3   OH243782   1.681   2.425   3.813  0.0580  0.4360  0.1271
 7456TIP3    H143783   1.653   2.340   3.779 -1.3610  1.0753 -0.3625
 7456TIP3    H243784   1.764   2.442   3.768  0.7188 -0.9690  0.7384
 7457TIP3   OH243785   1.270   4.887   4.354 -0.0128 -0.5863 -0.1305
 7457TIP3    H143786   1.347   4.905   4.300 -0.4404  0.2687 -0.4746
 7457TIP3    H243787   1.282   4.797   4.385  1.5878 -0.1494  0.5929
 7458TIP3   OH243788   0.325   6.665  15.639 -0.1545 -0.4668  0.4006
 7458TIP3    H143789   0.376   6.589  15.666 -0.9221 -0.6983  1.2361
 7458TIP3    H243790   0.388   6.721  15.593  0.9760 -0.5295  1.8102
 7459TIP3   OH243791   6.478   1.008  13.382  0.3618  0.4753  0.4751
 7459TIP3    H143792   6.436   1.028  13.466 -0.1052 -1.4123  0.7159
 7459TIP3    H243793   6.415   0.953  13.336  1.6172 -0.4914 -0.1186
 7460TIP3   OH243794   4.519   3.918  14.743 -0.1201 -0.1350  0.5544
 7460TIP3    H143795   4.563   3.871  14.814 -2.4045 -2.0066  0.8427
 7460TIP3    H243796   4.428   3.888  14.747 -1.3051  2.9338 -0.5045
 7461TIP3   OH243797   5.653   2.998   2.710 -0.1532  0.1219  0.1107
 7461TIP3    H143798   5.583   3.057   2.682 -0.2482 -0.0047  0.0789
 7461TIP3    H243799   5.683   3.033   2.794 -1.0184 -0.4655  0.6777
 7462TIP3   OH243800   4.770   2.854   0.054  0.4441 -0.5716 -0.5102
 7462TIP3    H143801   4.858   2.864   0.091  0.0423 -0.3328  0.4132
 7462TIP3    H243802   4.774   2.771   0.006  0.8409 -1.1757  0.5279
 7463TIP3   OH243803   2.417   4.628  11.042  0.5464  0.3771 -0.1311
 7463TIP3    H143804   2.425   4.715  11.003  0.3160  0.8654  0.8586
 7463TIP3    H243805   2.418   4.568  10.968 -1.2404  1.3265 -0.9972
 7464TIP3   OH243806   1.632   4.638  14.708  0.2841  0.2176  0.1036
 7464TIP3    H143807   1.658   4.601  14.624  1.1630 -0.8823  0.8515
 7464TIP3    H243808   1.638   4.566  14.770 -2.4606  0.4288  0.7556
 7465TIP3   OH243809   1.079   5.419   0.393 -0.4072  0.5120 -0.1955
 7465TIP3    H143810   1.005   5.478   0.402 -0.1969  0.5196  2.0152
 7465TIP3    H243811   1.156   5.476   0.398 -0.2217  0.1909  0.7835
 7466TIP3   OH243812   0.348   4.622   3.681  0.0718  0.3302  0.0291
 7466TIP3    H143813   0.262   4.647   3.714  1.0912  3.1639  0.8230
 7466TIP3    H243814   0.360   4.675   3.602  1.2935  0.3774  0.2318
 7467TIP3   OH243815   2.995   2.913   4.136  0.5126  0.4489  0.5539
 7467TIP3    H143816   3.072   2.871   4.174  0.9223 -0.7546 -1.4451
 7467TIP3    H243817   2.966   2.853   4.067 -0.6615  2.0959 -0.4808
 7468TIP3   OH243818   1.920   0.817  12.323  0.1082 -0.4991 -0.7691
 7468TIP3    H143819   1.944   0.891  12.268  1.1853 -0.8909 -0.8438
 7468TIP3    H243820   1.875   0.757  12.263  1.3245 -0.9466 -1.2639
 7469TIP3   OH243821   0.148   5.069   1.758 -0.5065 -0.2151 -0.5364
 7469TIP3    H143822   0.079   5.045   1.820  0.3311 -1.0349  0.0955
 7469TIP3    H243823   0.226   5.079   1.812  0.0596 -0.1154 -1.3613
 7470TIP3   OH243824   1.445   1.682   2.627 -0.0400  0.4022  0.0769
 7470TIP3    H143825   1.471   1.727   2.708  0.7188 -0.1487  0.1474
 7470TIP3    H243826   1.456   1.589   2.647 -0.3314  0.2398 -0.5018
 7471TIP3   OH243827   6.643   0.285   1.753  0.1548 -0.3700  0.0456
 7471TIP3    H143828   6.724   0.325   1.722  2.1382 -2.9575  1.5974
 7471TIP3    H243829   6.625   0.330   1.836  0.6474 -0.5914  0.2730
 7472TIP3   OH243830   6.522   4.733   3.499  0.3789  0.1928 -0.0735
 7472TIP3    H143831   6.554   4.736   3.409  1.0301 -0.8006  0.1052
 7472TIP3    H243832   6.480   4.818   3.513  0.0534  0.2692 -1.3859
 7473TIP3   OH243833   6.101   3.829   2.902 -0.4421  0.1895 -0.3789
 7473TIP3    H143834   6.177   3.771   2.908 -0.4036  0.1639 -1.1112
 7473TIP3    H243835   6.025   3.772   2.912 -0.3801  0.1466 -0.1491
 7474TIP3   OH243836   1.678   0.941   0.160  0.0808  0.3178  0.0792
 7474TIP3    H143837   1.765   0.947   0.121 -0.2436  1.8638 -0.4617
 7474TIP3    H243838   1.633   1.020   0.132 -1.1335  0.0974  1.2779
 7475TIP3   OH243839   2.240   5.547   1.493  0.3638  0.2833  0.0753
 7475TIP3    H143840   2.317   5.495   1.513  0.4734  1.1161  1.9510
 7475TIP3    H243841   2.274   5.635   1.477 -0.2159  0.7433  1.3097
 7476TIP3   OH243842   0.061   3.396   0.362 -0.6098 -0.0422 -0.7373
 7476TIP3    H143843   0.137   3.340   0.373 -1.7412 -1.5874 -0.4376
 7476TIP3    H243844   0.049   3.401   0.267 -1.4239 -1.6827 -0.7588
 7477TIP3   OH243845   6.737   1.615   5.063  1.0315  0.0734  0.1508
 7477TIP3    H143846   6.760   1.679   5.130  0.3034  0.9700 -0.4214
 7477TIP3    H243847   6.736   1.531   5.109  1.3766  0.5553  1.0629
 7478TIP3   OH243848   2.851   4.621  16.645 -0.1383  0.2818 -0.0132
 7478TIP3    H143849   2.818   4.565  16.575  0.5503 -0.8661  0.5254
 7478TIP3    H243850   2.783   4.619  16.712  0.1769 -0.5315  0.3022
 7479TIP3   OH243851   1.676   4.340   3.303  0.6341  0.1727  0.2798
 7479TIP3    H143852   1.685   4.341   3.208  2.0730 -0.3745  0.3832
 7479TIP3    H243853   1.717   4.258   3.330  0.3061  0.3597  1.3759
 7480TIP3   OH243854   6.653   6.329  14.509 -0.0125  0.1045  0.7981
 7480TIP3    H143855   6.608   6.383  14.443 -2.1502 -1.3012  1.0145
 7480TIP3    H243856   6.681   6.251  14.461  2.4280  0.9989  0.6450
 7481TIP3   OH243857   6.589   2.461   4.619  0.3120  0.2085 -0.2997
 7481TIP3    H143858   6.614   2.420   4.536  1.6311  1.3848 -0.5060
 7481TIP3    H243859   6.671   2.481   4.663 -0.3364  1.0151  0.6005
 7482TIP3   OH243860   1.809   2.352  12.655  0.6066 -0.1242  0.8826
 7482TIP3    H143861   1.838   2.441  12.632 -0.9838  0.4338  0.9091
 7482TIP3    H243862   1.854   2.296  12.592 -0.0886  0.9297 -0.6303
 7483TIP3   OH243863   6.281   6.079  14.606 -0.1149 -0.6366  0.4534
 7483TIP3    H143864   6.220   6.005  14.604 -0.7567 -0.1102 -1.2150
 7483TIP3    H243865   6.228   6.153  14.636  0.6173 -0.8697  2.5060
 7484TIP3   OH243866   6.154   1.582  14.635 -0.0630  0.4390  0.1169
 7484TIP3    H143867   6.137   1.618  14.722  2.9599  0.1989  0.8951
 7484TIP3    H243868   6.137   1.488  14.643  0.4180  0.3852  0.5201
 7485TIP3   OH243869   1.348   3.468  16.719  0.3138  0.2867  0.0598
 7485TIP3    H143870   1.373   3.497  16.631 -0.6969  2.2390  0.3516
 7485TIP3    H243871   1.277   3.406  16.705  0.8962 -0.2610 -0.5218
 7486TIP3   OH243872   1.109   3.964  14.239  0.3935 -0.1063  0.9326
 7486TIP3    H143873   1.086   3.960  14.332  0.0663 -0.3184  0.8450
 7486TIP3    H243874   1.151   4.049  14.228  0.5446 -0.1328  1.3014
 7487TIP3   OH243875   2.344   2.525  15.248 -0.0258 -0.9512  0.2594
 7487TIP3    H143876   2.358   2.618  15.231  0.7338 -0.7186  1.8906
 7487TIP3    H243877   2.431   2.491  15.270 -0.6305 -1.4560  2.1183
 7488TIP3   OH243878   2.795   2.765   0.358 -0.7452 -0.4476  0.1180
 7488TIP3    H143879   2.881   2.731   0.334 -1.1475  0.7336 -3.6827
 7488TIP3    H243880   2.813   2.845   0.407  0.3093 -0.7768  0.2783
 7489TIP3   OH243881   6.130   5.387  15.399 -0.5831 -0.1806 -0.1265
 7489TIP3    H143882   6.081   5.373  15.318 -1.4788 -0.2953  0.4332
 7489TIP3    H243883   6.215   5.422  15.369 -0.7347 -0.6382 -1.1340
 7490TIP3   OH243884   4.768   0.087   1.156 -0.0350  0.5662  1.0722
 7490TIP3    H143885   4.862   0.100   1.141  0.3546 -0.5863  2.2865
 7490TIP3    H243886   4.756   0.104   1.249 -1.0900  0.9529  0.8803
 7491TIP3   OH243887   6.536   4.982   5.937 -1.3068 -0.3266  0.4106
 7491TIP3    H143888   6.502   4.928   6.008 -1.0811 -1.9656 -0.6691
 7491TIP3    H243889   6.602   5.038   5.978  0.2631 -2.6376  1.1880
 7492TIP3   OH243890   3.160   1.686   4.806  0.4367 -0.0970  0.4251
 7492TIP3    H143891   3.135   1.762   4.754 -1.3354  0.0899  1.4876
 7492TIP3    H243892   3.214   1.721   4.877 -0.5091  0.2197  1.0038
 7493TIP3   OH243893   3.242   1.919  12.426 -0.5505  0.1811  0.1879
 7493TIP3    H143894   3.153   1.885  12.419 -0.4616  0.1250 -0.8962
 7493TIP3    H243895   3.281   1.869  12.498 -0.3780 -2.1862 -1.4369
 7494TIP3   OH243896   5.216   0.651  15.005 -0.6940  0.3230 -0.1200
 7494TIP3    H143897   5.202   0.744  14.983  0.7779  1.0235  1.6637
 7494TIP3    H243898   5.177   0.642  15.092 -0.5920 -0.6821 -0.1737
 7495TIP3   OH243899   4.777   2.821   5.907 -0.0271 -0.0505 -0.3238
 7495TIP3    H143900   4.739   2.854   5.988 -0.4242 -1.4564  0.0947
 7495TIP3    H243901   4.702   2.804   5.850 -0.5509 -5.1185  1.3484
 7496TIP3   OH243902   5.498   2.766   0.169 -0.0626  0.4302 -0.2940
 7496TIP3    H143903   5.421   2.711   0.182 -0.6151  0.7840 -1.8537
 7496TIP3    H243904   5.522   2.796   0.257 -1.0708 -0.5163  0.3196
 7497TIP3   OH243905   5.090   6.099  14.361  0.0934  0.2782 -0.3908
 7497TIP3    H143906   5.013   6.147  14.392  1.2032  0.6807  2.0226
 7497TIP3    H243907   5.163   6.136  14.411  1.7092 -0.8292 -1.7993
 7498TIP3   OH243908   3.868   2.943   4.636 -0.1007  0.6033  0.6532
 7498TIP3    H143909   3.855   2.920   4.728  1.3100  0.6728  0.8986
 7498TIP3    H243910   3.782   2.929   4.595 -1.7174  3.6706  2.6008
 7499TIP3   OH243911   3.913   5.292  15.022 -0.2692 -0.4933  0.5504
 7499TIP3    H143912   3.937   5.261  15.110 -0.3702 -1.0073  0.4004
 7499TIP3    H243913   3.973   5.247  14.963 -1.3229 -1.5094  0.2102
 7500TIP3   OH243914   6.795   2.900   2.659 -0.1557  0.2189  0.3563
 7500TIP3    H143915   6.715   2.848   2.664  0.4982 -0.7105  2.2738
 7500TIP3    H243916   6.770   2.979   2.612 -2.7226  0.8388  2.5698
 7501TIP3   OH243917   4.900   2.790   1.528  0.2021  0.0305 -0.2215
 7501TIP3    H143918   4.922   2.752   1.613 -0.5467  0.3688  0.1328
 7501TIP3    H243919   4.907   2.885   1.542  1.6157  0.0658 -0.9731
 7502TIP3   OH243920   2.715   3.629  14.557  0.0909 -0.7128 -0.5265
 7502TIP3    H143921   2.704   3.685  14.481  0.8754  0.6794  0.3281
 7502TIP3    H243922   2.641   3.569  14.554  0.9476 -1.7576 -3.2158
 7503TIP3   OH243923   3.215   6.714   5.611  0.1406  0.1388 -0.0973
 7503TIP3    H143924   3.157   6.697   5.685  0.0883 -0.3483 -0.2433
 7503TIP3    H243925   3.168   6.679   5.535  0.2190  0.5807 -0.3512
 7504TIP3   OH243926   2.348   3.893  14.504 -0.0613  0.5800 -0.2222
 7504TIP3    H143927   2.374   3.828  14.438  0.9564 -0.5088  1.1885
 7504TIP3    H243928   2.364   3.978  14.462  2.6453 -0.0693 -0.6571
 7505TIP3   OH243929   1.782   3.945   5.272 -0.5422  0.3297  0.6573
 7505TIP3    H143930   1.736   3.989   5.344 -1.2318  0.5010  0.1260
 7505TIP3    H243931   1.805   4.016   5.211  1.4454  0.4152  1.4231
 7506TIP3   OH243932   6.582   2.385  13.186  0.2809 -0.3429 -0.5700
 7506TIP3    H143933   6.489   2.407  13.172  0.5100 -0.6778 -2.9943
 7506TIP3    H243934   6.630   2.460  13.151  0.9550 -1.9115 -3.2232
 7507TIP3   OH243935   5.140   5.522  16.203 -0.9562 -0.2229  0.7413
 7507TIP3    H143936   5.210   5.499  16.264 -0.4846  0.3582  0.4343
 7507TIP3    H243937   5.067   5.465  16.227 -0.7969  0.0376  1.8903
 7508TIP3   OH243938   5.094   4.938  10.172  0.5162  0.4070 -0.6897
 7508TIP3    H143939   5.169   4.989  10.203  1.4621 -1.0255 -0.5659
 7508TIP3    H243940   5.019   4.976  10.220  1.5504  0.0298  1.3524
 7509TIP3   OH243941   3.301   6.047  15.714 -0.1632  0.3925 -0.4081
 7509TIP3    H143942   3.347   6.031  15.631  1.2142 -0.4208  0.4841
 7509TIP3    H243943   3.268   5.961  15.741 -2.1640  0.9256 -0.9460
 7510TIP3   OH243944   4.803   2.988  15.126 -0.0313 -0.2911 -0.9096
 7510TIP3    H143945   4.782   2.896  15.113  1.0403 -0.7144  0.1172
 7510TIP3    H243946   4.781   3.005  15.218 -0.2873  0.5020 -1.1068
 7511TIP3   OH243947   6.428   6.321   1.150  0.3521 -0.1635 -0.8897
 7511TIP3    H143948   6.459   6.331   1.060  2.3397  0.7042 -0.1601
 7511TIP3    H243949   6.476   6.247   1.185  0.0269 -0.1348 -0.3625
 7512TIP3   OH243950   2.814   2.451  15.141  0.0319  0.0956 -0.2810
 7512TIP3    H143951   2.859   2.414  15.065  0.2400 -2.1596  0.8413
 7512TIP3    H243952   2.875   2.436  15.214  0.0307  2.5927  0.3234
 7513TIP3   OH243953   5.202   0.884   6.104  0.8984 -0.1004  0.3742
 7513TIP3    H143954   5.127   0.842   6.146  1.1108 -0.7691  0.0959
 7513TIP3    H243955   5.250   0.926   6.176  1.7796 -2.0283  0.9668
 7514TIP3   OH243956   4.451   0.229   0.764  0.6147 -0.1941 -0.8110
 7514TIP3    H143957   4.494   0.178   0.695  0.1491  0.5274 -1.6604
 7514TIP3    H243958   4.483   0.318   0.751 -1.0570  0.3622 -1.4418
 7515TIP3   OH243959   1.303   3.046  15.959 -0.5601 -0.2347  0.3959
 7515TIP3    H143960   1.246   3.122  15.942 -1.4459 -0.5957  1.6036
 7515TIP3    H243961   1.247   2.970  15.940 -0.1569 -0.5959  0.6462
 7516TIP3   OH243962   3.072   6.454  10.937  0.6534 -0.5097 -0.3026
 7516TIP3    H143963   3.016   6.410  10.873 -0.2436 -0.3850  0.3846
 7516TIP3    H243964   3.028   6.536  10.956  2.3288  0.7641 -1.5931
 7517TIP3   OH243965   2.037   0.904   2.248 -1.1466  0.0037  0.1314
 7517TIP3    H143966   2.070   0.922   2.160  0.2707 -0.3847  0.5645
 7517TIP3    H243967   2.016   0.811   2.247  0.7883 -0.4736  0.7751
 7518TIP3   OH243968   5.719   5.662  13.464 -0.2013  0.3632  0.0579
 7518TIP3    H143969   5.657   5.614  13.518 -0.0345 -0.8028 -0.7684
 7518TIP3    H243970   5.668   5.692  13.389  0.2752 -0.8427 -0.7675
 7519TIP3   OH243971   4.766   4.775   5.718 -0.3472 -0.2318 -0.5210
 7519TIP3    H143972   4.761   4.840   5.649 -0.9676 -0.2805 -0.5308
 7519TIP3    H243973   4.859   4.768   5.738 -0.1316 -0.4025 -1.5270
 7520TIP3   OH243974   6.468   0.745  17.130  0.5567 -0.0425  0.2549
 7520TIP3    H143975   6.413   0.791  17.193 -0.9688 -0.5784 -0.6413
 7520TIP3    H243976   6.495   0.665  17.175 -0.1151 -0.1832  0.4081
 7521TIP3   OH243977   5.593   5.641   2.933 -0.0758 -0.5322  0.1562
 7521TIP3    H143978   5.591   5.736   2.921 -1.0519 -0.5501  0.0537
 7521TIP3    H243979   5.680   5.622   2.968  0.4838  0.2888 -0.7483
 7522TIP3   OH243980   2.660   6.218   2.646  0.4047 -0.8077 -0.3062
 7522TIP3    H143981   2.700   6.166   2.716  0.5278  0.1058  0.3184
 7522TIP3    H243982   2.587   6.164   2.615  0.5950 -1.3987  0.2558
 7523TIP3   OH243983   3.698   2.533  14.341  0.1170  0.5421 -0.1838
 7523TIP3    H143984   3.637   2.579  14.399  0.4466  0.7889 -0.0295
 7523TIP3    H243985   3.785   2.558  14.373  0.3285  1.6529 -1.5235
 7524TIP3   OH243986   5.257   2.421  16.077 -0.2646 -0.1830 -0.5880
 7524TIP3    H143987   5.298   2.351  16.027  0.1164 -1.4904  1.4666
 7524TIP3    H243988   5.316   2.496  16.064  0.9649 -1.0799 -0.4052
 7525TIP3   OH243989   4.932   2.016   4.047 -0.3188  0.7654 -0.0646
 7525TIP3    H143990   5.015   2.039   4.088  0.0308  1.5674 -1.1723
 7525TIP3    H243991   4.936   1.920   4.038 -1.3411  0.2189  3.6469
 7526TIP3   OH243992   4.112   6.423  13.461 -0.0307 -0.3759 -0.3703
 7526TIP3    H143993   4.077   6.497  13.510 -0.7110 -0.1439 -1.1800
 7526TIP3    H243994   4.204   6.417  13.488  0.3125  1.4213 -1.0573
 7527TIP3   OH243995   1.155   4.754  15.107 -0.6028  0.8395  0.4549
 7527TIP3    H143996   1.142   4.766  15.201 -1.7715  0.7188  0.3217
 7527TIP3    H243997   1.241   4.792  15.090 -0.3695  0.8574  1.5701
 7528TIP3   OH243998   5.680   0.722  16.916 -0.4542 -0.5081  0.0211
 7528TIP3    H143999   5.632   0.761  16.989  2.1192  0.2147  1.4217
 7528TIP3    H244000   5.663   0.781  16.842 -0.4938  0.5664  0.8739
 7529TIP3   OH244001   2.986   3.079  14.859  0.3423 -0.4609 -0.2852
 7529TIP3    H144002   2.930   3.153  14.835  2.1037  0.9088 -0.3426
 7529TIP3    H244003   2.983   3.077  14.954 -1.6537 -1.9393 -0.3087
 7530TIP3   OH244004   0.217   1.893  14.448 -0.2832 -0.0554 -0.2503
 7530TIP3    H144005   0.275   1.853  14.383  0.7153 -0.8692  1.0833
 7530TIP3    H244006   0.267   1.891  14.529 -0.4078  3.3656  0.0778
 7531TIP3   OH244007   0.953   6.140  15.523 -0.0533 -0.5612  0.2165
 7531TIP3    H144008   1.011   6.126  15.448  0.5385 -0.3154  0.6183
 7531TIP3    H244009   0.873   6.092  15.502  1.2323 -3.1092  0.7455
 7532TIP3   OH244010   6.060   0.368   0.612  0.0146  0.3562  0.2041
 7532TIP3    H144011   6.066   0.405   0.524 -0.1953 -1.5813 -0.6608
 7532TIP3    H244012   6.019   0.438   0.664 -1.9234  0.7722 -1.7163
 7533TIP3   OH244013   6.652   2.664   3.329 -0.3288  0.2214  0.9887
 7533TIP3    H144014   6.743   2.677   3.302 -1.0647  0.6858 -1.5603
 7533TIP3    H244015   6.607   2.639   3.248 -2.1749 -1.7190  2.4929
 7534TIP3   OH244016   0.196   6.697   3.659  0.6782 -0.3390 -0.6809
 7534TIP3    H144017   0.118   6.747   3.682  2.0453  1.2046  0.8227
 7534TIP3    H244018   0.244   6.754   3.599  2.2224  0.2229  1.0011
 7535TIP3   OH244019   4.701   1.088   6.608  0.0286  0.0514 -0.7555
 7535TIP3    H144020   4.612   1.118   6.592 -0.4574 -0.5386  0.6920
 7535TIP3    H244021   4.703   0.999   6.574  0.0051 -0.0088 -0.5989
 7536TIP3   OH244022   1.484   6.208  16.524  0.3863  0.5296  0.6144
 7536TIP3    H144023   1.423   6.186  16.454  0.3838  1.0197  0.4633
 7536TIP3    H244024   1.568   6.224  16.480  0.8963 -1.1433  0.9119
 7537TIP3   OH244025   2.150   6.308  13.970 -0.3352 -0.2556 -0.0105
 7537TIP3    H144026   2.149   6.214  13.986  1.7131 -0.0832  1.5998
 7537TIP3    H244027   2.230   6.339  14.013  0.6009  1.8204 -2.9416
 7538TIP3   OH244028   0.771   6.337   1.477  0.3144 -0.0457 -0.5419
 7538TIP3    H144029   0.792   6.425   1.443  0.0620 -0.1840 -1.0701
 7538TIP3    H244030   0.735   6.352   1.564  1.1897  0.3085 -0.2307
 7539TIP3   OH244031   4.110   3.132   1.918 -0.0659  0.4579  0.1288
 7539TIP3    H144032   4.182   3.151   1.977 -1.0604 -0.0944  1.5739
 7539TIP3    H244033   4.118   3.039   1.899  0.0725  0.5690 -0.3801
 7540TIP3   OH244034   1.176   4.653  13.740  0.1402  0.3275  0.1611
 7540TIP3    H144035   1.157   4.733  13.691 -0.0187 -0.1846 -0.6392
 7540TIP3    H244036   1.259   4.670  13.784  0.1368  0.9087 -0.0579
 7541TIP3   OH244037   1.672   5.864  16.087  0.1434 -0.0288  0.4086
 7541TIP3    H144038   1.763   5.839  16.106  0.8236  1.5045 -0.6277
 7541TIP3    H244039   1.671   5.960  16.096 -1.9341 -0.1529  2.5536
 7542TIP3   OH244040   0.901   0.315   1.861  0.6090 -0.1698 -0.3799
 7542TIP3    H144041   0.928   0.251   1.927 -1.7356  1.4342  2.3610
 7542TIP3    H244042   0.882   0.262   1.783  0.0964 -2.6428  1.3043
 7543TIP3   OH244043   5.462   4.871  12.613  0.4999 -0.2722  0.1376
 7543TIP3    H144044   5.510   4.940  12.659 -0.7031 -0.0942  1.1660
 7543TIP3    H244045   5.491   4.789  12.654 -1.8977 -0.0117  2.5941
 7544TIP3   OH244046   4.647   3.706  12.267  0.1725  0.5181  0.3121
 7544TIP3    H144047   4.607   3.626  12.234 -0.8106  0.5527  1.3394
 7544TIP3    H244048   4.742   3.690  12.261  0.0862  0.6492 -2.6938
 7545TIP3   OH244049   4.549   6.295   4.771 -0.3617  0.2990 -0.2838
 7545TIP3    H144050   4.603   6.216   4.778 -2.0349 -1.0518 -1.5332
 7545TIP3    H244051   4.573   6.348   4.847  1.1323 -1.2245  0.3620
 7546TIP3   OH244052   3.252   4.072  16.296 -0.1024  0.1600  0.2393
 7546TIP3    H144053   3.326   4.085  16.237 -0.5715  2.2708  0.0286
 7546TIP3    H244054   3.222   4.161  16.316 -2.7849 -0.6083  0.0267
 7547TIP3   OH244055   5.257   1.906   0.301 -0.0557 -0.3168  0.5731
 7547TIP3    H144056   5.309   1.982   0.272 -0.2910 -0.3158  0.1571
 7547TIP3    H244057   5.264   1.909   0.397  1.3691 -0.7773  0.5066
 7548TIP3   OH244058   1.487   4.407   4.643 -0.1506  0.2713  0.3046
 7548TIP3    H144059   1.524   4.417   4.555  0.8835  1.8198  0.8824
 7548TIP3    H244060   1.394   4.427   4.632 -0.0386  0.4050 -0.4451
 7549TIP3   OH244061   4.667   0.746  11.858 -0.8826 -0.1088 -0.1974
 7549TIP3    H144062   4.725   0.756  11.782 -1.0750  0.5074 -0.2683
 7549TIP3    H244063   4.666   0.652  11.874 -2.1705 -0.4643 -2.0230
 7550TIP3   OH244064   3.200   6.656  14.327  0.5271  0.4183  0.2179
 7550TIP3    H144065   3.286   6.624  14.354 -0.5006 -1.6212  1.3394
 7550TIP3    H244066   3.156   6.679  14.409 -0.1579  0.9798 -0.2978
 7551TIP3   OH244067   5.489   3.260  15.242 -0.6067  0.1168 -0.0627
 7551TIP3    H144068   5.583   3.250  15.230  0.0329  3.3478  1.2177
 7551TIP3    H244069   5.451   3.234  15.158  1.6893  1.3488 -1.5680
 7552TIP3   OH244070   1.123   4.399  16.065  0.4795  0.3917  0.8662
 7552TIP3    H144071   1.060   4.471  16.056  0.4825  0.3552  0.5539
 7552TIP3    H244072   1.078   4.323  16.028  0.3471  0.1499  1.4992
 7553TIP3   OH244073   0.909   6.605  10.989  0.3369  0.1513 -0.2130
 7553TIP3    H144074   0.821   6.632  11.014  0.0507 -0.8610 -0.0924
 7553TIP3    H244075   0.948   6.684  10.951 -0.4129  0.7680  0.2536
 7554TIP3   OH244076   2.921   5.977   0.256  0.3071  0.8936 -0.2724
 7554TIP3    H144077   3.015   5.991   0.271  1.1984 -2.9423 -1.2335
 7554TIP3    H244078   2.911   5.989   0.161  0.5872 -1.7488 -0.6990
 7555TIP3   OH244079   2.396   1.433   0.899  0.0660 -0.3997  0.4619
 7555TIP3    H144080   2.438   1.483   0.968  1.1692  0.1338 -0.5602
 7555TIP3    H244081   2.330   1.492   0.863  0.0320 -0.3918  0.5372
 7556TIP3   OH244082   4.635   6.641  15.426 -0.2049 -0.1812 -0.1826
 7556TIP3    H144083   4.573   6.571  15.403 -0.6870  0.4335 -0.8173
 7556TIP3    H244084   4.579   6.715  15.451  0.2935  0.0676  0.2055
 7557TIP3   OH244085   5.365   3.934   0.911  0.5461  0.3397  0.0025
 7557TIP3    H144086   5.459   3.931   0.924  0.1663 -1.1698  4.1122
 7557TIP3    H244087   5.338   4.017   0.950  0.0695 -0.1915  0.8575
 7558TIP3   OH244088   3.092   0.217   5.325 -0.2359  0.0946 -0.1167
 7558TIP3    H144089   3.164   0.254   5.274  0.6390 -1.9710 -0.4923
 7558TIP3    H244090   3.097   0.123   5.309 -2.7200 -0.1764  0.2848
 7559TIP3   OH244091   5.599   3.293  14.693  0.1759 -0.2520 -0.0771
 7559TIP3    H144092   5.624   3.218  14.747 -0.0460  0.1731  0.6299
 7559TIP3    H244093   5.561   3.254  14.615 -0.7593 -0.8801  0.6634
 7560TIP3   OH244094   5.480   6.386  11.935 -0.5982 -0.1733  0.4828
 7560TIP3    H144095   5.536   6.444  11.883 -0.0775 -1.3143 -0.2657
 7560TIP3    H244096   5.408   6.442  11.964 -0.6626  0.6279 -1.0976
 7561TIP3   OH244097   1.919   2.350  14.114  0.6226  0.7030 -0.2504
 7561TIP3    H144098   1.831   2.387  14.112 -0.3820 -1.5309 -0.9772
 7561TIP3    H244099   1.969   2.410  14.169 -1.0770  2.5836 -0.6498
 7562TIP3   OH244100   6.713   4.708  17.159  0.8352 -0.0705 -0.4098
 7562TIP3    H144101   6.651   4.649  17.202 -0.1643  1.6741  0.6573
 7562TIP3    H244102   6.731   4.776  17.224  1.6096  1.0492 -1.7346
 7563TIP3   OH244103   5.627   1.493  13.995  0.1054 -0.1891  0.1701
 7563TIP3    H144104   5.622   1.414  14.050  0.0602 -0.0944  0.3009
 7563TIP3    H244105   5.566   1.475  13.924  0.0676 -0.2582  0.2182
 7564TIP3   OH244106   6.338   3.068   3.936 -0.3465  0.8287 -0.1654
 7564TIP3    H144107   6.380   2.983   3.950 -1.3790  0.2373 -0.5446
 7564TIP3    H244108   6.303   3.091   4.021 -0.9651  0.3695 -0.2911
 7565TIP3   OH244109   6.040   3.317   4.289  0.0495 -0.1025 -0.5469
 7565TIP3    H144110   6.092   3.391   4.317 -1.3378  0.3103  1.0884
 7565TIP3    H244111   5.979   3.353   4.224  1.9883 -0.6848 -2.8619
 7566TIP3   OH244112   1.207   4.327  16.983 -0.4832  0.0801 -0.3186
 7566TIP3    H144113   1.240   4.393  17.044 -0.0396  0.7079 -1.2154
 7566TIP3    H244114   1.234   4.359  16.897 -0.2055 -1.3132 -0.7644
 7567TIP3   OH244115   3.317   5.824   5.193  0.0491  0.3336  0.1917
 7567TIP3    H144116   3.319   5.917   5.213 -0.0652  0.0614  1.5638
 7567TIP3    H244117   3.321   5.781   5.278  0.3205 -0.9225 -0.4268
 7568TIP3   OH244118   3.240   6.664   0.645  0.5005  0.4017  0.4194
 7568TIP3    H144119   3.228   6.748   0.602  2.7035  1.3227  1.4700
 7568TIP3    H244120   3.257   6.602   0.573 -0.4677  0.9519 -0.3064
 7569TIP3   OH244121   6.771   1.553   3.770  0.2054 -0.6954  0.3772
 7569TIP3    H144122   6.764   1.493   3.696  2.9962 -1.6415  0.7898
 7569TIP3    H244123   6.857   1.594   3.760 -0.5644  1.3353  1.5422
 7570TIP3   OH244124   2.893   5.716   4.267 -0.5498  0.5909  0.1522
 7570TIP3    H144125   2.910   5.802   4.228  0.0498  0.0006 -0.9543
 7570TIP3    H244126   2.893   5.731   4.362  1.0273  1.5765  0.0347
 7571TIP3   OH244127   2.205   6.421   3.189  0.2333 -0.5118 -0.4196
 7571TIP3    H144128   2.110   6.437   3.194  0.5623  1.5096  0.1895
 7571TIP3    H244129   2.230   6.453   3.103  0.5782  0.3616 -0.0051
 7572TIP3   OH244130   0.600   3.416   2.955  0.7492  0.0222 -0.2014
 7572TIP3    H144131   0.560   3.470   3.022  1.3295  0.4132 -0.1604
 7572TIP3    H244132   0.527   3.374   2.911  0.3087  0.5901 -0.0228
 7573TIP3   OH244133   0.990   1.120   2.757  0.5168 -0.0699 -0.3557
 7573TIP3    H144134   1.016   1.059   2.688 -0.4106 -1.1269  0.1993
 7573TIP3    H244135   1.069   1.170   2.775  1.1774 -0.7874 -1.1453
 7574TIP3   OH244136   2.906   6.082  16.649  0.5381  0.2568 -0.1556
 7574TIP3    H144137   2.875   6.043  16.730  1.8200  1.0272  0.7364
 7574TIP3    H244138   2.916   6.175  16.669  1.1637  0.4099 -1.1004
 7575TIP3   OH244139   4.872   5.090   1.417  0.4559  0.3317 -0.6906
 7575TIP3    H144140   4.859   5.183   1.435  0.4019  0.2144 -0.1170
 7575TIP3    H244141   4.943   5.063   1.475  1.0279  0.1939 -1.4329
 7576TIP3   OH244142   6.772   1.617   5.808 -0.5227 -0.4313  0.3342
 7576TIP3    H144143   6.802   1.668   5.883 -0.8133 -0.0442  0.1910
 7576TIP3    H244144   6.851   1.581   5.769 -0.4486 -1.7264  1.5936
 7577TIP3   OH244145   0.785   5.611  16.439 -0.0997 -0.4969  0.2015
 7577TIP3    H144146   0.822   5.695  16.413  0.6935 -0.6129  0.9140
 7577TIP3    H244147   0.709   5.600  16.383  0.7611 -0.0934 -1.0846
 7578TIP3   OH244148   1.177   5.218  15.490 -0.3682  0.1416  0.2328
 7578TIP3    H144149   1.094   5.244  15.450 -0.6199 -0.5885  0.2692
 7578TIP3    H244150   1.160   5.216  15.584 -1.0530 -2.4525  0.1124
 7579TIP3   OH244151   1.924   0.155   0.452  0.5602  0.1214 -0.4009
 7579TIP3    H144152   1.948   0.210   0.526 -1.2694 -0.4313  0.6551
 7579TIP3    H244153   1.837   0.186   0.426  0.3584 -0.9389 -1.0782
 7580TIP3   OH244154   4.536   5.106  16.350  0.4643 -0.3466  0.5280
 7580TIP3    H144155   4.607   5.128  16.410  2.3427  3.5196 -2.6194
 7580TIP3    H244156   4.482   5.184  16.347  0.0018 -0.6778 -2.1114
 7581TIP3   OH244157   0.962   4.569   3.962  0.0039  0.2941 -0.1541
 7581TIP3    H144158   0.995   4.516   3.890 -0.4877  1.0078 -0.9193
 7581TIP3    H244159   1.021   4.549   4.035 -0.1517 -1.2751 -0.4131
 7582TIP3   OH244160   4.897   2.210   1.585  0.6133  0.2306 -0.3526
 7582TIP3    H144161   4.906   2.145   1.515 -0.0436  0.8772 -1.0628
 7582TIP3    H244162   4.802   2.219   1.597  0.7015  0.8577 -0.0751
 7583TIP3   OH244163   2.040   6.065  10.722  0.5785 -0.1708  0.0060
 7583TIP3    H144164   1.962   6.023  10.759  0.8730 -2.2501 -1.5211
 7583TIP3    H244165   2.005   6.126  10.657  0.1901  0.8951  1.1679
 7584TIP3   OH244166   0.100   1.497  16.223 -0.0860  0.2763 -0.2100
 7584TIP3    H144167   0.156   1.520  16.298 -1.7302  2.7333  0.4057
 7584TIP3    H244168   0.035   1.438  16.259 -0.0971  0.4000 -0.0251
 7585TIP3   OH244169   2.629   4.043  10.444  0.0564  0.1937  0.2529
 7585TIP3    H144170   2.720   4.018  10.430 -0.3067 -0.3305 -1.3725
 7585TIP3    H244171   2.585   3.960  10.466 -0.4721 -0.0335 -1.5106
 7586TIP3   OH244172   2.495   4.650   4.566 -0.0016  0.4753 -0.2776
 7586TIP3    H144173   2.576   4.667   4.615 -1.5476  0.0780  2.6054
 7586TIP3    H244174   2.465   4.565   4.598 -1.4174  0.4844 -1.5017
 7587TIP3   OH244175   0.629   6.086  14.433 -0.1433 -0.1346  0.8408
 7587TIP3    H144176   0.564   6.023  14.402 -0.9203  1.3198 -0.6522
 7587TIP3    H244177   0.709   6.035  14.443 -0.4677 -1.1918 -1.3787
 7588TIP3   OH244178   3.527   4.167   3.723 -0.0519 -0.0808 -0.3540
 7588TIP3    H144179   3.592   4.109   3.683  1.4879  0.7132  0.8998
 7588TIP3    H244180   3.445   4.117   3.721  0.6511 -1.2314 -1.6737
 7589TIP3   OH244181   1.034   6.143   0.439 -0.2393  0.1651 -0.3103
 7589TIP3    H144182   1.023   6.152   0.344 -2.7342  0.0755 -0.0883
 7589TIP3    H244183   0.992   6.059   0.460  0.0319  0.3216  0.9184
 7590TIP3   OH244184   0.902   1.235   0.821 -0.2288 -0.0313 -0.8226
 7590TIP3    H144185   0.847   1.166   0.783 -0.3545 -0.0244 -0.6584
 7590TIP3    H244186   0.942   1.278   0.746 -0.4250 -0.0583 -0.9449
 7591TIP3   OH244187   2.128   5.629   0.558 -0.9576 -0.0981 -0.2461
 7591TIP3    H144188   2.036   5.644   0.535 -1.0620  0.3105  0.4142
 7591TIP3    H244189   2.167   5.597   0.477 -2.0973 -2.1334 -0.0523
 7592TIP3   OH244190   5.173   4.432   1.343 -0.1937 -0.0957  0.1739
 7592TIP3    H144191   5.091   4.405   1.383  0.0659  1.5293  1.9293
 7592TIP3    H244192   5.240   4.415   1.410  0.7058 -0.0485 -0.6805
 7593TIP3   OH244193   0.374   0.307  12.933 -0.6615  0.1333  0.2862
 7593TIP3    H144194   0.425   0.300  12.852  0.2848 -1.6496  0.9908
 7593TIP3    H244195   0.351   0.400  12.939 -0.5691  0.3475 -1.8988
 7594TIP3   OH244196   2.464   5.281   5.723 -0.0195  0.9314  0.6335
 7594TIP3    H144197   2.387   5.273   5.666  0.6305 -2.5580 -0.0032
 7594TIP3    H244198   2.430   5.318   5.804 -1.9840  1.2724 -0.2714
 7595TIP3   OH244199   3.216   2.890   3.171 -0.0491 -0.3760  0.1349
 7595TIP3    H144200   3.179   2.941   3.243  0.1483  0.5168 -0.3768
 7595TIP3    H244201   3.162   2.915   3.095  1.1904  0.4924 -0.4998
 7596TIP3   OH244202   4.305   3.653  15.963 -0.2408 -0.2972 -0.3024
 7596TIP3    H144203   4.245   3.708  15.912 -1.9475 -0.5027  1.3717
 7596TIP3    H244204   4.281   3.670  16.054  1.5692 -1.2105  0.3888
 7597TIP3   OH244205   3.797   4.715   3.631 -0.3225  0.0582  0.0260
 7597TIP3    H144206   3.764   4.785   3.686 -0.3569 -0.1579  0.2817
 7597TIP3    H244207   3.890   4.734   3.620 -0.6763  1.1293 -1.3798
 7598TIP3   OH244208   1.368   4.395  13.557 -0.0489 -0.1616  0.2557
 7598TIP3    H144209   1.439   4.459  13.563 -0.3795  0.3569 -0.9281
 7598TIP3    H244210   1.412   4.310  13.550  0.6155  0.3104 -2.8478
 7599TIP3   OH244211   3.706   1.357  15.059 -0.4205 -0.8159  0.3738
 7599TIP3    H144212   3.761   1.291  15.016  0.9704  0.8364 -0.5184
 7599TIP3    H244213   3.684   1.319  15.144  1.7038 -1.7552  0.5517
 7600TIP3   OH244214   2.110   1.730   1.188 -0.4594  0.0286 -0.0660
 7600TIP3    H144215   2.122   1.636   1.199 -0.5741 -0.0447 -0.5314
 7600TIP3    H244216   2.061   1.738   1.106  1.1167  0.5610 -1.0146
 7601TIP3   OH244217   1.224   3.299  12.846  0.3104 -0.0347  0.4761
 7601TIP3    H144218   1.211   3.263  12.934  1.0486  1.4149  1.2049
 7601TIP3    H244219   1.286   3.370  12.858 -1.1692  1.5820 -0.8854
 7602TIP3   OH244220   6.055   2.138  13.949  0.7410  0.3672 -0.1994
 7602TIP3    H144221   6.051   2.143  14.044  0.2996 -0.4517 -0.1735
 7602TIP3    H244222   6.065   2.229  13.921  1.3051  0.5779  0.6419
 7603TIP3   OH244223   2.666   3.093   4.545  0.0457 -0.2341  0.0946
 7603TIP3    H144224   2.682   3.000   4.563 -3.2898 -0.9911 -0.1798
 7603TIP3    H244225   2.690   3.104   4.453 -1.4927 -1.4201 -0.4932
 7604TIP3   OH244226   0.136   5.654  16.012  0.6016 -0.1263  0.2841
 7604TIP3    H144227   0.195   5.585  16.043  0.0025 -0.5398  0.5165
 7604TIP3    H244228   0.193   5.712  15.961  0.8910 -1.5267 -1.0778
 7605TIP3   OH244229   6.313   0.736   0.431 -0.1679 -0.2538  0.1396
 7605TIP3    H144230   6.388   0.747   0.374 -0.7761 -0.0734 -0.6346
 7605TIP3    H244231   6.339   0.667   0.492  0.3097 -0.7939 -0.6636
 7606TIP3   OH244232   4.124   1.272   0.843  0.0379  0.1863 -0.6501
 7606TIP3    H144233   4.170   1.238   0.920  1.4396  0.8511 -1.1647
 7606TIP3    H244234   4.037   1.231   0.848  0.7171 -1.2519  0.2604
 7607TIP3   OH244235   0.489   6.331   1.374  0.3324  0.3528  0.2268
 7607TIP3    H144236   0.579   6.344   1.345  0.4298 -1.8744 -0.6316
 7607TIP3    H244237   0.497   6.292   1.461  0.1770  0.3117  0.2226
 7608TIP3   OH244238   0.599   6.710   4.942 -0.1854  0.6078 -0.1245
 7608TIP3    H144239   0.688   6.742   4.955  0.2983 -0.8530  0.4195
 7608TIP3    H244240   0.606   6.649   4.868 -0.5077 -0.2689  0.5424
 7609TIP3   OH244241   0.883   2.786   0.099 -0.1858  0.1037  0.2347
 7609TIP3    H144242   0.833   2.709   0.125  0.8855 -1.1853 -1.3461
 7609TIP3    H244243   0.906   2.829   0.182 -0.3849 -1.5542  1.1947
 7610TIP3   OH244244   5.807   5.858  16.005 -0.4288 -0.4626 -0.1250
 7610TIP3    H144245   5.774   5.769  16.014  0.0386 -0.4351  2.6602
 7610TIP3    H244246   5.898   5.848  15.979  0.1754 -0.9379  1.9977
 7611TIP3   OH244247   2.107   5.934  12.230  0.1659 -0.7003  0.1434
 7611TIP3    H144248   2.040   5.998  12.207 -0.5904 -0.7249  2.0333
 7611TIP3    H244249   2.188   5.983  12.231 -0.4156  0.3190  1.6477
 7612TIP3   OH244250   2.003   2.179   1.356 -0.1737 -0.0617 -0.1817
 7612TIP3    H144251   1.956   2.100   1.331  0.7293 -0.4974 -0.5687
 7612TIP3    H244252   2.055   2.201   1.279 -0.6378  1.0947 -0.1885
 7613TIP3   OH244253   5.837   5.644  15.191 -0.0915 -0.2652 -0.2652
 7613TIP3    H144254   5.919   5.599  15.172  0.1439 -0.4964  1.1697
 7613TIP3    H244255   5.808   5.680  15.106  0.3091 -2.0926 -1.2184
 7614TIP3   OH244256   0.273   6.034  14.049  0.1628  0.1432  0.5140
 7614TIP3    H144257   0.228   6.026  14.133 -1.6548 -1.6093 -0.5242
 7614TIP3    H244258   0.202   6.040  13.984  1.4165 -1.5598 -1.1341
 7615TIP3   OH244259   5.275   4.569   1.092  0.2534 -0.8614 -0.1280
 7615TIP3    H144260   5.365   4.558   1.122  0.2170  0.3653  0.4725
 7615TIP3    H244261   5.221   4.547   1.168  0.1401  1.1817  0.4469
 7616TIP3   OH244262   3.805   3.180  15.933  0.1016 -0.2426  0.0828
 7616TIP3    H144263   3.760   3.259  15.903  0.5419 -0.5993 -1.6525
 7616TIP3    H244264   3.802   3.121  15.858  0.8468 -1.4159  0.9383
 7617TIP3   OH244265   4.460   3.573  15.742 -0.0408 -0.2223 -0.5459
 7617TIP3    H144266   4.469   3.478  15.749  0.5371 -0.0888  0.7358
 7617TIP3    H244267   4.388   3.594  15.801 -2.5679 -0.1803 -3.3457
 7618TIP3   OH244268   0.920   4.139  12.663  0.3670  0.0161  0.1082
 7618TIP3    H144269   0.841   4.188  12.685  0.5772 -0.0557  1.1008
 7618TIP3    H244270   0.967   4.194  12.602 -0.3606  0.1439 -0.3416
 7619TIP3   OH244271   3.964   1.659  16.725  0.1065  0.6549 -0.0052
 7619TIP3    H144272   3.932   1.705  16.647  0.5382  0.3666 -0.3523
 7619TIP3    H244273   4.045   1.617  16.697  0.1413  0.3529  0.5367
 7620TIP3   OH244274   1.371   3.023   0.789 -0.1771 -0.3470 -0.1223
 7620TIP3    H144275   1.399   3.032   0.698  0.1481 -0.1095 -0.0012
 7620TIP3    H244276   1.358   3.112   0.819 -0.8121 -0.4468 -0.0934
 7621TIP3   OH244277   5.329   4.882   1.889 -0.1913  0.0994 -0.1403
 7621TIP3    H144278   5.362   4.867   1.801  0.5885  1.3505 -0.0843
 7621TIP3    H244279   5.372   4.816   1.943 -1.2325 -1.1466 -0.7889
 7622TIP3   OH244280   6.782   6.746   3.373 -0.1279 -0.5566 -0.2271
 7622TIP3    H144281   6.794   6.765   3.466  1.2402 -0.1795 -0.4619
 7622TIP3    H244282   6.716   6.677   3.372 -0.4151 -0.3341  1.0021
 7623TIP3   OH244283   4.655   0.320   6.885 -0.3433  0.0126 -0.1965
 7623TIP3    H144284   4.655   0.266   6.807  0.4984  0.9237 -0.8517
 7623TIP3    H244285   4.722   0.387   6.868 -1.1056  1.0411  0.7226
 7624TIP3   OH244286   6.527   2.800   2.713 -0.5066  0.3793  0.0561
 7624TIP3    H144287   6.514   2.884   2.758  0.1460 -0.1394  1.2532
 7624TIP3    H244288   6.483   2.736   2.768 -0.9420 -0.0800 -0.8174
 7625TIP3   OH244289   5.418   1.435   6.111 -0.1504 -0.2231 -0.1146
 7625TIP3    H144290   5.391   1.414   6.200  1.1766 -2.1615 -0.0948
 7625TIP3    H244291   5.342   1.413   6.057 -1.2641  1.7688  0.5656
 7626TIP3   OH244292   3.379   3.904  16.754 -0.0652 -0.0870 -0.5479
 7626TIP3    H144293   3.307   3.966  16.758  0.4306  0.4683  2.4058
 7626TIP3    H244294   3.456   3.958  16.733 -0.0463 -0.1477 -0.6333
 7627TIP3   OH244295   3.131   4.687   4.386  0.2410  0.1231  0.5339
 7627TIP3    H144296   3.135   4.665   4.293  1.0946 -0.7527  0.7653
 7627TIP3    H244297   3.050   4.647   4.417  0.9156 -1.2491  0.5743
 7628TIP3   OH244298   0.686   3.453   2.333  0.5159  0.4410  0.1089
 7628TIP3    H144299   0.693   3.408   2.248 -0.2346 -0.6774  0.6124
 7628TIP3    H244300   0.613   3.513   2.323 -2.1755 -2.4050  1.0488
 7629TIP3   OH244301   5.772   5.103  13.046  0.5174  0.0706  0.4136
 7629TIP3    H144302   5.722   5.183  13.029  0.2381 -0.5723 -2.3277
 7629TIP3    H244303   5.862   5.126  13.026  0.8837  0.3495  2.2059
 7630TIP3   OH244304   0.005   2.563   4.931 -0.3685 -0.3859  0.2668
 7630TIP3    H144305   0.099   2.562   4.947 -0.5201 -1.7461  1.1800
 7630TIP3    H244306  -0.005   2.610   4.848  1.2542 -1.7520 -0.7600
 7631TIP3   OH244307   4.494   4.781   5.800  0.2059  0.5105 -0.1051
 7631TIP3    H144308   4.569   4.729   5.771  0.9375  1.6219 -0.2738
 7631TIP3    H244309   4.487   4.763   5.893  0.5695  0.2476 -0.1261
 7632TIP3   OH244310   3.008   5.882  14.271  0.3871 -0.1286  0.1747
 7632TIP3    H144311   3.064   5.816  14.230  0.6463 -1.0158  1.8430
 7632TIP3    H244312   2.931   5.833  14.301  0.2563  0.4548  0.8284
 7633TIP3   OH244313   1.694   2.848  10.537  0.2681  0.0741 -0.3024
 7633TIP3    H144314   1.666   2.783  10.473  0.6061 -1.4564  1.0332
 7633TIP3    H244315   1.786   2.826  10.556  1.1668  2.4091 -1.5066
 7634TIP3   OH244316   4.200   1.637  12.557 -0.4409  0.1083  0.0797
 7634TIP3    H144317   4.186   1.727  12.529 -0.1238 -0.2890 -1.4506
 7634TIP3    H244318   4.212   1.588  12.476  1.3453 -0.9931  0.9293
 7635TIP3   OH244319   2.518   2.131  15.065 -0.1955 -0.0320 -0.3792
 7635TIP3    H144320   2.558   2.084  14.992 -1.5601  1.3591 -2.1241
 7635TIP3    H244321   2.471   2.063  15.114  0.4740 -0.9496 -0.9798
 7636TIP3   OH244322   1.355   4.628   2.999  0.0706  0.2507  0.3472
 7636TIP3    H144323   1.366   4.689   2.927  0.6744 -1.7023 -1.3077
 7636TIP3    H244324   1.273   4.583   2.980  1.3463 -1.8879 -0.4727
 7637TIP3   OH244325   3.630   5.865   0.783 -0.3840 -0.2490 -0.2706
 7637TIP3    H144326   3.541   5.835   0.766 -0.0830 -1.5292  0.2967
 7637TIP3    H244327   3.633   5.882   0.877  0.1304 -0.8004 -0.1818
 7638TIP3   OH244328   1.355   6.234  11.264 -0.0746 -0.4422 -0.1818
 7638TIP3    H144329   1.321   6.145  11.256 -0.9261 -0.0964 -0.5801
 7638TIP3    H244330   1.378   6.259  11.174  1.0861 -0.6079  0.0639
 7639TIP3   OH244331   2.288   0.254   3.826 -0.4075  0.3010 -1.1079
 7639TIP3    H144332   2.363   0.203   3.795 -0.0704 -0.4878  0.8233
 7639TIP3    H244333   2.321   0.344   3.832 -0.1133  0.2410 -1.8143
 7640TIP3   OH244334   3.892   5.099   1.111 -0.7801 -0.2076 -0.0572
 7640TIP3    H144335   3.884   5.195   1.115 -0.4018 -0.1911  0.4109
 7640TIP3    H244336   3.859   5.076   1.024 -0.3960  0.3983 -0.3728
 7641TIP3   OH244337   2.475   6.069  14.221 -0.2141  0.2781 -0.7167
 7641TIP3    H144338   2.500   6.037  14.135  0.8575 -1.9168  0.3302
 7641TIP3    H244339   2.413   6.004  14.254  0.2100  0.4963  0.5626
 7642TIP3   OH244340   2.352   0.160   1.268 -0.7431 -0.5988  0.6211
 7642TIP3    H144341   2.400   0.241   1.250 -1.9800 -0.1608 -1.0115
 7642TIP3    H244342   2.363   0.145   1.362 -1.5011  2.1650  1.2339
 7643TIP3   OH244343   2.637   5.213  17.008  0.2096 -0.3474 -0.2846
 7643TIP3    H144344   2.643   5.286  17.070  1.5815 -0.0368 -0.7430
 7643TIP3    H244345   2.547   5.182  17.016  0.0602  0.3431  1.1125
 7644TIP3   OH244346   1.869   0.310  14.122  0.0067  0.4103 -0.1674
 7644TIP3    H144347   1.872   0.375  14.052  3.3828  0.5503 -0.0515
 7644TIP3    H244348   1.923   0.238  14.090 -0.8736 -0.8731  1.0969
 7645TIP3   OH244349   3.812   2.010  11.525 -0.3207  0.5363 -0.0058
 7645TIP3    H144350   3.868   2.071  11.478  1.8105 -0.9408  0.4697
 7645TIP3    H244351   3.861   1.927  11.526 -0.0946  0.4288  4.7713
 7646TIP3   OH244352   2.636   0.072   5.003 -0.3734 -0.0714  0.1945
 7646TIP3    H144353   2.710   0.014   4.986  0.1185  1.0212 -1.6827
 7646TIP3    H244354   2.559   0.014   5.002  0.3338 -1.0436  0.9979
 7647TIP3   OH244355   0.720   3.103  15.672  0.2752 -0.0608 -0.5258
 7647TIP3    H144356   0.781   3.038  15.706  1.0086  0.8047 -0.1375
 7647TIP3    H244357   0.747   3.116  15.581 -0.1279 -0.5801 -0.7258
 7648TIP3   OH244358   1.992   1.609  14.437  0.9804  0.3850  0.4936
 7648TIP3    H144359   1.961   1.685  14.388 -0.0950 -0.7441 -0.6703
 7648TIP3    H244360   1.914   1.576  14.481  0.9550 -1.1637 -0.6090
 7649TIP3   OH244361   4.691   1.216  14.378  0.0546  0.2635 -0.3716
 7649TIP3    H144362   4.706   1.154  14.449  0.9191 -1.9286 -2.3053
 7649TIP3    H244363   4.602   1.248  14.391  0.1420 -0.1794  1.5693
 7650TIP3   OH244364   1.117   5.679  12.123  0.1106  0.4061  0.0960
 7650TIP3    H144365   1.154   5.593  12.144  0.8423  0.9666  1.2536
 7650TIP3    H244366   1.038   5.684  12.177  0.1913  0.5408  0.2019
 7651TIP3   OH244367   3.560   5.147   0.006  0.7112 -0.1337 -0.3544
 7651TIP3    H144368   3.591   5.141   0.097 -0.4135 -0.3795  0.0291
 7651TIP3    H244369   3.491   5.213   0.009  1.1426  0.3720 -1.1846
 7652TIP3   OH244370   0.222   6.684  14.743 -0.2385  0.3203 -0.2244
 7652TIP3    H144371   0.261   6.605  14.706 -0.2720  0.2365 -0.0823
 7652TIP3    H244372   0.224   6.748  14.672 -1.4331 -0.2097 -0.7462
 7653TIP3   OH244373   1.709   4.392   2.632  0.5654 -0.3656  0.0364
 7653TIP3    H144374   1.630   4.395   2.578 -0.9448  0.2560  2.1397
 7653TIP3    H244375   1.706   4.305   2.673  2.0457 -1.0914 -1.2803
 7654TIP3   OH244376   3.893   1.544   0.026 -0.0360 -0.0343  0.6173
 7654TIP3    H144377   3.951   1.605  -0.021  2.5011 -2.2505  0.6465
 7654TIP3    H244378   3.891   1.466  -0.030 -1.7849 -0.5841  1.4035
 7655TIP3   OH244379   2.482   5.739  11.475  0.1852  0.0692 -0.0458
 7655TIP3    H144380   2.481   5.809  11.540 -0.0348  0.2896 -0.2864
 7655TIP3    H244381   2.575   5.719  11.463  0.3190  1.0450 -0.7516
 7656TIP3   OH244382   0.297   0.525   5.906 -0.4413 -0.0695  0.1710
 7656TIP3    H144383   0.313   0.460   5.975 -0.1120 -0.8909 -0.6527
 7656TIP3    H244384   0.205   0.548   5.916 -0.1990  0.4078  1.3714
 7657TIP3   OH244385   5.274   4.443  13.981  0.5835  0.0839 -0.0420
 7657TIP3    H144386   5.254   4.455  14.074  0.1888 -0.3499 -0.0697
 7657TIP3    H244387   5.275   4.348  13.968  3.3570  0.0126  0.1060
 7658TIP3   OH244388   0.925   1.069  13.704 -0.2011 -0.3744  0.1691
 7658TIP3    H144389   0.978   1.024  13.638 -0.7488  0.6476 -0.9971
 7658TIP3    H244390   0.846   1.096  13.657 -0.7533  0.0813  1.3318
 7659TIP3   OH244391   0.289   5.034   4.138 -0.3356  0.8441 -0.0986
 7659TIP3    H144392   0.256   5.086   4.065  0.3678  2.8817  0.9423
 7659TIP3    H244393   0.219   4.971   4.156 -0.2354 -0.1989 -2.9132
 7660TIP3   OH244394   3.759   5.895  15.013 -0.0242 -0.1328 -0.7841
 7660TIP3    H144395   3.842   5.856  14.988  0.5742  0.4424  0.2721
 7660TIP3    H244396   3.702   5.821  15.033  0.8954 -0.5033  0.5601
 7661TIP3   OH244397   1.634   1.932  11.347  0.4641  0.3067 -0.0583
 7661TIP3    H144398   1.555   1.892  11.311  0.0521 -0.4026  1.5525
 7661TIP3    H244399   1.604   1.977  11.426  1.9386 -1.6597  1.7225
 7662TIP3   OH244400   5.156   5.859   5.534  0.1184 -0.6827  0.1293
 7662TIP3    H144401   5.101   5.803   5.590  0.5260 -2.5083 -1.1874
 7662TIP3    H244402   5.173   5.805   5.457  2.9195  0.1884  0.0201
 7663TIP3   OH244403   3.374   5.970   3.170 -0.2847 -0.1206  0.1600
 7663TIP3    H144404   3.285   5.950   3.198 -1.5722  0.9977 -2.7497
 7663TIP3    H244405   3.398   6.048   3.220 -0.8410 -0.4862  1.0373
 7664TIP3   OH244406   4.994   3.417   2.330 -0.5147 -0.4688 -0.1686
 7664TIP3    H144407   5.062   3.351   2.340 -0.2410 -0.1772 -0.0659
 7664TIP3    H244408   5.041   3.495   2.298 -0.9080 -0.4786 -0.7873
 7665TIP3   OH244409   1.248   0.345  12.629  0.3733  0.1342  0.0362
 7665TIP3    H144410   1.322   0.285  12.628  1.7197  1.7146 -0.7684
 7665TIP3    H244411   1.181   0.301  12.682  1.2498 -2.0586 -0.5689
 7666TIP3   OH244412   5.312   0.540  11.602  0.7307 -0.3526 -0.1879
 7666TIP3    H144413   5.394   0.582  11.575  1.6167 -1.7566  0.1919
 7666TIP3    H244414   5.279   0.501  11.521 -0.2648  1.2579 -0.6120
 7667TIP3   OH244415   4.079   0.894   0.751 -0.0475 -0.2104  0.0228
 7667TIP3    H144416   4.035   0.973   0.783  1.2135  0.8335 -0.6928
 7667TIP3    H244417   4.139   0.870   0.822  0.2083  0.0159 -0.1135
 7668TIP3   OH244418   1.876   2.890  10.857 -0.3527  0.1330  0.1601
 7668TIP3    H144419   1.899   2.921  10.770 -0.0796  0.3133  0.2908
 7668TIP3    H244420   1.935   2.940  10.916 -0.3506 -0.1748  0.4211
 7669TIP3   OH244421   6.405   2.179  15.632 -0.2703  0.2011 -0.5711
 7669TIP3    H144422   6.381   2.103  15.579  1.8785 -0.9061 -0.0623
 7669TIP3    H244423   6.413   2.145  15.721  1.3993  0.8476 -0.4400
 7670TIP3   OH244424   0.209   5.927   4.585  0.0442 -0.5272 -0.5390
 7670TIP3    H144425   0.215   6.013   4.625  2.7128 -0.0368 -1.7855
 7670TIP3    H244426   0.158   5.940   4.505 -1.5527 -0.6321  0.4270
 7671TIP3   OH244427   5.126   6.678  16.752 -0.2366 -0.4776  0.8126
 7671TIP3    H144428   5.109   6.679  16.657 -1.2689 -0.2917  0.9794
 7671TIP3    H244429   5.219   6.697  16.760 -0.4312  1.0711 -0.1097
 7672TIP3   OH244430   1.679   4.852   2.882  0.3583  0.5806  0.0440
 7672TIP3    H144431   1.673   4.760   2.910 -0.2989  0.2349 -1.1417
 7672TIP3    H244432   1.772   4.874   2.889  0.3102  0.3643  1.9218
 7673TIP3   OH244433   0.949   1.552   0.727 -0.1871 -0.0890  0.3569
 7673TIP3    H144434   0.915   1.571   0.640  2.6939 -1.2671 -1.1601
 7673TIP3    H244435   0.989   1.634   0.755  1.0056 -0.3408 -0.5416
 7674TIP3   OH244436   4.296   6.598   4.372 -0.1908  0.4224  0.1793
 7674TIP3    H144437   4.284   6.517   4.421 -0.3437  1.5060  2.0195
 7674TIP3    H244438   4.379   6.634   4.405  0.0912  0.8240 -0.9166
 7675TIP3   OH244439   6.143   5.532   2.418  0.3369 -0.3155 -0.2328
 7675TIP3    H144440   6.228   5.572   2.395  0.1562 -0.6897 -1.6070
 7675TIP3    H244441   6.166   5.460   2.477  0.7432  1.1776  1.5508
 7676TIP3   OH244442   3.918   2.508   3.839 -0.2165  0.0902  0.1393
 7676TIP3    H144443   3.905   2.542   3.751 -0.1957  0.9548  0.4553
 7676TIP3    H244444   3.872   2.425   3.840 -1.2257  0.6223 -0.3399
 7677TIP3   OH244445   1.498   4.764   1.994  0.1145 -0.0469 -0.0510
 7677TIP3    H144446   1.498   4.744   1.901  0.5488 -2.4969  0.4062
 7677TIP3    H244447   1.405   4.766   2.018 -0.1003  2.3986 -0.7978
 7678TIP3   OH244448   5.072   5.384   2.367 -1.1097 -0.6261  0.8987
 7678TIP3    H144449   5.053   5.466   2.323 -0.1372 -1.8887 -2.1143
 7678TIP3    H244450   4.988   5.355   2.403 -1.5118  1.4617  1.7743
 7679TIP3   OH244451   1.943   0.697   0.619  0.0935  0.1056 -0.2218
 7679TIP3    H144452   1.881   0.770   0.626  0.7001  0.5930  0.0875
 7679TIP3    H244453   1.974   0.683   0.708 -0.2485 -0.7477 -0.2201
 7680TIP3   OH244454   5.739   0.330   0.141  0.2678 -0.6728 -0.7129
 7680TIP3    H144455   5.728   0.277   0.220 -0.5928  2.3691  1.3653
 7680TIP3    H244456   5.675   0.295   0.079 -0.9814 -1.4447  0.9385
 7681TIP3   OH244457   2.151   5.926   5.497  0.2874 -0.6593  0.1236
 7681TIP3    H144458   2.203   5.918   5.417 -0.2092 -1.5707 -0.1174
 7681TIP3    H244459   2.086   5.994   5.477  0.4764 -0.5341 -0.0688
 7682TIP3   OH244460   5.642   5.490  13.762 -0.0608  0.1640 -0.5689
 7682TIP3    H144461   5.631   5.585  13.759  1.3978  0.4396  1.2860
 7682TIP3    H244462   5.613   5.465  13.850 -1.6227 -1.3164 -1.4456
 7683TIP3   OH244463   4.242   0.704   1.414 -0.6508  0.0370  0.5645
 7683TIP3    H144464   4.303   0.761   1.461 -0.4006  0.2212  0.0211
 7683TIP3    H244465   4.219   0.636   1.478  0.3674 -0.2199  0.6720
 7684TIP3   OH244466   1.902   0.517  13.817  0.3608  0.1029 -0.1810
 7684TIP3    H144467   1.807   0.528  13.813  0.2031 -1.3530 -2.9316
 7684TIP3    H244468   1.937   0.599  13.783 -0.0217 -0.0822 -1.0586
 7685TIP3   OH244469   0.252   2.497  12.636  0.1032  0.4887 -0.1115
 7685TIP3    H144470   0.339   2.524  12.608  0.9106 -1.0746  0.7301
 7685TIP3    H244471   0.267   2.418  12.688 -1.9337 -0.5968 -1.0478
 7686TIP3   OH244472   2.217   1.570  14.565 -0.2978 -0.1446 -0.2207
 7686TIP3    H144473   2.245   1.478  14.565 -0.0231 -0.1448  2.3314
 7686TIP3    H244474   2.143   1.572  14.505  0.2296 -1.8501 -1.0040
 7687TIP3   OH244475   0.115   4.649   5.033  0.9392 -0.2215 -0.2849
 7687TIP3    H144476   0.058   4.639   4.957 -1.7326 -0.8020  1.6359
 7687TIP3    H244477   0.092   4.576   5.090  2.2963  0.5948  1.4126
 7688TIP3   OH244478   4.153   3.900   3.581 -0.4680  0.8946  0.7353
 7688TIP3    H144479   4.186   3.898   3.670  0.3614  0.7963  0.4362
 7688TIP3    H244480   4.131   3.809   3.562  2.4545  0.2668 -0.2461
 7689TIP3   OH244481   0.109   2.934   1.359 -0.1183  0.0379  0.1044
 7689TIP3    H144482   0.102   3.016   1.311  0.1760  0.3210  0.5396
 7689TIP3    H244483   0.184   2.946   1.417 -0.9114  0.0039  1.1854
 7690TIP3   OH244484   5.537   2.827  13.843 -0.0027  0.5763  0.0022
 7690TIP3    H144485   5.510   2.850  13.754 -2.1153 -1.0451  0.1444
 7690TIP3    H244486   5.630   2.807  13.835 -0.3430 -0.4901 -2.0935
 7691TIP3   OH244487   5.402   3.989  13.756 -0.3242 -0.6003 -0.4345
 7691TIP3    H144488   5.490   3.951  13.747  0.4816  0.9814  0.4304
 7691TIP3    H244489   5.344   3.921  13.722  1.3380 -1.0421 -2.6516
 7692TIP3   OH244490   1.523   2.375  12.600 -0.4561  0.2520  0.2745
 7692TIP3    H144491   1.523   2.387  12.695 -0.7309  2.1085  0.0717
 7692TIP3    H244492   1.615   2.383  12.575 -0.3519 -0.4794  0.3874
 7693TIP3   OH244493   5.862   5.182   0.678 -0.5996  0.2224 -0.0261
 7693TIP3    H144494   5.816   5.100   0.699  0.7163 -0.5916 -0.2596
 7693TIP3    H244495   5.906   5.206   0.760  0.6258 -0.3880 -0.4811
 7694TIP3   OH244496   4.265   1.848   4.303 -0.0517  0.6893 -0.5344
 7694TIP3    H144497   4.170   1.860   4.301 -0.3264 -0.6234  1.4124
 7694TIP3    H244498   4.292   1.884   4.388  0.6329 -1.9692  0.4649
 7695TIP3   OH244499   4.638   6.078   3.125 -0.4669  0.7337 -0.1272
 7695TIP3    H144500   4.605   6.153   3.075  0.0104  1.1479  0.1690
 7695TIP3    H244501   4.623   6.101   3.217 -1.1345  0.0713 -0.0577
 7696TIP3   OH244502   1.819   1.511   1.839  0.6211 -0.1489 -0.1744
 7696TIP3    H144503   1.781   1.597   1.825  1.7143  0.3758  0.0126
 7696TIP3    H244504   1.748   1.450   1.820  0.4343  0.6933 -2.5280
 7697TIP3   OH244505   2.399   2.374   3.653 -0.5496  0.5876 -0.0704
 7697TIP3    H144506   2.346   2.348   3.577 -0.2060  1.9342 -0.8159
 7697TIP3    H244507   2.462   2.437   3.617 -0.0233  0.8389  1.2475
 7698TIP3   OH244508   0.958   6.722  14.687 -0.1085  0.4266  0.0306
 7698TIP3    H144509   0.931   6.666  14.759 -1.6360 -1.8481 -2.1613
 7698TIP3    H244510   1.029   6.673  14.644  0.4904  1.5377 -0.2830
 7699TIP3   OH244511   6.075   5.839   5.772 -0.6539 -0.3403 -0.2854
 7699TIP3    H144512   6.088   5.888   5.691 -0.1038  1.1484  0.6459
 7699TIP3    H244513   6.076   5.747   5.746 -0.2436  0.0959 -1.9108
 7700TIP3   OH244514   4.826   2.988   3.060 -0.8084 -0.3917 -0.3807
 7700TIP3    H144515   4.880   3.058   3.024  0.2480 -2.2747 -2.7672
 7700TIP3    H244516   4.889   2.921   3.087 -1.8387 -1.1750  0.1492
 7701TIP3   OH244517   2.378   6.705  13.362 -0.5231  0.3544  0.4585
 7701TIP3    H144518   2.448   6.703  13.296  0.3037  2.0334  1.2360
 7701TIP3    H244519   2.416   6.659  13.437 -1.6453 -2.0149 -0.3013
 7702TIP3   OH244520   3.633   4.676   3.403 -0.5813 -0.0946 -0.1598
 7702TIP3    H144521   3.567   4.717   3.458 -0.9235 -1.6898  0.6877
 7702TIP3    H244522   3.716   4.699   3.443 -0.8459 -1.7286  1.4708
 7703TIP3   OH244523   4.270   2.114   0.399  0.0907  0.3400 -0.1048
 7703TIP3    H144524   4.275   2.033   0.450 -0.3523  0.1457 -0.3597
 7703TIP3    H244525   4.343   2.167   0.431 -0.7982  0.6767  1.5092
 7704TIP3   OH244526   5.914   1.259  15.077 -0.0072 -0.8588 -0.1916
 7704TIP3    H144527   5.885   1.302  15.157  0.3966  0.2439 -0.6135
 7704TIP3    H244528   5.833   1.235  15.032 -0.2435 -1.8840  0.7218
 7705TIP3   OH244529   5.765   6.225  14.075 -0.4303 -0.4529 -0.2577
 7705TIP3    H144530   5.815   6.210  13.995 -0.1277 -2.2454  0.2312
 7705TIP3    H244531   5.826   6.205  14.146 -1.2907 -0.8463  0.3859
 7706TIP3   OH244532   6.296   0.986  14.603 -0.6247 -0.5569 -0.6806
 7706TIP3    H144533   6.325   0.896  14.621 -0.5382 -0.3255  0.4066
 7706TIP3    H244534   6.337   1.038  14.672 -2.8754 -0.0854  0.3639
 7707TIP3   OH244535   4.227   0.818   0.986 -0.0703 -0.0541  0.1950
 7707TIP3    H144536   4.285   0.746   0.963 -0.4594  0.0162 -1.0681
 7707TIP3    H244537   4.155   0.777   1.034  0.1341 -0.3828  0.2235
 7708TIP3   OH244538   3.833   5.723  16.858  0.2694  0.1626  0.2914
 7708TIP3    H144539   3.855   5.770  16.778 -1.1465 -1.2278 -0.9783
 7708TIP3    H244540   3.740   5.740  16.871  0.3375 -0.1647  1.2798
 7709TIP3   OH244541   5.437   6.062   4.343 -0.2888 -0.1024 -0.3709
 7709TIP3    H144542   5.500   6.074   4.272  0.0323  0.6182  0.0361
 7709TIP3    H244543   5.371   6.003   4.305 -0.7372  1.1698 -1.6605
 7710TIP3   OH244544   4.526   3.425   5.330 -0.1303 -0.4206 -0.3151
 7710TIP3    H144545   4.479   3.343   5.342 -0.9795  0.1420  0.2986
 7710TIP3    H244546   4.475   3.474   5.265 -2.2719  1.4894  2.5317
 7711TIP3   OH244547   0.601   5.336  16.517 -0.0107 -0.4491 -0.5823
 7711TIP3    H144548   0.642   5.284  16.585  0.3643  0.2280 -0.2763
 7711TIP3    H244549   0.663   5.407  16.500 -0.0503 -0.6649 -1.7053
 7712TIP3   OH244550   3.563   4.933  13.750  0.6418  0.5678 -0.5572
 7712TIP3    H144551   3.542   5.004  13.810  1.5691  0.9925 -0.7183
 7712TIP3    H244552   3.513   4.858  13.782  1.8096  0.5272  1.3006
 7713TIP3   OH244553   5.554   5.964  15.043 -0.0318 -0.1697 -0.3262
 7713TIP3    H144554   5.532   6.002  15.128 -0.0118 -1.0369  0.0756
 7713TIP3    H244555   5.476   5.916  15.017  0.0255 -0.0559 -0.7186
 7714TIP3   OH244556   3.700   5.561  11.531 -0.8121 -0.1199 -0.2667
 7714TIP3    H144557   3.706   5.648  11.493  2.7448 -1.2058 -2.7904
 7714TIP3    H244558   3.635   5.515  11.478 -1.2808  0.4624 -0.1956
 7715TIP3   OH244559   3.306   5.694   6.409 -0.2757 -0.0303 -0.0697
 7715TIP3    H144560   3.276   5.778   6.375 -1.3000 -0.1104  0.6058
 7715TIP3    H244561   3.326   5.711   6.501 -3.0572 -1.0794  0.8176
 7716TIP3   OH244562   3.544   0.998  11.700 -0.6289  0.5826  0.0162
 7716TIP3    H144563   3.621   1.047  11.728 -0.3618  0.0468  0.2380
 7716TIP3    H244564   3.524   1.031  11.613 -0.1880  0.7718 -0.0143
 7717TIP3   OH244565   1.013   0.018   3.980 -0.3226 -0.4765 -0.6107
 7717TIP3    H144566   1.063  -0.017   4.053 -1.7496  0.8891  1.1173
 7717TIP3    H244567   0.973  -0.059   3.939  0.1794 -1.2320  0.2814
 7718TIP3   OH244568   4.344   0.395  15.190 -0.2318  0.4059 -0.0011
 7718TIP3    H144569   4.265   0.347  15.215  1.0802 -0.7869  2.1696
 7718TIP3    H244570   4.329   0.484  15.221 -1.0790  0.4328 -0.4526
 7719TIP3   OH244571   5.783   0.605   2.161  0.1283 -0.5448  0.5213
 7719TIP3    H144572   5.774   0.605   2.066 -0.6852 -1.1746  0.5882
 7719TIP3    H244573   5.801   0.696   2.184 -2.1502  0.1061 -0.0149
 7720TIP3   OH244574   6.325   3.721   6.021 -0.9825 -0.1455  0.4466
 7720TIP3    H144575   6.419   3.716   6.003 -1.2421 -2.3970 -0.7597
 7720TIP3    H244576   6.315   3.681   6.107 -0.7628  1.0568  1.0483
 7721TIP3   OH244577   3.262   5.548  14.689  0.4701  0.6335  0.1939
 7721TIP3    H144578   3.245   5.460  14.722  2.0208  0.7608  1.4689
 7721TIP3    H244579   3.307   5.592  14.761  1.7453  1.7428 -1.2189
 7722TIP3   OH244580   3.564   4.759  17.071 -0.0955 -0.4479 -0.2068
 7722TIP3    H144581   3.469   4.751  17.080 -0.2808  1.1126 -0.4817
 7722TIP3    H244582   3.596   4.762  17.161 -0.3035 -1.0031 -0.1141
 7723TIP3   OH244583   2.218   3.835   5.548  0.7741  0.1091  0.0212
 7723TIP3    H144584   2.224   3.778   5.624  2.0094 -0.5330 -0.5339
 7723TIP3    H244585   2.175   3.782   5.481  4.2505 -1.2304 -1.3629
 7724TIP3   OH244586   1.911   2.049  15.819 -0.0592  0.2340 -0.0188
 7724TIP3    H144587   1.890   1.956  15.814  0.3349  0.2036 -2.3503
 7724TIP3    H244588   1.838   2.092  15.776  0.5351  0.8373 -0.4496
 7725TIP3   OH244589   6.576   2.053   3.015 -0.3422 -0.1089 -0.0026
 7725TIP3    H144590   6.598   1.967   3.050 -1.6093 -1.1505 -1.6628
 7725TIP3    H244591   6.596   2.048   2.922 -0.1274  1.5289 -0.0814
 7726TIP3   OH244592   2.686   1.033  15.627 -0.0789 -0.0899  0.4267
 7726TIP3    H144593   2.614   0.984  15.588 -0.5922  1.1758 -0.2443
 7726TIP3    H244594   2.647   1.114  15.658  0.8620  0.1493  1.0500
 7727TIP3   OH244595   6.754   0.604   0.765 -0.0582 -0.4184  0.1083
 7727TIP3    H144596   6.814   0.678   0.758 -0.5683  0.0504  0.5727
 7727TIP3    H244597   6.791   0.537   0.707  1.2649 -0.3933  0.8794
 7728TIP3   OH244598   4.367   5.247  13.163 -0.1259 -0.7266  0.1370
 7728TIP3    H144599   4.350   5.238  13.257 -2.1962 -1.2487 -0.2344
 7728TIP3    H244600   4.399   5.161  13.136  1.8398 -0.1745  0.5756
 7729TIP3   OH244601   4.120   0.296   2.572 -0.3615 -0.2301  0.1539
 7729TIP3    H144602   4.157   0.383   2.585 -0.3558 -0.2953  0.5956
 7729TIP3    H244603   4.065   0.281   2.649  0.6477 -1.1380  0.7218
 7730TIP3   OH244604   1.509   0.265  11.703  0.0279  0.0475  0.1611
 7730TIP3    H144605   1.519   0.251  11.609  1.0650  0.6592  0.1710
 7730TIP3    H244606   1.563   0.342  11.722 -1.2322  0.7724  1.0236
 7731TIP3   OH244607   2.015   2.802   6.009 -0.0128  0.1165  0.0829
 7731TIP3    H144608   1.974   2.793   5.923  0.9985  0.1081 -0.4055
 7731TIP3    H244609   2.085   2.737   6.009 -1.0638 -1.0955  1.5727
 7732TIP3   OH244610   2.851   4.982  11.788  0.1436  0.1097  0.0311
 7732TIP3    H144611   2.808   5.048  11.842 -0.5838 -1.4877  1.5180
 7732TIP3    H244612   2.939   4.973  11.826  0.8961  1.4386 -1.2981
 7733TIP3   OH244613   3.300   0.747  13.617  0.0182  0.1157  0.3464
 7733TIP3    H144614   3.348   0.724  13.697 -0.6426 -1.1625  0.3976
 7733TIP3    H244615   3.221   0.792  13.648 -0.3150 -0.5180  0.4399
 7734TIP3   OH244616   3.767   5.485  12.610 -0.5370  0.3194  0.2848
 7734TIP3    H144617   3.765   5.414  12.674 -1.1280  0.4326  0.4028
 7734TIP3    H244618   3.776   5.565  12.662 -0.7782  0.3947  0.2130
 7735TIP3   OH244619   3.300   0.724  12.904  0.0433 -0.1921  0.4871
 7735TIP3    H144620   3.371   0.681  12.856  1.2602  1.2817  0.9031
 7735TIP3    H244621   3.237   0.748  12.836  0.3728 -0.6886 -0.0051
 7736TIP3   OH244622   6.041   2.693  13.095 -0.0491 -0.2206  0.4309
 7736TIP3    H144623   6.118   2.727  13.050 -1.5771  0.5075 -1.8561
 7736TIP3    H244624   6.014   2.765  13.153  1.2492 -0.6943  1.6762
 7737TIP3   OH244625   0.830   3.188   1.017  0.0770 -0.2037 -0.1268
 7737TIP3    H144626   0.850   3.249   1.088  0.2599  1.1404 -1.3023
 7737TIP3    H244627   0.915   3.168   0.978 -0.0604 -0.6500 -0.2045
 7738TIP3   OH244628   4.573   5.455  16.833 -0.0070 -0.0401  0.1910
 7738TIP3    H144629   4.517   5.383  16.806  0.8845  0.3934 -3.4052
 7738TIP3    H244630   4.662   5.421  16.823  0.4094  1.1957 -0.5228
 7739TIP3   OH244631   6.200   4.368   0.283 -0.1838  0.4966  0.2707
 7739TIP3    H144632   6.290   4.338   0.270 -0.3519  0.4075 -0.8565
 7739TIP3    H244633   6.181   4.352   0.375  0.4426 -0.8986  0.1751
 7740TIP3   OH244634   4.493   4.812  12.880 -0.6199  0.8173 -0.2657
 7740TIP3    H144635   4.541   4.737  12.915  0.6115  0.8724 -1.7178
 7740TIP3    H244636   4.411   4.775  12.847 -0.6934  0.3676  0.4145
 7741TIP3   OH244637   2.234   5.570   2.240 -0.5472 -0.0911 -0.4545
 7741TIP3    H144638   2.295   5.525   2.298 -0.5797  1.1977  0.6507
 7741TIP3    H244639   2.160   5.510   2.231 -0.8953 -0.0457  1.5328
 7742TIP3   OH244640   4.351   5.752   3.675  0.6265  0.5195 -0.0821
 7742TIP3    H144641   4.339   5.723   3.766 -2.0329 -1.0891 -0.8412
 7742TIP3    H244642   4.399   5.681   3.634  0.8702  0.7504 -0.1988
 7743TIP3   OH244643   5.950   4.777   5.374 -0.0337 -0.1336  0.5517
 7743TIP3    H144644   5.971   4.742   5.461  0.2247 -1.5097 -0.0450
 7743TIP3    H244645   5.983   4.712   5.313  1.0979  1.4842 -0.6527
 7744TIP3   OH244646   3.378   4.238   2.114  0.3986  0.2886  0.3730
 7744TIP3    H144647   3.472   4.235   2.097  0.1740 -0.5328 -0.8031
 7744TIP3    H244648   3.337   4.206   2.034 -0.9566  1.8697  0.3663
 7745TIP3   OH244649   4.883   4.595   3.134  0.1786 -0.1907 -0.4597
 7745TIP3    H144650   4.913   4.620   3.222  0.0878  0.9885 -0.7411
 7745TIP3    H244651   4.955   4.545   3.097  0.9855  0.8769 -0.3785
 7746TIP3   OH244652   3.027   6.609   5.445 -0.4956  0.2352  0.1264
 7746TIP3    H144653   3.040   6.653   5.361 -0.0339  0.5866  0.3804
 7746TIP3    H244654   2.959   6.662   5.488  0.4104  1.0094  0.6385
 7747TIP3   OH244655   5.135   5.385  17.066 -0.6936  0.0409 -0.2276
 7747TIP3    H144656   5.167   5.457  17.119  0.5948  0.5291 -1.5794
 7747TIP3    H244657   5.197   5.380  16.993 -0.6351 -2.5476 -0.0996
 7748TIP3   OH244658   3.162   2.669   1.903  0.0168 -0.2275 -0.0998
 7748TIP3    H144659   3.116   2.737   1.952  0.7986  1.3616 -1.4643
 7748TIP3    H244660   3.174   2.598   1.965  0.4876  1.4644  1.8287
 7749TIP3   OH244661   2.875   4.996  11.500 -0.2166  0.3548  0.1613
 7749TIP3    H144662   2.942   4.928  11.503  0.5479  1.0709 -0.4743
 7749TIP3    H244663   2.895   5.054  11.573  0.0753  0.7695 -0.2463
 7750TIP3   OH244664   4.815   1.235   6.825 -0.3603 -0.0275 -0.3023
 7750TIP3    H144665   4.789   1.218   6.734 -1.1179  0.1552 -0.1288
 7750TIP3    H244666   4.772   1.317   6.847 -0.6251 -0.3436  0.3870
 7751TIP3   OH244667   5.417   4.570  16.136 -0.8049 -0.5352 -0.2841
 7751TIP3    H144668   5.326   4.540  16.125 -0.2316 -2.3104 -0.4581
 7751TIP3    H244669   5.449   4.523  16.213 -1.3976  3.6239  2.8876
 7752TIP3   OH244670   1.870   6.621  10.292  0.1033 -0.2710 -0.4235
 7752TIP3    H144671   1.784   6.581  10.282 -1.5131  2.3646  1.6774
 7752TIP3    H244672   1.881   6.630  10.387  3.0389 -1.0786 -0.5705
 7753TIP3   OH244673   3.336   6.613   4.017  0.5265 -0.2578  0.3967
 7753TIP3    H144674   3.290   6.581   3.940 -1.7486  3.2623  0.0355
 7753TIP3    H244675   3.266   6.635   4.079  1.9284  1.6520  1.4250
 7754TIP3   OH244676   1.913   0.476   1.096  0.4363 -0.3864 -0.1915
 7754TIP3    H144677   1.882   0.518   1.176  2.2217  0.2948  0.2147
 7754TIP3    H244678   1.982   0.417   1.125  1.8542  0.6558 -1.2660
 7755TIP3   OH244679   3.838   1.473  13.835  0.1858 -0.1736 -0.2902
 7755TIP3    H144680   3.792   1.414  13.896 -0.0366  0.4227  0.1285
 7755TIP3    H244681   3.907   1.512  13.889  1.5267 -1.4368 -1.0354
 7756TIP3   OH244682   6.638   0.401   3.302  0.0538  0.8615 -0.5435
 7756TIP3    H144683   6.625   0.355   3.219 -0.2464  2.5565 -1.4877
 7756TIP3    H244684   6.730   0.388   3.323  0.2966  0.9414 -1.4942
 7757TIP3   OH244685   5.099   4.014   3.429  0.6122 -0.6153 -0.4058
 7757TIP3    H144686   5.023   3.975   3.474  1.1416 -0.5742  0.5690
 7757TIP3    H244687   5.066   4.096   3.392 -0.0284 -1.0246 -0.7583
 7758TIP3   OH244688   0.050   2.610   3.984  0.1641  0.0026  0.2538
 7758TIP3    H144689   0.013   2.621   3.896 -1.6559  0.2772  1.0180
 7758TIP3    H244690   0.041   2.516   4.002 -1.2195  0.2175  0.8419
 7759TIP3   OH244691   1.478   5.501  14.568  0.8389  0.1245 -0.6723
 7759TIP3    H144692   1.408   5.530  14.509  0.1974 -0.5285 -0.2407
 7759TIP3    H244693   1.433   5.479  14.649  1.7339  1.1770  0.1374
 7760TIP3   OH244694   1.441   2.099  12.243 -0.0356 -0.1766 -0.4244
 7760TIP3    H144695   1.421   2.140  12.159 -0.0967 -0.0924 -0.3696
 7760TIP3    H244696   1.535   2.081  12.240 -0.3864 -2.1726 -1.3948
 7761TIP3   OH244697   4.507   4.704  11.352  0.4170 -0.4633  0.6095
 7761TIP3    H144698   4.603   4.710  11.353  0.3204  2.1203 -0.0812
 7761TIP3    H244699   4.477   4.784  11.395 -1.4210 -0.1547 -1.0942
 7762TIP3   OH244700   1.221   0.083  13.894 -0.7698 -0.4722 -0.0456
 7762TIP3    H144701   1.195   0.126  13.813 -0.2856  0.2284  0.1489
 7762TIP3    H244702   1.286   0.018  13.867  0.1810  0.4781 -0.1341
 7763TIP3   OH244703   2.128   6.397  15.773 -0.6001  0.4089  0.0833
 7763TIP3    H144704   2.162   6.396  15.862 -0.2070 -0.4163 -0.0625
 7763TIP3    H244705   2.116   6.304  15.751 -2.0448  0.6442 -0.2090
 7764TIP3   OH244706   1.096   6.620  12.000  0.1424 -0.4005  0.5759
 7764TIP3    H144707   1.056   6.601  12.085 -0.4680 -1.8934 -0.0197
 7764TIP3    H244708   1.067   6.549  11.943 -0.9621  1.4975 -1.3986
 7765TIP3   OH244709   0.310   3.484   1.364 -0.1443  0.2375  0.0436
 7765TIP3    H144710   0.288   3.542   1.291  0.5660  0.2129 -0.1972
 7765TIP3    H244711   0.311   3.540   1.441 -2.5030 -0.0155  0.3269
 7766TIP3   OH244712   4.102   6.771   4.729  0.2937  0.5665  0.5991
 7766TIP3    H144713   4.050   6.697   4.760 -0.9665  1.5564  0.9729
 7766TIP3    H244714   4.188   6.735   4.711 -0.3714 -1.0402  0.4870
 7767TIP3   OH244715   6.497   3.839  13.733 -0.1409 -0.4875  0.3526
 7767TIP3    H144716   6.557   3.807  13.800  0.4918 -0.1065 -0.0223
 7767TIP3    H244717   6.486   3.766  13.672  1.3217 -0.0216 -0.5170
 7768TIP3   OH244718   1.692   2.143  11.184  0.3448  0.1743  0.2896
 7768TIP3    H144719   1.739   2.131  11.102 -2.4503 -0.5277 -1.3432
 7768TIP3    H244720   1.679   2.054  11.218 -1.6668  0.1473 -0.4680
 7769TIP3   OH244721   2.083   4.276  16.701  0.5391  0.4325 -0.4496
 7769TIP3    H144722   2.028   4.202  16.727  1.2167  0.3114  0.7130
 7769TIP3    H244723   2.024   4.351  16.703  0.7030  0.6197  2.5107
 7770TIP3   OH244724   4.859   3.512   3.367 -0.4610  0.2363 -0.0882
 7770TIP3    H144725   4.854   3.547   3.456  0.9730 -0.9725  0.5147
 7770TIP3    H244726   4.786   3.450   3.361  0.3924 -0.9006  0.8492
 7771TIP3   OH244727   4.294   5.701   6.335 -0.2597 -0.1057 -0.0752
 7771TIP3    H144728   4.242   5.654   6.399 -0.8422 -0.1697 -0.5887
 7771TIP3    H244729   4.371   5.731   6.384 -0.3111 -0.8212  0.4606
 7772TIP3   OH244730   5.629   3.873   0.903  0.2401  0.7196 -0.1093
 7772TIP3    H144731   5.681   3.935   0.953 -1.0440 -0.1079  2.4434
 7772TIP3    H244732   5.693   3.816   0.861  1.4654  0.5870  1.8103
 7773TIP3   OH244733   5.175   4.815  16.629 -0.0632  0.5559 -0.0600
 7773TIP3    H144734   5.271   4.812  16.626  0.1760  3.0850  1.8839
 7773TIP3    H244735   5.150   4.876  16.560 -0.1367  1.1600  0.4949
 7774TIP3   OH244736   4.253   3.135   4.254 -0.3553  0.3501  0.0320
 7774TIP3    H144737   4.176   3.156   4.307 -0.3395  1.8371 -0.4934
 7774TIP3    H244738   4.326   3.178   4.299  0.4569 -2.0833  1.2342
 7775TIP3   OH244739   3.457   6.763  10.723 -0.0173 -0.4777  0.1372
 7775TIP3    H144740   3.423   6.781  10.636  0.9460 -1.2930 -0.4300
 7775TIP3    H244741   3.464   6.848  10.765  0.5228  0.0338 -0.9677
 7776TIP3   OH244742   6.228   0.118   5.536  0.2584  0.4751  1.0462
 7776TIP3    H144743   6.240   0.057   5.608 -1.7955 -1.2243  0.0779
 7776TIP3    H244744   6.236   0.064   5.457 -3.4509  0.9064  0.1838
 7777TIP3   OH244745   6.288   3.437   4.928 -0.1495  0.5858  0.1179
 7777TIP3    H144746   6.339   3.515   4.947  0.0397 -0.1429  3.1435
 7777TIP3    H244747   6.259   3.405   5.014 -4.0640 -0.1622 -1.2356
 7778TIP3   OH244748   4.794   5.382  15.447  0.7736 -0.1047  0.1767
 7778TIP3    H144749   4.751   5.301  15.417  0.1480  0.6861 -1.1618
 7778TIP3    H244750   4.728   5.425  15.502  1.1320 -0.5178  0.9472
 7779TIP3   OH244751   3.039   6.360  15.226  0.5908 -0.3223 -0.1150
 7779TIP3    H144752   3.034   6.309  15.307 -0.8395  0.7008  0.4778
 7779TIP3    H244753   3.040   6.294  15.157 -1.6677 -1.1957  0.6100
 7780TIP3   OH244754   5.403   3.022   1.550  0.0351 -0.2003  0.6380
 7780TIP3    H144755   5.341   3.030   1.623 -0.3794 -0.2855  0.3011
 7780TIP3    H244756   5.384   2.936   1.512 -0.2664  0.1528 -0.0314
 7781TIP3   OH244757   0.113   1.977   1.254  0.4490 -0.1121 -0.1591
 7781TIP3    H144758   0.126   1.882   1.243  0.3379  0.0212 -1.7218
 7781TIP3    H244759   0.197   2.009   1.286  0.8465 -0.6114 -0.6690
 7782TIP3   OH244760   2.010   3.544   2.489 -0.4306  0.4219  0.5530
 7782TIP3    H144761   2.095   3.500   2.484 -0.8445 -0.4306  0.8466
 7782TIP3    H244762   2.027   3.625   2.537  0.6311  1.3126 -1.2394
 7783TIP3   OH244763   3.348   1.928   1.582  0.3916  0.0019  0.1852
 7783TIP3    H144764   3.362   1.870   1.657 -3.6980  1.2034  2.1484
 7783TIP3    H244765   3.357   1.871   1.505  3.4876 -1.5381  1.5216
 7784TIP3   OH244766   3.162   6.273  12.615 -0.2650 -0.5808 -0.3607
 7784TIP3    H144767   3.102   6.218  12.565  1.0668 -1.5368 -0.9756
 7784TIP3    H244768   3.220   6.211  12.659  0.2630  0.3145  0.2326
 7785TIP3   OH244769   1.471   5.719  15.379 -0.2869  0.7533  0.0911
 7785TIP3    H144770   1.411   5.726  15.453  0.9392  1.5803  1.0419
 7785TIP3    H244771   1.429   5.769  15.309 -0.4051  1.9143  0.9598
 7786TIP3   OH244772   3.795   0.686  11.932 -0.4732 -0.4819  0.3352
 7786TIP3    H144773   3.881   0.721  11.953 -1.4230  1.0471  1.9550
 7786TIP3    H244774   3.777   0.718  11.843 -0.0821  0.6706  0.6561
 7787TIP3   OH244775   2.552   1.171   5.445  0.4394  0.3501 -0.4402
 7787TIP3    H144776   2.534   1.183   5.352  0.1884  0.2267 -0.4079
 7787TIP3    H244777   2.520   1.251   5.487  0.6964  0.4733 -0.4788
 7788TIP3   OH244778   5.456   4.324   2.096  0.2001  1.0109  0.8333
 7788TIP3    H144779   5.446   4.409   2.138 -0.3168 -0.0194  2.9698
 7788TIP3    H244780   5.367   4.289   2.089  0.4441  0.4520  0.4072
 7789TIP3   OH244781   2.281   4.019   5.803 -0.4930  0.1619 -0.0711
 7789TIP3    H144782   2.258   3.997   5.713 -1.2631 -0.5670  0.2886
 7789TIP3    H244783   2.239   4.104   5.819 -1.4808 -0.3328  0.0121
 7790TIP3   OH244784   2.340   4.248   1.471 -0.1639  0.0044 -0.3186
 7790TIP3    H144785   2.253   4.209   1.460  0.1976 -1.1731  0.7311
 7790TIP3    H244786   2.400   4.175   1.455  0.6045  0.6488 -0.3802
 7791TIP3   OH244787   5.999   3.182  11.676 -0.5192  1.1032 -0.7550
 7791TIP3    H144788   6.008   3.156  11.767 -1.7730 -0.7626 -1.1139
 7791TIP3    H244789   5.977   3.101  11.630  2.6057  1.4452 -3.1573
 7792TIP3   OH244790   4.537   2.991  15.665 -0.1103 -0.3030 -0.5322
 7792TIP3    H144791   4.456   2.957  15.703  0.4417  0.6725  1.6429
 7792TIP3    H244792   4.606   2.937  15.702  0.4576  0.7072 -0.0842
 7793TIP3   OH244793   1.177   0.143   1.780 -0.3995  0.3359 -0.3399
 7793TIP3    H144794   1.101   0.183   1.739 -0.4868 -1.0904 -1.6748
 7793TIP3    H244795   1.249   0.162   1.720 -0.1448 -0.1612 -0.1960
 7794TIP3   OH244796   3.168   2.944   0.511 -0.6537 -0.7712 -0.5874
 7794TIP3    H144797   3.263   2.948   0.502 -0.8230  0.6380 -2.1105
 7794TIP3    H244798   3.144   3.025   0.556 -1.3134  0.0268 -2.3084
 7795TIP3   OH244799   1.707   5.831   5.428  0.5134 -0.0057  0.0065
 7795TIP3    H144800   1.646   5.874   5.369 -0.5201  0.4935  1.3947
 7795TIP3    H244801   1.728   5.897   5.494  1.9189 -0.4379  0.0324
 7796TIP3   OH244802   5.255   4.164   1.371 -0.6588  0.2902 -0.2975
 7796TIP3    H144803   5.223   4.184   1.459 -0.1275 -1.0713  0.2340
 7796TIP3    H244804   5.346   4.194   1.372 -0.8802  0.9786 -0.6458
 7797TIP3   OH244805   2.776   5.078  13.585 -0.1321 -0.1169  0.0492
 7797TIP3    H144806   2.843   5.013  13.564  1.7717  1.8269 -0.1841
 7797TIP3    H244807   2.706   5.062  13.521  1.6561 -0.0030 -2.0366
 7798TIP3   OH244808   4.339   3.680  11.800 -0.2320  0.6560  0.1738
 7798TIP3    H144809   4.360   3.749  11.863 -0.4783 -0.8148  1.9381
 7798TIP3    H244810   4.418   3.674  11.745  0.2097  1.5999  0.6785
 7799TIP3   OH244811   5.033   5.330   3.200 -0.9009 -0.3392 -0.2187
 7799TIP3    H144812   5.079   5.408   3.233 -1.8176  0.7702 -1.4455
 7799TIP3    H244813   4.980   5.301   3.274 -0.0701 -0.1966  0.4565
 7800TIP3   OH244814   2.158   2.997   1.264 -0.0531  0.1520 -0.5038
 7800TIP3    H144815   2.114   3.038   1.190  2.8097  2.1378 -1.2730
 7800TIP3    H244816   2.087   2.965   1.320 -2.3364  0.7976 -2.8744
 7801TIP3   OH244817   2.963   2.263   1.315 -0.0975  0.3955 -0.0687
 7801TIP3    H144818   2.874   2.294   1.332 -0.5550 -0.6581 -0.4384
 7801TIP3    H244819   3.016   2.304   1.383 -1.0459  0.1941  0.8286
 7802TIP3   OH244820   4.027   3.473   1.242 -0.3795  0.0756  0.2859
 7802TIP3    H144821   3.992   3.404   1.185 -2.4147  1.1383  0.1344
 7802TIP3    H244822   4.118   3.449   1.255 -0.4938 -1.5565 -1.3794
 7803TIP3   OH244823   4.583   3.594   0.606 -0.1608  0.5363 -0.5723
 7803TIP3    H144824   4.650   3.545   0.558 -0.6120 -0.0554 -0.6154
 7803TIP3    H244825   4.618   3.603   0.695 -1.7593 -3.5618  0.7150
 7804TIP3   OH244826   4.054   2.008  11.685 -0.7575  0.0954  0.3532
 7804TIP3    H144827   4.009   2.075  11.737 -0.7714  0.5833 -0.2702
 7804TIP3    H244828   4.072   2.051  11.602  0.4242 -0.2486  0.4065
 7805TIP3   OH244829   5.933   5.339   0.925 -0.2612 -0.2237  0.9595
 7805TIP3    H144830   5.972   5.402   0.865 -4.5474 -0.0450 -2.1675
 7805TIP3    H244831   5.896   5.392   0.995 -1.8879  0.6804 -0.4818
 7806TIP3   OH244832   1.253   4.687   1.121 -0.2321  0.4440  0.4754
 7806TIP3    H144833   1.193   4.756   1.147  0.2446  0.1417  2.5709
 7806TIP3    H244834   1.255   4.691   1.026 -0.7292  2.8654  0.5055
 7807TIP3   OH244835   4.712   5.165   2.079  0.3263 -0.1598 -0.1595
 7807TIP3    H144836   4.673   5.079   2.093 -0.0337  0.2709  1.7039
 7807TIP3    H244837   4.638   5.222   2.056  0.8099 -0.7045 -3.7546
 7808TIP3   OH244838   0.968   0.724  12.055 -0.6246  0.2407 -0.1535
 7808TIP3    H144839   1.005   0.670  11.986 -2.4631 -0.0911 -0.9482
 7808TIP3    H244840   1.016   0.807  12.050  1.0482 -0.6872 -0.0578
 7809TIP3   OH244841   5.136   4.011  14.734 -0.0478 -0.0301 -0.5882
 7809TIP3    H144842   5.045   3.998  14.760  0.5611 -0.3036  1.6112
 7809TIP3    H244843   5.156   3.934  14.681 -0.7537 -0.6250 -0.0243
 7810TIP3   OH244844   5.491   6.633   5.698 -0.3638  0.4543 -0.1704
 7810TIP3    H144845   5.487   6.713   5.646  1.1067  1.3272  0.9968
 7810TIP3    H244846   5.447   6.654   5.780  0.8360  0.3862  0.5123
 7811TIP3   OH244847   2.813   0.779   0.418 -0.4401  0.3306 -0.3506
 7811TIP3    H144848   2.833   0.737   0.334 -1.9412  1.0773 -1.1272
 7811TIP3    H244849   2.898   0.798   0.456  0.3219  1.3459 -2.4205
 7812TIP3   OH244850   1.820   2.912   4.141 -0.0235 -0.0583 -0.1405
 7812TIP3    H144851   1.902   2.863   4.127  0.0183 -0.0049 -0.0798
 7812TIP3    H244852   1.786   2.878   4.224 -0.2355 -0.3228 -0.3314
 7813TIP3   OH244853   6.083   6.206   5.266  0.5532 -0.2686  0.0538
 7813TIP3    H144854   6.063   6.113   5.258  1.0594 -0.4630  0.8795
 7813TIP3    H244855   6.161   6.219   5.213  0.8373 -0.4438  0.4271
 7814TIP3   OH244856   3.058   0.763   5.657 -0.1636  0.3382  0.0830
 7814TIP3    H144857   3.073   0.716   5.739 -0.6412  0.7117  0.3940
 7814TIP3    H244858   2.971   0.735   5.630  0.6679 -1.1370 -1.2323
 7815TIP3   OH244859   5.636   6.197  13.423  0.2865  0.2407 -0.1391
 7815TIP3    H144860   5.642   6.130  13.490  3.3500  0.0953 -0.4187
 7815TIP3    H244861   5.575   6.162  13.358  2.1089 -2.5309 -0.4932
 7816TIP3   OH244862   2.709   4.270  12.565  0.2161 -0.1696 -0.7160
 7816TIP3    H144863   2.758   4.352  12.554  0.0105 -0.2200 -2.3263
 7816TIP3    H244864   2.777   4.203  12.571  0.3875  0.1000  0.6831
 7817TIP3   OH244865   4.202   1.279  15.103 -0.0226 -0.5239 -0.1683
 7817TIP3    H144866   4.290   1.317  15.107  0.2195 -0.9414 -1.1344
 7817TIP3    H244867   4.207   1.199  15.155  0.6455 -1.4059 -1.5329
 7818TIP3   OH244868   1.464   5.490   2.259 -0.5248  0.1892 -0.8205
 7818TIP3    H144869   1.479   5.461   2.349 -0.6425  1.1344 -0.4848
 7818TIP3    H244870   1.391   5.436   2.228  0.0504 -0.7150 -0.6434
 7819TIP3   OH244871   6.772   5.743   0.864  0.0892 -0.4121 -0.4070
 7819TIP3    H144872   6.756   5.721   0.772 -1.7461  3.0969 -1.0755
 7819TIP3    H244873   6.859   5.783   0.864  0.4008 -1.0771 -0.4631
 7820TIP3   OH244874   4.329   0.276   6.048  0.3100 -0.1069  0.4367
 7820TIP3    H144875   4.239   0.306   6.041 -0.2671 -1.8604 -0.1630
 7820TIP3    H244876   4.352   0.289   6.140 -0.6274  0.1525  0.6428
 7821TIP3   OH244877   3.253   1.107   0.591 -0.2942  0.3569  0.8746
 7821TIP3    H144878   3.288   1.032   0.543  2.5875  1.6820  0.6821
 7821TIP3    H244879   3.203   1.155   0.526  2.4330  1.4157 -0.6376
 7822TIP3   OH244880   4.618   5.818   4.290  0.1542 -0.8117  0.7925
 7822TIP3    H144881   4.713   5.824   4.300  0.1956  0.1287 -0.0229
 7822TIP3    H244882   4.605   5.741   4.234  0.5851  0.1606 -0.7157
 7823TIP3   OH244883   0.106   5.773  16.879  0.2304 -0.2000  0.7113
 7823TIP3    H144884   0.029   5.729  16.844 -0.4636  0.3473  1.5281
 7823TIP3    H244885   0.108   5.857  16.833  1.2097 -0.7876 -0.3985
 7824TIP3   OH244886   2.030   2.764  12.924  0.0685 -0.0413 -0.2259
 7824TIP3    H144887   1.958   2.805  12.877 -0.3281  0.0033  0.4169
 7824TIP3    H244888   2.109   2.799  12.882 -0.2833 -0.0296 -0.8762
 7825TIP3   OH244889   4.030   2.162   0.288  0.5889  0.1670  0.4211
 7825TIP3    H144890   4.116   2.198   0.309  0.1731  0.3631  1.8664
 7825TIP3    H244891   4.024   2.081   0.338  1.6956 -2.3769 -3.1460
 7826TIP3   OH244892   0.265   4.272   5.308 -0.1416 -0.4835 -0.0583
 7826TIP3    H144893   0.351   4.275   5.349 -0.3070  0.1428  0.2458
 7826TIP3    H244894   0.279   4.303   5.219  0.0398 -0.9071 -0.1814
 7827TIP3   OH244895   0.672   1.985   5.625 -0.3211  0.3319 -0.2126
 7827TIP3    H144896   0.607   2.048   5.594  2.1618  3.1625 -0.1305
 7827TIP3    H244897   0.667   1.991   5.721  0.1442  0.6731 -0.2074
 7828TIP3   OH244898   3.470   0.348   4.682 -0.3093  0.0296  0.9146
 7828TIP3    H144899   3.503   0.326   4.769  0.4737  2.8210  1.4108
 7828TIP3    H244900   3.492   0.440   4.670 -1.3196  0.0109 -1.8468
 7829TIP3   OH244901   1.344   4.855  14.475 -0.7186  0.2126  0.3143
 7829TIP3    H144902   1.276   4.811  14.424 -1.0449  1.1851 -0.1076
 7829TIP3    H244903   1.416   4.792  14.478 -0.5328  0.2726 -1.6867
 7830TIP3   OH244904   1.897   2.950  11.283  0.1282  0.1381  0.1222
 7830TIP3    H144905   1.934   2.997  11.208  0.5265 -0.7869 -0.2772
 7830TIP3    H244906   1.967   2.890  11.310 -0.3921 -0.2656  0.5853
 7831TIP3   OH244907   2.293   6.465   0.377 -0.1775 -0.1180 -0.2102
 7831TIP3    H144908   2.199   6.484   0.373 -0.2196 -0.1795  0.4515
 7831TIP3    H244909   2.315   6.436   0.289 -0.7615 -0.0131 -0.3950
 7832TIP3   OH244910   4.567   2.687  15.360 -0.5134 -0.1927 -0.6766
 7832TIP3    H144911   4.615   2.769  15.367  0.2580 -0.7541  1.4975
 7832TIP3    H244912   4.576   2.660  15.269  2.1618  0.4139 -0.6529
 7833TIP3   OH244913   1.783   1.988   3.054  0.1804  0.2356  0.0235
 7833TIP3    H144914   1.801   1.970   2.962 -1.5646  0.7790 -0.4557
 7833TIP3    H244915   1.778   1.901   3.095 -3.2557 -0.3416 -1.2907
 7834TIP3   OH244916   2.319   1.805  14.629 -0.5721 -0.2175 -0.8453
 7834TIP3    H144917   2.266   1.870  14.582 -3.6698  0.6939  3.3279
 7834TIP3    H244918   2.271   1.723  14.617 -1.9993  0.2245  1.3208
 7835TIP3   OH244919   2.283   6.230   1.012  0.3702 -0.1526 -0.2054
 7835TIP3    H144920   2.241   6.177   1.079 -1.5358  0.6850 -0.6586
 7835TIP3    H244921   2.237   6.207   0.931  1.0082  0.5812 -0.7953
 7836TIP3   OH244922   1.827   4.968  15.155  0.9165 -0.3565 -0.0497
 7836TIP3    H144923   1.741   4.933  15.131  0.6905  0.0690  0.1377
 7836TIP3    H244924   1.826   5.059  15.125  1.1280 -0.2139  0.3672
 7837TIP3   OH244925   2.980   1.695  15.063 -0.2557 -0.4175 -0.0258
 7837TIP3    H144926   3.050   1.750  15.098 -1.5085  0.9219  0.4956
 7837TIP3    H244927   2.974   1.622  15.124 -0.2795  0.2171  0.7526
 7838TIP3   OH244928   3.080   0.821   0.513  0.2864  0.2765 -0.0651
 7838TIP3    H144929   3.094   0.726   0.518  1.6333  0.5067  1.3415
 7838TIP3    H244930   3.049   0.845   0.601 -0.5188  1.1001 -0.5516
 7839TIP3   OH244931   4.435   5.682   1.742 -0.3805 -0.3235  0.0046
 7839TIP3    H144932   4.402   5.703   1.829 -0.5911  0.6443 -0.3037
 7839TIP3    H244933   4.530   5.689   1.751 -0.4661  2.3461 -0.4470
 7840TIP3   OH244934   2.675   6.261   5.794  0.1157  0.2871  0.1092
 7840TIP3    H144935   2.593   6.212   5.802 -0.7400  1.7142  0.3676
 7840TIP3    H244936   2.735   6.217   5.855 -0.5504 -0.5550  0.1766
 7841TIP3   OH244937   4.528   3.691   5.479  0.2333 -0.0166  0.0138
 7841TIP3    H144938   4.587   3.643   5.421  1.9191  1.5654  0.3184
 7841TIP3    H244939   4.504   3.628   5.547  2.6036 -0.4206  0.5669
 7842TIP3   OH244940   2.289   0.579  14.383  0.1110  0.1706 -0.3463
 7842TIP3    H144941   2.247   0.552  14.301 -1.4032  3.0361 -0.6542
 7842TIP3    H244942   2.375   0.613  14.355  0.3132 -0.4552 -0.4990
 7843TIP3   OH244943   6.531   2.083   5.627  0.1399  0.0962  0.5328
 7843TIP3    H144944   6.468   2.142   5.668 -0.5717 -0.3894  0.1466
 7843TIP3    H244945   6.563   2.131   5.551 -1.0825 -0.3501 -0.2725
 7844TIP3   OH244946   3.316   4.114   1.880  0.4989  0.8797 -0.2002
 7844TIP3    H144947   3.256   4.040   1.869  0.8753  0.2643  1.6335
 7844TIP3    H244948   3.295   4.173   1.807 -2.2898  0.6680  0.3478
 7845TIP3   OH244949   0.556   2.864   5.396 -0.7842  0.3238 -0.0381
 7845TIP3    H144950   0.630   2.815   5.433 -0.5577 -0.0001 -0.9076
 7845TIP3    H244951   0.479   2.826   5.439 -0.6540 -1.1369 -1.0131
 7846TIP3   OH244952   6.319   2.762   5.500 -0.2523 -0.3543  0.7255
 7846TIP3    H144953   6.227   2.767   5.474 -0.3388  3.6272  1.1826
 7846TIP3    H244954   6.321   2.800   5.588  2.0524  2.0195 -0.2227
 7847TIP3   OH244955   6.318   5.510  15.233 -0.1882 -0.2039 -0.0971
 7847TIP3    H144956   6.375   5.583  15.257 -0.3337 -0.7764  2.2270
 7847TIP3    H244957   6.371   5.456  15.175  0.4871  0.9108 -0.5368
 7848TIP3   OH244958   1.739   5.371  12.386  0.5021  1.0005  0.2167
 7848TIP3    H144959   1.737   5.425  12.307  0.1084  1.4741  0.5451
 7848TIP3    H244960   1.724   5.282  12.355  1.1432  1.0771 -0.3289
 7849TIP3   OH244961   5.855   1.005  12.302 -0.2519  0.3632 -0.0858
 7849TIP3    H144962   5.923   1.072  12.302  0.3683 -0.2090 -1.9081
 7849TIP3    H244963   5.902   0.923  12.293 -1.1348 -0.0906 -0.7494
 7850TIP3   OH244964   4.034   5.312  13.647  0.2633  0.3333  0.0985
 7850TIP3    H144965   3.983   5.392  13.652  0.3739  0.3288  1.8665
 7850TIP3    H244966   4.051   5.300  13.553 -2.1766  0.8110 -0.4785
 7851TIP3   OH244967   6.552   2.446  14.687  0.8041  0.2917  0.4909
 7851TIP3    H144968   6.545   2.401  14.771  1.2610  0.2477  0.5093
 7851TIP3    H244969   6.485   2.514  14.690  1.4951  0.9593  1.3173
 7852TIP3   OH244970   5.077   1.540  15.245 -0.1679  0.1083 -0.2620
 7852TIP3    H144971   5.042   1.627  15.222 -1.1724 -0.2197 -0.0350
 7852TIP3    H244972   5.060   1.487  15.167  1.7796  0.4484 -0.9838
 7853TIP3   OH244973   5.537   0.722  11.888 -0.0263  0.1231  0.2541
 7853TIP3    H144974   5.557   0.731  11.981  0.0076 -1.7835  0.4749
 7853TIP3    H244975   5.499   0.634  11.880  1.9176 -0.6347 -1.8134
 7854TIP3   OH244976   1.061   4.919  11.145 -0.2029 -0.0302 -0.2354
 7854TIP3    H144977   1.108   4.944  11.066 -0.2776 -0.0779 -0.2946
 7854TIP3    H244978   0.970   4.911  11.118 -0.4058  1.0098  0.0906
 7855TIP3   OH244979   6.100   4.936  15.427  0.1317 -0.2092 -0.0147
 7855TIP3    H144980   6.131   5.016  15.385 -1.8801  0.8479  0.3590
 7855TIP3    H244981   6.023   4.964  15.477 -0.1245 -2.2338  0.8295
 7856TIP3   OH244982   2.433   6.362   1.854 -0.0481 -0.1056 -0.2736
 7856TIP3    H144983   2.424   6.267   1.855 -1.9315 -0.0418 -2.6401
 7856TIP3    H244984   2.367   6.392   1.792 -0.1089  2.8529  1.0533
 7857TIP3   OH244985   6.008   0.037  13.804  0.4390  0.1033  0.3496
 7857TIP3    H144986   5.980   0.107  13.746 -0.2938 -0.0965  0.4517
 7857TIP3    H244987   6.047   0.082  13.879  3.7477  0.3694 -1.3393
 7858TIP3   OH244988   3.738   3.908  15.207 -0.5533  0.4911 -0.5598
 7858TIP3    H144989   3.795   3.981  15.184 -0.9064  1.0288  0.2030
 7858TIP3    H244990   3.654   3.949  15.228 -1.2034 -0.2792 -1.5871
 7859TIP3   OH244991   2.589   2.461   5.553  0.3268  0.2125  0.4215
 7859TIP3    H144992   2.653   2.525   5.523  0.5673 -1.1882 -2.3420
 7859TIP3    H244993   2.626   2.376   5.530 -1.6848 -0.7351  0.4311
 7860TIP3   OH244994   4.099   2.981   2.251 -0.2366 -0.3245  0.0269
 7860TIP3    H144995   4.152   3.056   2.226 -0.4646 -0.3324 -0.4960
 7860TIP3    H244996   4.011   3.002   2.220  0.1219 -1.7413 -2.1310
 7861TIP3   OH244997   0.046   2.824  16.561  0.7873 -0.0895  0.1261
 7861TIP3    H144998  -0.034   2.869  16.536 -1.0597 -1.0493  3.5744
 7861TIP3    H244999   0.079   2.874  16.635  1.6372 -1.4068  0.6714
 7862TIP3   OH245000   6.650   2.103   3.448  0.0648 -0.2205 -0.1717
 7862TIP3    H145001   6.694   2.070   3.369  0.4290  1.1772 -0.5710
 7862TIP3    H245002   6.576   2.154   3.415  0.6103  0.9409  0.3439
 7863TIP3   OH245003   5.007   4.739   3.641 -0.3370 -0.3438  0.4736
 7863TIP3    H145004   5.101   4.726   3.632 -0.5629 -1.9482  0.2576
 7863TIP3    H245005   4.984   4.695   3.722 -0.7150  1.2263  1.2601
 7864TIP3   OH245006   2.627   0.879  16.136  0.3749 -0.2532 -0.4216
 7864TIP3    H145007   2.648   0.956  16.189  0.0507 -1.0737  0.9314
 7864TIP3    H245008   2.700   0.819  16.150 -1.0935 -1.7052  1.5649
 7865TIP3   OH245009   3.252   5.767  15.807 -0.4490 -0.2853 -0.5241
 7865TIP3    H145010   3.215   5.720  15.733 -0.3948 -1.0249 -0.0880
 7865TIP3    H245011   3.177   5.791  15.862 -0.4554 -0.0726 -0.6260
 7866TIP3   OH245012   6.619   0.463  11.472 -0.5308  0.0186  0.9857
 7866TIP3    H145013   6.526   0.485  11.470 -0.6823 -0.5078  1.6769
 7866TIP3    H245014   6.664   0.546  11.455 -1.1319  0.0055 -0.8272
 7867TIP3   OH245015   6.719   1.649  12.682  0.4218  0.0063 -0.3663
 7867TIP3    H145016   6.663   1.724  12.701 -1.5767 -1.2218 -1.0026
 7867TIP3    H245017   6.744   1.661  12.590 -0.8523 -0.6347 -0.8216
 7868TIP3   OH245018   3.617   0.009   2.567 -0.2050  0.4215 -0.3596
 7868TIP3    H145019   3.641  -0.024   2.654 -1.2887 -0.3031 -0.3176
 7868TIP3    H245020   3.525   0.036   2.575 -0.8484 -1.1793 -1.6691
 7869TIP3   OH245021   4.749   3.758  15.840  0.2150 -0.3961  0.5753
 7869TIP3    H145022   4.692   3.724  15.770 -0.0097  0.5316  0.2887
 7869TIP3    H245023   4.689   3.780  15.911  0.3432 -0.5218  0.7210
 7870TIP3   OH245024   6.029   3.330   1.624  0.0177  0.3027  0.1051
 7870TIP3    H145025   6.095   3.271   1.589 -0.6317 -0.8080  0.7153
 7870TIP3    H245026   6.041   3.411   1.574  1.2396 -0.1689 -0.4060
 7871TIP3   OH245027   4.478   4.736  14.976 -0.3766  0.5670 -0.4231
 7871TIP3    H145028   4.513   4.658  15.019 -0.2636  0.1037 -1.3360
 7871TIP3    H245029   4.515   4.809  15.025  0.2709  0.0591 -0.1396
 7872TIP3   OH245030   3.675   4.265   5.055  0.4489 -0.1852 -0.4395
 7872TIP3    H145031   3.757   4.218   5.046 -0.0613 -1.6101  1.6185
 7872TIP3    H245032   3.629   4.250   4.973  1.6722 -0.5019 -1.0858
 7873TIP3   OH245033   0.196   6.034  15.721  0.2017  0.1654 -0.4676
 7873TIP3    H145034   0.292   6.031  15.715  0.1662  1.4540 -3.0516
 7873TIP3    H245035   0.166   6.023  15.631 -2.1768 -1.2136  0.4003
 7874TIP3   OH245036   3.341   3.517  17.168 -0.1569 -0.2432  0.4170
 7874TIP3    H145037   3.357   3.437  17.118  0.6904  0.4298 -0.4418
 7874TIP3    H245038   3.280   3.491  17.237  0.6605 -1.7851  0.6073
 7875TIP3   OH245039   6.046   1.551   4.812 -0.0107  0.5001  0.0934
 7875TIP3    H145040   6.082   1.594   4.890  1.2581  0.4267 -0.4209
 7875TIP3    H245041   6.058   1.614   4.742 -1.6154  0.7616  0.0351
 7876TIP3   OH245042   3.367   0.346   4.265 -0.3545  0.4626  0.0526
 7876TIP3    H145043   3.331   0.280   4.324  0.5187  1.0105  1.2450
 7876TIP3    H245044   3.315   0.425   4.283 -1.3713  0.1554 -1.3380
 7877TIP3   OH245045   1.111   6.573  14.454 -0.3247 -0.4179 -0.5034
 7877TIP3    H145046   1.075   6.643  14.399 -1.0565 -1.1226 -0.9394
 7877TIP3    H245047   1.205   6.588  14.454 -0.4010  0.0919 -1.2478
 7878TIP3   OH245048   3.116   1.502  11.902 -0.2482  0.0792  0.3820
 7878TIP3    H145049   3.100   1.486  11.809  0.4002  0.8918  0.1100
 7878TIP3    H245050   3.031   1.530  11.937 -0.7269 -1.2011  0.2676
 7879TIP3   OH245051   1.816   3.667   5.571 -0.3816 -0.6756 -0.3071
 7879TIP3    H145052   1.756   3.741   5.578  0.1724  0.0027 -2.1936
 7879TIP3    H245053   1.844   3.650   5.661 -1.5096  0.5649  0.3084
 7880TIP3   OH245054   1.030   0.965  12.120  0.0357  0.1899  0.2680
 7880TIP3    H145055   0.957   1.005  12.168  0.9130 -0.8356  2.5808
 7880TIP3    H245056   1.108   1.003  12.160  0.8152 -0.0963 -0.9417
 7881TIP3   OH245057   4.726   1.237   2.892  0.2190  0.5375 -1.0821
 7881TIP3    H145058   4.811   1.248   2.934  0.2323  0.1046 -0.9929
 7881TIP3    H245059   4.697   1.150   2.919 -1.3995  1.6283  1.0157
 7882TIP3   OH245060   4.977   1.857   3.582  0.0504 -0.0762  0.1700
 7882TIP3    H145061   4.886   1.874   3.561 -0.3211  0.0950  1.7723
 7882TIP3    H245062   4.975   1.783   3.643  1.2872 -2.7065 -2.6925
 7883TIP3   OH245063   4.837   2.223   2.196  0.3962 -0.1854 -0.0158
 7883TIP3    H145064   4.782   2.150   2.226 -0.4602  0.1515 -0.7575
 7883TIP3    H245065   4.783   2.270   2.133  0.9933  1.0273  0.3570
 7884TIP3   OH245066   6.675   6.259   4.810  0.2766  0.1957  0.1651
 7884TIP3    H145067   6.634   6.204   4.744 -2.3471  1.6521  0.4420
 7884TIP3    H245068   6.717   6.330   4.760  1.9053 -0.8658 -0.0700
 7885TIP3   OH245069   6.209   0.172   0.977 -0.3728  0.3463 -1.1346
 7885TIP3    H145070   6.139   0.141   0.919 -1.8854  0.2257  0.6510
 7885TIP3    H245071   6.182   0.261   1.001  0.1030  0.3111 -0.4474
 7886TIP3   OH245072   2.586   6.670   2.664 -0.9647  0.0793  0.1891
 7886TIP3    H145073   2.673   6.699   2.636 -1.4691 -0.3813 -2.0103
 7886TIP3    H245074   2.602   6.587   2.709  0.0976  1.8539  3.4010
 7887TIP3   OH245075   6.006   6.202  14.545 -0.1968 -0.0529 -0.3715
 7887TIP3    H145076   5.934   6.152  14.585 -1.9797  2.0463 -0.7441
 7887TIP3    H245077   6.035   6.261  14.613  0.1377  0.1494 -0.6886
 7888TIP3   OH245078   5.467   5.481  13.420 -0.0033 -0.6796 -0.0403
 7888TIP3    H145079   5.481   5.398  13.466  1.0416 -2.1884 -2.8373
 7888TIP3    H245080   5.373   5.483  13.402 -0.1526 -0.8783  0.6883
 7889TIP3   OH245081   3.939   3.788   4.931  0.2587  0.1236  0.4116
 7889TIP3    H145082   3.888   3.736   4.993 -1.4410 -2.2206 -2.6713
 7889TIP3    H245083   4.027   3.751   4.935 -0.2042 -1.0219  0.3974
 7890TIP3   OH245084   0.593   2.797   2.906 -0.1958 -0.2335 -0.0053
 7890TIP3    H145085   0.622   2.737   2.975 -0.5503  1.5390  1.7531
 7890TIP3    H245086   0.500   2.778   2.894 -0.4391  0.3173  0.9446
 7891TIP3   OH245087   0.990   4.863   4.789 -0.3972  0.6065 -0.1153
 7891TIP3    H145088   0.998   4.922   4.864  1.2209  0.8525 -0.4462
 7891TIP3    H245089   0.956   4.781   4.827 -0.8794  1.1468  0.6500
 7892TIP3   OH245090   5.424   0.423  14.187  0.0625  0.0604 -0.2502
 7892TIP3    H145091   5.406   0.470  14.268 -0.2925 -0.2882 -0.1267
 7892TIP3    H245092   5.382   0.338  14.198 -1.4140  0.5873 -1.4454
 7893TIP3   OH245093   1.155   2.684   1.033  0.2606 -0.0956 -0.0324
 7893TIP3    H145094   1.102   2.614   1.072 -0.6554  0.5607 -0.0548
 7893TIP3    H245095   1.162   2.749   1.103  0.7674 -0.0313 -0.1434
 7894TIP3   OH245096   0.048   0.448   2.749 -0.1454  0.4734 -0.5043
 7894TIP3    H145097   0.049   0.536   2.787 -0.5034 -0.2978  1.4127
 7894TIP3    H245098   0.127   0.407   2.782 -1.2909 -0.7661  0.8326
 7895TIP3   OH245099   1.462   4.555   5.477 -0.5904  0.3148  0.0738
 7895TIP3    H145100   1.537   4.608   5.502 -1.0847  1.1139 -0.1238
 7895TIP3    H245101   1.389   4.590   5.528 -0.9067 -0.2485  0.0280
 7896TIP3   OH245102   3.662   5.268  12.044 -0.2284 -0.0310 -0.7079
 7896TIP3    H145103   3.744   5.223  12.064 -0.9725 -0.2252  2.5113
 7896TIP3    H245104   3.689   5.355  12.015  1.1504 -0.2674 -0.2305
 7897TIP3   OH245105   3.685   3.968   0.597 -0.5192 -0.1612  0.2160
 7897TIP3    H145106   3.690   3.885   0.549 -1.1397  0.4945 -1.0246
 7897TIP3    H245107   3.661   4.033   0.530 -0.6021  0.9223  1.2734
 7898TIP3   OH245108   6.376   2.470  16.048 -0.1741 -0.3541  0.1225
 7898TIP3    H145109   6.307   2.461  15.982 -0.0599  0.6501 -0.1482
 7898TIP3    H245110   6.457   2.455  15.999 -0.2088 -2.7949  0.6782
 7899TIP3   OH245111   0.833   1.645  13.031  0.3006  0.0608  0.2254
 7899TIP3    H145112   0.791   1.605  12.954  2.1461 -0.8214 -0.3701
 7899TIP3    H245113   0.785   1.608  13.105 -1.0755  0.4025 -0.4602
 7900TIP3   OH245114   0.772   5.720   1.558  0.6829 -0.1560 -0.1163
 7900TIP3    H145115   0.770   5.815   1.562 -1.2394 -0.1926  1.9735
 7900TIP3    H245116   0.818   5.700   1.476  0.9010  2.5320 -0.7396
 7901TIP3   OH245117   0.497   2.032   2.189 -0.2081 -0.5755 -0.0294
 7901TIP3    H145118   0.446   1.965   2.143 -3.5101  0.7733  1.2925
 7901TIP3    H245119   0.457   2.115   2.162 -0.1495  0.4448  2.6989
 7902TIP3   OH245120   1.921   1.758   0.068 -0.1758  0.5291 -0.1903
 7902TIP3    H145121   2.014   1.732   0.073  0.2227  1.9606  0.1248
 7902TIP3    H245122   1.917   1.841   0.114 -1.9887 -0.4144  1.4920
 7903TIP3   OH245123   2.653   0.594   6.216 -0.4668 -0.0004  0.2831
 7903TIP3    H145124   2.679   0.555   6.299 -0.3587  0.2345  0.3611
 7903TIP3    H245125   2.652   0.521   6.154 -1.5412 -0.3758  0.7019
 7904TIP3   OH245126   0.128   5.513   2.240 -0.6489  0.3356  0.5564
 7904TIP3    H145127   0.178   5.517   2.321 -1.9488  0.0468  1.4134
 7904TIP3    H245128   0.190   5.480   2.175  0.1813 -0.3113  1.6333
 7905TIP3   OH245129   1.827   3.613  14.112  0.0904 -0.3248 -1.0483
 7905TIP3    H145130   1.886   3.615  14.187  0.4121  0.9219 -1.3135
 7905TIP3    H245131   1.744   3.648  14.146  0.3439  0.5868 -1.3527
 7906TIP3   OH245132   1.011   1.091  14.328  0.0749  0.2840  0.2803
 7906TIP3    H145133   0.984   1.152  14.260  0.0036 -0.6449 -0.5476
 7906TIP3    H245134   1.064   1.026  14.282  1.1379  0.3755  1.3511
 7907TIP3   OH245135   6.350   1.269  14.293 -0.3647 -0.1822 -0.2428
 7907TIP3    H145136   6.336   1.291  14.385  0.0569  0.0337 -0.2274
 7907TIP3    H245137   6.377   1.178  14.293  1.3711  0.2950  0.0182
 7908TIP3   OH245138   5.333   3.689   5.737  0.0240 -0.4153 -0.3093
 7908TIP3    H145139   5.418   3.711   5.775 -0.2433  1.2973 -0.6003
 7908TIP3    H245140   5.280   3.769   5.749 -1.0043 -0.8629 -1.6046
 7909TIP3   OH245141   4.034   0.953   2.147  0.1159 -0.1882  0.1623
 7909TIP3    H145142   4.072   1.039   2.165  0.1079  0.5121 -2.6304
 7909TIP3    H245143   3.946   0.957   2.183  0.1453  0.9491  0.1310
 7910TIP3   OH245144   5.806   6.303  14.832 -0.9460  0.3438 -0.1469
 7910TIP3    H145145   5.717   6.333  14.810 -0.1784  0.7665 -3.0960
 7910TIP3    H245146   5.809   6.213  14.799  0.0577  0.7622 -1.2885
 7911TIP3   OH245147   5.396   2.508   5.674 -0.2830  0.0341  0.0178
 7911TIP3    H145148   5.438   2.469   5.597  0.6653 -0.9063  0.9869
 7911TIP3    H245149   5.305   2.522   5.647 -0.9889 -3.7545 -0.1389
 7912TIP3   OH245150   4.460   6.590   3.520  0.1490  0.4415 -0.3649
 7912TIP3    H145151   4.387   6.646   3.543  0.9210  0.6615  1.6915
 7912TIP3    H245152   4.517   6.645   3.466 -0.6830  0.5614 -1.1529
 7913TIP3   OH245153   3.918   5.248  14.253  0.0891  0.1232 -0.5354
 7913TIP3    H145154   3.893   5.294  14.173 -1.8125  0.9858  0.4700
 7913TIP3    H245155   3.875   5.297  14.323 -0.2888 -1.9742  0.8050
 7914TIP3   OH245156   2.778   1.949   1.566  0.0576 -0.6013  0.0797
 7914TIP3    H145157   2.789   2.009   1.640 -1.2304  0.1320 -0.3057
 7914TIP3    H245158   2.865   1.942   1.528 -0.0901  2.6350 -1.0889
 7915TIP3   OH245159   6.029   6.693   4.528  0.2221 -0.4059 -0.0468
 7915TIP3    H145160   5.965   6.702   4.598 -1.4336 -0.3932 -1.4848
 7915TIP3    H245161   6.033   6.598   4.511  0.9445 -0.4517  0.3300
 7916TIP3   OH245162   3.634   5.923   5.428 -0.1966 -0.0945 -0.3260
 7916TIP3    H145163   3.556   5.934   5.483  1.8782  0.9860  2.6679
 7916TIP3    H245164   3.645   5.828   5.421  1.5462 -0.5905  4.7701
 7917TIP3   OH245165   2.251   0.801   5.317 -0.3435  0.5056 -0.3083
 7917TIP3    H145166   2.339   0.798   5.279  0.4103  0.3280  1.3446
 7917TIP3    H245167   2.217   0.712   5.305  0.5473 -0.0230  0.8363
 7918TIP3   OH245168   4.592   5.245   0.770 -0.1567  0.2763  0.7374
 7918TIP3    H145169   4.584   5.316   0.833 -2.1417  0.0767  0.7902
 7918TIP3    H245170   4.521   5.185   0.793  2.6770 -2.8886  2.0673
 7919TIP3   OH245171   5.296   0.041   1.387  0.0178  0.1540  0.3267
 7919TIP3    H145172   5.259  -0.021   1.324  1.4813  0.4555 -0.8781
 7919TIP3    H245173   5.303   0.123   1.339  1.7093  0.2470  0.6541
 7920TIP3   OH245174   4.260   1.031  14.697  0.4422 -0.1617 -0.0750
 7920TIP3    H145175   4.186   1.084  14.726 -0.7882 -1.4699 -0.7357
 7920TIP3    H245176   4.277   1.061  14.607 -0.8579 -1.4783 -0.7874
 7921TIP3   OH245177   1.611   5.205  16.130 -0.0564  0.3953 -0.3825
 7921TIP3    H145178   1.649   5.146  16.196  1.9043  1.3272 -0.6083
 7921TIP3    H245179   1.617   5.292  16.169  0.4397  0.8678 -1.4802
 7922TIP3   OH245180   4.516   1.824  10.576  0.4255  0.1183  0.6537
 7922TIP3    H145181   4.426   1.833  10.608  0.7756 -2.8620  2.8839
 7922TIP3    H245182   4.510   1.763  10.502  0.6731 -0.8683  1.4282
 7923TIP3   OH245183   1.814   6.347  13.241  0.3235  0.1708  0.7054
 7923TIP3    H145184   1.757   6.355  13.318  0.0829 -1.6990  0.7689
 7923TIP3    H245185   1.762   6.297  13.178  0.2910  2.1721 -0.9381
 7924TIP3   OH245186   1.282   0.110  16.481  0.2714 -0.4526  0.1856
 7924TIP3    H145187   1.267   0.204  16.476  1.0633 -0.3849 -2.5489
 7924TIP3    H245188   1.194   0.072  16.483 -0.0572  0.2997  1.2596
 7925TIP3   OH245189   3.829   1.444  15.446  0.5189 -0.6496  0.2345
 7925TIP3    H145190   3.883   1.438  15.367  0.3838  0.5984  0.0322
 7925TIP3    H245191   3.861   1.522  15.491 -1.9268  0.8758 -0.5249
 7926TIP3   OH245192   2.443   1.113  11.782 -0.4657  0.3611  0.1594
 7926TIP3    H145193   2.368   1.145  11.832 -1.1339 -0.3743 -0.3405
 7926TIP3    H245194   2.415   1.120  11.690  0.6418  1.4514 -0.1249
 7927TIP3   OH245195   2.414   2.401  16.695 -0.2293 -0.3060 -0.3208
 7927TIP3    H145196   2.475   2.330  16.716  3.4387  3.0106  1.4310
 7927TIP3    H245197   2.435   2.424  16.604  0.4587  0.1835 -0.0438
 7928TIP3   OH245198   6.730   6.654   1.612  0.2246  0.6171 -0.2224
 7928TIP3    H145199   6.785   6.728   1.587  1.5922 -0.7104 -1.3637
 7928TIP3    H245200   6.697   6.619   1.529  0.9847 -1.0417  0.1184
 7929TIP3   OH245201   2.821   5.165   4.758 -0.3542  0.4498  0.5155
 7929TIP3    H145202   2.875   5.194   4.831  0.4113 -1.2477  0.6724
 7929TIP3    H245203   2.743   5.221   4.762 -0.7270 -0.1023  3.1345
 7930TIP3   OH245204   2.288   1.440  14.932  0.0517  0.5182 -0.3265
 7930TIP3    H145205   2.355   1.413  14.868  0.2809 -0.7119  0.4020
 7930TIP3    H245206   2.205   1.411  14.893  0.1928 -0.2404 -0.0897
 7931TIP3   OH245207   2.202   4.115   0.167  0.6253  0.0919  0.0088
 7931TIP3    H145208   2.139   4.073   0.227 -0.4779 -0.1366 -1.2659
 7931TIP3    H245209   2.282   4.064   0.178  0.3895 -0.0528  1.1676
 7932TIP3   OH245210   2.807   4.104  12.908  0.0725 -0.3056  0.4193
 7932TIP3    H145211   2.870   4.071  12.972  1.2028  1.3641  0.2235
 7932TIP3    H245212   2.842   4.189  12.881 -1.7121  0.1828 -0.5221
 7933TIP3   OH245213   3.970   2.520   5.158 -0.0661 -0.5468 -0.2964
 7933TIP3    H145214   3.936   2.431   5.159 -0.6807 -0.3190 -0.4918
 7933TIP3    H245215   4.038   2.521   5.225 -0.4187 -1.0235  0.0687
 7934TIP3   OH245216   1.494   3.458  12.234 -0.0750  0.5435  0.2582
 7934TIP3    H145217   1.515   3.522  12.302 -3.3779  0.7539  1.2596
 7934TIP3    H245218   1.436   3.505  12.175  1.3703 -0.1661 -1.8376
 7935TIP3   OH245219   5.292   6.297   0.659  0.3347  0.5904  0.7599
 7935TIP3    H145220   5.272   6.344   0.740 -0.6639  0.4015  0.6357
 7935TIP3    H245221   5.227   6.227   0.655 -0.0640  1.0074 -0.5437
 7936TIP3   OH245222   3.292   6.222   1.600 -0.2810 -0.0241  0.0861
 7936TIP3    H145223   3.259   6.134   1.586  0.7013 -0.4405  0.3052
 7936TIP3    H245224   3.236   6.258   1.669 -1.0445 -0.2627 -0.3945
 7937TIP3   OH245225   0.652   3.145  12.859 -0.2062 -0.5887  0.0776
 7937TIP3    H145226   0.692   3.221  12.815 -2.2723  0.8643  0.5375
 7937TIP3    H245227   0.727   3.095  12.892  1.2923  2.1755  1.2922
 7938TIP3   OH245228   2.031   0.605  16.569 -0.4701  0.0093 -0.4693
 7938TIP3    H145229   2.045   0.693  16.604 -2.1511  0.5824 -1.1383
 7938TIP3    H245230   1.940   0.586  16.590  0.4653 -2.6083  1.8311
 7939TIP3   OH245231   3.596   1.430   5.564  0.1184  0.0874  0.0411
 7939TIP3    H145232   3.606   1.503   5.625  0.6770  0.3516 -0.3532
 7939TIP3    H245233   3.503   1.410   5.565 -0.1443  1.2133 -0.3142
 7940TIP3   OH245234   4.136   4.559   3.393  0.3027  0.5529  0.0107
 7940TIP3    H145235   4.199   4.497   3.356  0.8198  0.9270  0.2542
 7940TIP3    H245236   4.079   4.582   3.320 -0.5630 -1.0145  0.1467
 7941TIP3   OH245237   4.564   1.697   1.879 -0.1909  0.4680 -0.3785
 7941TIP3    H145238   4.594   1.763   1.817 -1.1438  0.8423 -0.4684
 7941TIP3    H245239   4.642   1.672   1.928  0.4476  0.6644 -1.2585
 7942TIP3   OH245240   1.057   3.479   0.441  0.5213  0.0431  0.2440
 7942TIP3    H145241   1.031   3.571   0.432 -1.1589 -0.5109 -1.0802
 7942TIP3    H245242   0.989   3.430   0.394  0.4754 -2.0207  2.3135
 7943TIP3   OH245243   0.878   5.552  11.048 -0.0126 -0.1872  0.3042
 7943TIP3    H145244   0.863   5.541  10.954  1.6109  0.0185 -0.0035
 7943TIP3    H245245   0.971   5.572  11.056  0.0110 -0.7826  2.0150
 7944TIP3   OH245246   6.488   1.065   0.046 -0.5206 -0.5338  0.2419
 7944TIP3    H145247   6.486   1.047  -0.048 -0.1900 -0.2320  0.1730
 7944TIP3    H245248   6.453   0.986   0.086 -2.2974 -0.0071 -0.2086
 7945TIP3   OH245249   2.230   5.890   0.911 -0.0729  0.4184  0.0850
 7945TIP3    H145250   2.256   5.969   0.865  1.5836 -0.7202 -1.0406
 7945TIP3    H245251   2.188   5.922   0.991 -0.3548  2.4155 -0.7958
 7946TIP3   OH245252   0.056   4.894  13.811  0.0162  0.0461 -0.2263
 7946TIP3    H145253  -0.027   4.940  13.807 -0.4056 -0.7090 -0.4412
 7946TIP3    H245254   0.052   4.843  13.892 -0.2091 -0.8527 -0.7885
 7947TIP3   OH245255   2.671   0.277  15.801  0.0632  0.2229 -0.8104
 7947TIP3    H145256   2.668   0.352  15.860 -1.0702  0.6825 -1.4104
 7947TIP3    H245257   2.747   0.227  15.829  0.3558  1.1614  0.1332
 7948TIP3   OH245258   2.027   1.781   3.818  0.5393 -0.1607  0.0807
 7948TIP3    H145259   2.047   1.788   3.724 -1.2572 -0.0489 -0.3439
 7948TIP3    H245260   2.034   1.688   3.837 -2.6911 -0.7837 -1.1454
 7949TIP3   OH245261   5.372   4.586   4.411 -0.1645 -0.0605  0.3016
 7949TIP3    H145262   5.349   4.538   4.490  0.3874  0.0204  0.5118
 7949TIP3    H245263   5.295   4.576   4.354 -0.3702 -0.5162  0.6540
 7950TIP3   OH245264   5.250   5.122  11.395  0.2744 -0.5531  0.5467
 7950TIP3    H145265   5.263   5.198  11.338 -0.8627 -1.8707 -1.6117
 7950TIP3    H245266   5.305   5.053  11.355 -1.3816 -1.8175  0.3297
 7951TIP3   OH245267   3.783   2.230   3.187 -0.0107  0.0823  0.1065
 7951TIP3    H145268   3.696   2.259   3.161  0.0726 -0.0620 -0.3495
 7951TIP3    H245269   3.768   2.175   3.264 -0.2629  0.5219  0.3722
 7952TIP3   OH245270   6.789   0.688  10.372  0.1718  0.5304 -0.3621
 7952TIP3    H145271   6.749   0.712  10.455 -2.5719 -0.2527 -1.3590
 7952TIP3    H245272   6.716   0.665  10.315  2.0735 -1.4685 -2.2223
 7953TIP3   OH245273   1.391   3.548   5.151  0.1589 -0.3607 -0.2524
 7953TIP3    H145274   1.451   3.560   5.225  0.9421 -0.1498 -0.9058
 7953TIP3    H245275   1.314   3.507   5.189  0.7881 -0.7950  0.5799
 7954TIP3   OH245276   4.477   0.188  12.297 -0.4230  0.4224  0.1991
 7954TIP3    H145277   4.493   0.241  12.219  1.9635 -0.8581 -0.2864
 7954TIP3    H245278   4.495   0.246  12.370  2.1980  0.3986 -0.3215
 7955TIP3   OH245279   2.967   3.166  12.611  0.0287 -0.5436 -0.3980
 7955TIP3    H145280   2.969   3.074  12.637  1.7163 -0.3950  0.1606
 7955TIP3    H245281   2.998   3.166  12.521 -1.3143 -0.6245 -0.8817
 7956TIP3   OH245282   6.678   2.627  14.464 -0.4282 -0.2830  0.0101
 7956TIP3    H145283   6.653   2.553  14.519  0.6358 -0.7347 -0.0778
 7956TIP3    H245284   6.597   2.675  14.449 -0.9272 -0.7827  1.0337
 7957TIP3   OH245285   4.092   5.961  11.716 -0.5134  0.2400  0.4414
 7957TIP3    H145286   3.997   5.973  11.714 -0.4733  0.4565 -0.0696
 7957TIP3    H245287   4.121   6.015  11.790 -1.1232 -2.2045  2.6354
 7958TIP3   OH245288   4.733   2.634  12.965  0.0386 -0.6455 -0.3845
 7958TIP3    H145289   4.789   2.559  12.945  1.2783  0.0525  0.3291
 7958TIP3    H245290   4.717   2.628  13.059  1.8335  1.0354  0.0960
 7959TIP3   OH245291   5.970   6.690  11.902  0.4248  0.3447  0.4185
 7959TIP3    H145292   5.900   6.719  11.959  0.4387  1.5983 -0.1797
 7959TIP3    H245293   6.036   6.760  11.905  2.4366 -1.4642  2.1870
 7960TIP3   OH245294   5.051   6.452  12.310  0.2268  0.3814  0.2175
 7960TIP3    H145295   5.015   6.540  12.323 -1.8547 -0.5136  0.8324
 7960TIP3    H245296   5.053   6.413  12.397 -0.5297 -0.7729 -0.2594
 7961TIP3   OH245297   2.021   4.967   4.885 -0.6633 -0.2680 -0.3620
 7961TIP3    H145298   2.104   5.004   4.855 -0.8951  1.1154  0.5866
 7961TIP3    H245299   2.009   4.888   4.832  1.0774 -0.3170 -0.7527
 7962TIP3   OH245300   5.720   2.743  11.967 -0.4244 -0.0475 -0.0976
 7962TIP3    H145301   5.757   2.678  11.907  0.5435  0.3380  0.0614
 7962TIP3    H245302   5.718   2.700  12.052  4.3119  1.3713  1.0232
 7963TIP3   OH245303   3.265   1.276  11.949  0.0214 -0.3030  0.6714
 7963TIP3    H145304   3.219   1.356  11.924 -0.7769 -0.7503  0.6391
 7963TIP3    H245305   3.323   1.257  11.875 -1.2765 -0.8376 -0.2579
 7964TIP3   OH245306   1.708   4.218  14.084 -0.3989  0.1179 -0.6648
 7964TIP3    H145307   1.776   4.220  14.016  0.8314  1.0277  0.5526
 7964TIP3    H245308   1.675   4.308  14.087 -1.2733 -0.1876 -0.8455
 7965TIP3   OH245309   0.017   3.049   1.667  0.3181  0.2303  0.7503
 7965TIP3    H145310   0.086   3.102   1.707  0.2700  1.2414 -0.4590
 7965TIP3    H245311   0.058   3.013   1.588  0.4399 -1.7964  1.6694
 7966TIP3   OH245312   3.613   1.773  13.000 -0.2791 -0.3922  0.0969
 7966TIP3    H145313   3.614   1.835  12.928 -1.5779 -0.0688  0.3318
 7966TIP3    H245314   3.677   1.807  13.063 -0.6981  0.4882  0.0490
 7967TIP3   OH245315   5.557   5.990   3.500  0.1285 -0.3302 -0.6984
 7967TIP3    H145316   5.486   6.041   3.539  2.6750  0.7790  3.0062
 7967TIP3    H245317   5.537   5.900   3.523  0.1103  0.0222  0.7597
 7968TIP3   OH245318   4.162   1.660  14.512 -0.4772 -0.1235  0.4378
 7968TIP3    H145319   4.238   1.609  14.484 -2.5705 -3.6062  0.3920
 7968TIP3    H245320   4.124   1.693  14.431 -0.4186 -0.6419  0.1919
 7969TIP3   OH245321   1.375   2.566   5.165  0.0847 -0.1789  0.4692
 7969TIP3    H145322   1.370   2.524   5.080  0.8243  0.5117  0.0716
 7969TIP3    H245323   1.418   2.650   5.148 -0.1762  0.1674  1.4465
 7970TIP3   OH245324   3.103   0.788   6.240  0.5996  0.4928  0.3717
 7970TIP3    H145325   3.021   0.801   6.288 -0.4959 -0.4118 -1.1866
 7970TIP3    H245326   3.169   0.778   6.309 -0.5900  1.1032  1.6626
 7971TIP3   OH245327   0.872   1.622  12.482  0.1736  0.3187 -0.5277
 7971TIP3    H145328   0.949   1.637  12.426  0.1718  1.2477 -0.2995
 7971TIP3    H245329   0.909   1.613  12.570  0.0742  0.0438 -0.5128
 7972TIP3   OH245330   6.567   1.397   4.363  0.5322  0.3313 -0.3489
 7972TIP3    H145331   6.633   1.421   4.428  0.3019 -0.1406  0.0574
 7972TIP3    H245332   6.558   1.302   4.370 -0.1272  0.3808 -0.4640
 7973TIP3   OH245333   5.068   1.163   4.293  0.7397  0.4139 -0.0739
 7973TIP3    H145334   5.134   1.226   4.322 -1.3890  1.8388  1.9822
 7973TIP3    H245335   5.022   1.137   4.372 -1.5307 -0.0934 -1.4546
 7974TIP3   OH245336   5.004   3.162   3.368  0.3431 -0.2638  0.3261
 7974TIP3    H145337   5.058   3.084   3.374 -1.4511 -1.4878  1.8613
 7974TIP3    H245338   4.933   3.147   3.431 -0.1766  2.5229  0.5354
 7975TIP3   OH245339   5.568   4.637  13.009  0.1225  0.3411  0.5021
 7975TIP3    H145340   5.654   4.679  13.013  1.0281 -0.8369 -2.9828
 7975TIP3    H245341   5.536   4.657  12.921 -1.5417 -2.1877  0.4430
 7976TIP3   OH245342   2.215   4.921   0.921  0.2189 -0.7672  0.6610
 7976TIP3    H145343   2.169   4.846   0.881  0.6027 -0.8189  0.3087
 7976TIP3    H245344   2.144   4.980   0.948 -0.1483  1.1317 -3.5889
 7977TIP3   OH245345   1.917   4.540  11.387 -0.2913  0.0737  0.2023
 7977TIP3    H145346   1.831   4.537  11.345  0.4455  1.8578 -1.6528
 7977TIP3    H245347   1.916   4.622  11.437  0.6257  0.6402 -0.6599
 7978TIP3   OH245348   4.302   4.908   3.621  0.1942 -0.3778 -0.0906
 7978TIP3    H145349   4.267   4.965   3.552  0.8680  0.9213  0.6062
 7978TIP3    H245350   4.380   4.869   3.582  0.6162  0.4125 -0.0571
 7979TIP3   OH245351   6.228   2.379  13.554  0.3104 -0.2394  0.4595
 7979TIP3    H145352   6.311   2.352  13.515  0.7502 -2.1761  2.5244
 7979TIP3    H245353   6.163   2.320  13.515  0.0834  0.5191 -0.3163
 7980TIP3   OH245354   3.664   0.024   5.980  0.2799  0.7631 -0.1906
 7980TIP3    H145355   3.699  -0.063   5.998 -0.8234  0.5758  1.2602
 7980TIP3    H245356   3.697   0.046   5.892  1.8325 -0.4460  0.0448
 7981TIP3   OH245357   1.428   4.558  15.250  0.3105 -0.0465  0.3797
 7981TIP3    H145358   1.490   4.591  15.184  1.2857 -0.6837  0.9571
 7981TIP3    H245359   1.389   4.637  15.288  1.0822  0.3817  0.2989
 7982TIP3   OH245360   0.015   2.034   0.488 -0.1481  0.0709  0.4236
 7982TIP3    H145361   0.084   1.993   0.540  0.2505 -0.1300 -0.2477
 7982TIP3    H245362   0.003   2.121   0.528 -1.1470 -0.7364  1.9811
 7983TIP3   OH245363   6.095   5.210   0.253 -0.0956 -0.4085 -0.6354
 7983TIP3    H145364   6.174   5.225   0.200  0.0958 -0.8296 -0.4726
 7983TIP3    H245365   6.022   5.229   0.193  0.1241 -0.0840 -0.8079
 7984TIP3   OH245366   1.359   4.120   6.014 -0.3107 -0.2033  0.2169
 7984TIP3    H145367   1.386   4.028   6.015 -1.3589 -0.5271 -0.2219
 7984TIP3    H245368   1.274   4.121   6.056 -0.8414  0.3795 -0.8175
 7985TIP3   OH245369   5.866   6.731   2.727  0.1213  0.1278  0.4009
 7985TIP3    H145370   5.888   6.713   2.818 -0.4372  0.7595  0.6795
 7985TIP3    H245371   5.944   6.774   2.690 -0.6650  2.7051  1.4771
 7986TIP3   OH245372   2.290   0.313   5.394  0.4002  0.5603 -0.0128
 7986TIP3    H145373   2.335   0.360   5.464  1.2931  1.9134 -1.4452
 7986TIP3    H245374   2.318   0.356   5.314 -1.4417 -0.2377 -1.1581
 7987TIP3   OH245375   1.813   1.170   0.925  0.2308 -0.4908 -0.1651
 7987TIP3    H145376   1.723   1.180   0.892  0.1935  0.5776  0.1996
 7987TIP3    H245377   1.824   1.243   0.986  2.2005  1.0448 -2.1687
 7988TIP3   OH245378   3.044   5.009   5.513  0.7366 -0.2446  0.3981
 7988TIP3    H145379   3.127   4.984   5.473  0.5059 -1.0658  0.4227
 7988TIP3    H245380   2.978   4.978   5.451  0.4316 -0.0672  0.6340
 7989TIP3   OH245381   0.148   3.961   3.291 -0.1866  0.2298 -0.0113
 7989TIP3    H145382   0.228   4.011   3.307 -0.1962  0.6554 -1.1924
 7989TIP3    H245383   0.155   3.933   3.200 -1.9032  1.2920 -0.5332
 7990TIP3   OH245384   5.769   6.046   1.156  0.3488  0.2666 -0.0129
 7990TIP3    H145385   5.757   6.101   1.079 -0.3545  0.7876  0.4555
 7990TIP3    H245386   5.781   5.957   1.121  0.0226  0.4969 -0.7179
 7991TIP3   OH245387   4.804   5.018  10.980 -0.5199 -0.8677  0.1198
 7991TIP3    H145388   4.895   5.023  11.009 -0.9991 -2.2996  2.1082
 7991TIP3    H245389   4.807   5.032  10.886  1.6727 -0.2478  0.2386
 7992TIP3   OH245390   2.087   6.326   4.511 -0.3338 -0.0175  0.3333
 7992TIP3    H145391   2.096   6.299   4.602 -0.7155 -0.6209  0.1970
 7992TIP3    H245392   2.052   6.414   4.515 -0.2324  0.0041  0.7710
 7993TIP3   OH245393   4.337   4.147  11.183  0.5681  0.1359  0.0703
 7993TIP3    H145394   4.302   4.225  11.225  0.2900  0.7290 -1.2226
 7993TIP3    H245395   4.359   4.088  11.256  1.4465  1.6774  1.1123
 7994TIP3   OH245396   4.448   4.778  15.808 -0.5308 -0.2528  0.3539
 7994TIP3    H145397   4.473   4.845  15.871 -1.0409  0.0768  0.2128
 7994TIP3    H245398   4.453   4.821  15.723 -1.0649 -0.3211  0.2791
 7995TIP3   OH245399   2.535   5.374   5.269 -0.1619  0.5674 -0.3771
 7995TIP3    H145400   2.465   5.425   5.228  0.8572  1.3432 -1.1946
 7995TIP3    H245401   2.533   5.400   5.361 -1.8927 -0.5221 -0.0601
 7996TIP3   OH245402   2.558   6.592  15.003  0.3899 -0.0317 -0.2017
 7996TIP3    H145403   2.502   6.523  14.968  2.0165 -0.1815 -2.7478
 7996TIP3    H245404   2.631   6.545  15.042  0.3787  0.2268  0.1344
 7997TIP3   OH245405   0.708   4.385   5.770 -0.0153  0.3165  0.3321
 7997TIP3    H145406   0.798   4.354   5.777  0.4076  1.3540 -0.2987
 7997TIP3    H245407   0.710   4.474   5.807 -0.4881  0.8401 -0.8344
 7998TIP3   OH245408   1.306   6.634  13.747  0.0578 -0.0541  0.7214
 7998TIP3    H145409   1.232   6.574  13.751  1.1737 -1.8505 -2.2057
 7998TIP3    H245410   1.280   6.700  13.683  0.8540 -0.6757 -0.2994
 7999TIP3   OH245411   6.400   6.557   4.467  0.7378 -0.3192  0.1344
 7999TIP3    H145412   6.374   6.488   4.529 -0.5252  0.5422  0.6141
 7999TIP3    H245413   6.349   6.634   4.495  0.7978  0.3266 -1.4539
 8000TIP3   OH245414   0.067   3.078  12.926  0.4172 -0.8284  0.5485
 8000TIP3    H145415   0.159   3.091  12.950  1.0108  0.2782 -1.9693
 8000TIP3    H245416   0.021   3.153  12.963  0.8695 -0.4441  0.3383
 8001TIP3   OH245417   6.232   5.338   1.423 -0.7310 -0.9891  0.1808
 8001TIP3    H145418   6.222   5.310   1.332 -1.8473 -2.5514  0.7464
 8001TIP3    H245419   6.311   5.392   1.422  0.0605 -2.0644 -1.4706
 8002TIP3   OH245420   4.927   5.910   0.590  0.1937  0.0730  0.2057
 8002TIP3    H145421   4.998   5.953   0.638 -2.2168  2.9550  1.5595
 8002TIP3    H245422   4.929   5.819   0.618  2.6030  0.3376  1.0622
 8003TIP3   OH245423   0.066   0.950   3.711  0.1298 -0.0059  0.5268
 8003TIP3    H145424  -0.009   0.947   3.652  1.4086 -3.6930 -1.2202
 8003TIP3    H245425   0.113   1.029   3.687 -0.8329 -0.0029 -1.5149
 8004TIP3   OH245426   3.869   2.387  13.671 -0.0298  0.0644 -0.3585
 8004TIP3    H145427   3.815   2.352  13.741 -0.9472  1.4019 -0.3586
 8004TIP3    H245428   3.948   2.418  13.716 -0.7438  1.2028  0.1800
 8005TIP3   OH245429   6.116   3.443  16.519 -0.0445 -0.0135  0.6414
 8005TIP3    H145430   6.026   3.434  16.488 -0.2388  0.5709  1.0238
 8005TIP3    H245431   6.131   3.365  16.572 -1.2765  1.1581  2.8800
 8006TIP3   OH245432   2.405   5.149  16.698 -0.2198  0.2043 -0.0289
 8006TIP3    H145433   2.456   5.075  16.731 -0.5957 -1.0393 -2.0248
 8006TIP3    H245434   2.318   5.112  16.681 -0.6708  1.3246 -0.2417
 8007TIP3   OH245435   6.712   2.816  16.879  0.5854  0.6151 -0.1441
 8007TIP3    H145436   6.800   2.853  16.870  1.6735 -1.3677  1.4273
 8007TIP3    H245437   6.725   2.721  16.878 -1.2871  0.2428  1.8746
 8008TIP3   OH245438   6.648   0.897  13.195  0.4548  0.0493  0.5555
 8008TIP3    H145439   6.595   0.892  13.116  1.2789 -0.0904 -0.0060
 8008TIP3    H245440   6.588   0.928  13.263 -0.3267 -0.0828 -0.0622
 8009TIP3   OH245441   1.442   5.196   2.894 -0.0793 -0.2046  0.1682
 8009TIP3    H145442   1.369   5.192   2.833 -0.3874 -0.2228  0.5318
 8009TIP3    H245443   1.422   5.272   2.950  0.2846 -0.0828  0.1336
 8010TIP3   OH245444   6.614   2.445  14.032  0.6956 -0.7385  0.2443
 8010TIP3    H145445   6.620   2.537  14.056  0.8659 -0.5272 -0.5890
 8010TIP3    H245446   6.671   2.400  14.095  1.7033 -0.1147 -0.1993
 8011TIP3   OH245447   4.325   5.705  13.084  0.4295 -0.0081 -0.2018
 8011TIP3    H145448   4.420   5.695  13.089  0.3494 -0.4287  0.6074
 8011TIP3    H245449   4.311   5.800  13.090  0.8372  0.1381 -1.2814
 8012TIP3   OH245450   6.768   0.756   3.922 -0.0509 -0.3349  0.4703
 8012TIP3    H145451   6.807   0.813   3.856 -1.4348 -1.0675 -1.0420
 8012TIP3    H245452   6.686   0.798   3.945 -0.2968 -0.8677  0.5807
 8013TIP3   OH245453   1.686   5.961   1.667 -0.2655 -0.0146 -0.0925
 8013TIP3    H145454   1.619   5.930   1.606 -0.0080  0.1411 -0.4607
 8013TIP3    H245455   1.741   6.020   1.614  0.0950 -0.0580  0.2290
 8014TIP3   OH245456   1.887   2.114   5.182 -0.3004 -0.0137  0.6697
 8014TIP3    H145457   1.870   2.028   5.142  0.8103 -0.2039  0.5798
 8014TIP3    H245458   1.802   2.141   5.218 -0.8968 -0.6743 -0.2129
 8015TIP3   OH245459   3.495   6.139   3.585  0.3462  0.1563  0.3909
 8015TIP3    H145460   3.423   6.161   3.644 -0.2776  0.9540 -0.6513
 8015TIP3    H245461   3.468   6.170   3.500  0.4220 -2.5842 -0.7550
 8016TIP3   OH245462   2.506   3.257   1.739  0.3331 -0.2601 -0.5422
 8016TIP3    H145463   2.470   3.306   1.665 -0.9953 -1.0518 -0.4560
 8016TIP3    H245464   2.439   3.192   1.759  1.2753 -0.9446  0.4891
 8017TIP3   OH245465   5.457   4.048  11.171 -0.2564 -0.2162 -0.3526
 8017TIP3    H145466   5.547   4.049  11.202 -0.6841 -1.3596  1.0832
 8017TIP3    H245467   5.426   4.138  11.179  0.1164 -0.2135  1.1945
 8018TIP3   OH245468   3.570   4.071  11.077 -0.2364  0.6044  0.0296
 8018TIP3    H145469   3.624   4.041  11.003  0.5350 -1.6243  1.3998
 8018TIP3    H245470   3.501   4.124  11.036  0.7406  0.3125 -2.1670
 8019TIP3   OH245471   2.774   0.832   3.053 -0.1050 -0.6594  0.8672
 8019TIP3    H145472   2.687   0.831   3.014  0.0221 -1.4630  0.5723
 8019TIP3    H245473   2.758   0.839   3.147 -0.3856  2.2556  0.6810
 8020TIP3   OH245474   1.865   0.777  13.701 -0.5129 -0.3350 -0.1975
 8020TIP3    H145475   1.857   0.727  13.619  0.1372  0.4489 -0.7518
 8020TIP3    H245476   1.904   0.860  13.675 -1.4850  0.4467  0.7251
 8021TIP3   OH245477   1.570   4.736   1.714 -0.0523  0.3798 -0.1144
 8021TIP3    H145478   1.577   4.828   1.692  0.8887  0.4807  0.5653
 8021TIP3    H245479   1.652   4.715   1.758  0.2211 -1.0655 -1.2479
 8022TIP3   OH245480   3.972   6.533  12.316 -0.2561 -0.5882  0.3724
 8022TIP3    H145481   4.057   6.514  12.355  0.2719  1.7109  0.4975
 8022TIP3    H245482   3.981   6.504  12.225  0.2106 -1.5062  0.6976
 8023TIP3   OH245483   6.209   1.329  11.279 -0.2776 -0.8970  0.5629
 8023TIP3    H145484   6.225   1.235  11.283 -1.2122 -1.0996 -0.1666
 8023TIP3    H245485   6.152   1.341  11.203  1.1666  0.4583 -0.3693
 8024TIP3   OH245486   0.278   6.315   2.728  0.2012  0.1138 -0.3258
 8024TIP3    H145487   0.361   6.269   2.742 -0.1450 -0.0462  1.3049
 8024TIP3    H245488   0.223   6.288   2.801 -1.3094  0.2104 -1.3940
 8025TIP3   OH245489   2.954   0.318  15.224  0.2107  0.3279 -0.0024
 8025TIP3    H145490   3.030   0.367  15.254 -0.2264 -0.1607  2.0540
 8025TIP3    H245491   2.892   0.385  15.195  0.1000  0.9446  1.5920
 8026TIP3   OH245492   1.872   6.643   6.712  0.0779  0.0021  0.3829
 8026TIP3    H145493   1.855   6.578   6.644  0.6280 -1.4231  1.5477
 8026TIP3    H245494   1.967   6.646   6.720  0.0720  1.1305  0.2025
 8027TIP3   OH245495   1.435   1.231   3.703  0.3243  0.4462 -0.2968
 8027TIP3    H145496   1.367   1.224   3.636  0.6056 -0.7146 -0.4806
 8027TIP3    H245497   1.518   1.222   3.655  0.5018 -1.6205  0.3058
 8028TIP3   OH245498   1.447   1.017   1.053 -0.5065  0.0976  0.6294
 8028TIP3    H145499   1.459   1.067   0.973  1.1589  0.2613  0.9426
 8028TIP3    H245500   1.358   0.983   1.047 -0.4328  0.1390 -1.2591
 8029TIP3   OH245501   4.687   2.976   5.668 -0.0984 -0.3291 -0.0505
 8029TIP3    H145502   4.777   2.983   5.636 -0.5933  1.8972 -1.1486
 8029TIP3    H245503   4.689   3.020   5.753 -0.1576 -0.3073 -0.0607
 8030TIP3   OH245504   3.488   5.016  13.074 -0.1184  0.1036 -0.2225
 8030TIP3    H145505   3.416   4.978  13.124 -0.6460  3.0428  1.4892
 8030TIP3    H245506   3.446   5.064  13.003  0.1681  1.1154  0.2694
 8031TIP3   OH245507   6.679   0.841   6.024  0.1913 -0.4892  0.5645
 8031TIP3    H145508   6.614   0.778   6.052 -0.7702  0.2467  0.0649
 8031TIP3    H245509   6.699   0.892   6.103 -1.7109  0.8870  0.2223
 8032TIP3   OH245510   1.101   3.194  13.079 -0.1788 -0.4307  0.2808
 8032TIP3    H145511   1.038   3.261  13.106  2.6734  2.8769 -0.5751
 8032TIP3    H245512   1.057   3.146  13.009 -1.2201  3.0160 -1.6772
 8033TIP3   OH245513   2.421   6.580  14.007  0.2467  0.0564  0.0640
 8033TIP3    H145514   2.492   6.557  13.948 -0.9544  0.4771 -1.6328
 8033TIP3    H245515   2.347   6.601  13.949 -1.7747 -1.9075  1.7250
 8034TIP3   OH245516   2.015   3.765   0.587  0.6420  0.3793  0.9797
 8034TIP3    H145517   2.074   3.777   0.512  0.6594  1.4612  1.1531
 8034TIP3    H245518   2.046   3.829   0.652 -1.7783  2.2441  0.4146
 8035TIP3   OH245519   2.329   0.038   5.981  0.3387 -0.0633 -0.4407
 8035TIP3    H145520   2.407  -0.001   6.021  0.8018  0.9652 -0.3296
 8035TIP3    H245521   2.362   0.107   5.924 -0.5426  1.3647  0.6985
 8036TIP3   OH245522   2.943   3.973   5.828  0.2092 -0.3824 -0.0954
 8036TIP3    H145523   2.972   3.968   5.737  1.3141  0.0575  0.2234
 8036TIP3    H245524   2.975   3.893   5.869  1.0142  0.1057  0.2584
 8037TIP3   OH245525   3.801   2.023  12.477  0.2107  0.0351  0.0766
 8037TIP3    H145526   3.755   1.940  12.464  1.0810 -0.6789  1.3479
 8037TIP3    H245527   3.732   2.088  12.486 -0.4842 -0.4437 -1.4544
 8038TIP3   OH245528   4.126   1.104   4.744  0.9616 -0.7131 -0.3863
 8038TIP3    H145529   4.122   1.198   4.730  1.0384 -0.4270  1.2917
 8038TIP3    H245530   4.091   1.066   4.663  1.2075  0.7274 -1.2101
 8039TIP3   OH245531   3.617   3.575   1.691  0.3703  0.0246  0.7335
 8039TIP3    H145532   3.687   3.512   1.681 -0.8590 -1.3779  0.6096
 8039TIP3    H245533   3.578   3.582   1.604 -0.3460 -0.0749  1.0362
 8040TIP3   OH245534   2.946   1.471   3.505 -0.7448 -0.1585  0.5091
 8040TIP3    H145535   2.891   1.546   3.528  0.7196  0.8061  1.0420
 8040TIP3    H245536   2.954   1.476   3.410  0.8612  1.5654  0.6586
 8041TIP3   OH245537   4.589   0.215   1.434 -0.4461  0.2239 -0.4216
 8041TIP3    H145538   4.606   0.194   1.526  0.6148 -1.3929 -0.9309
 8041TIP3    H245539   4.655   0.280   1.412 -0.6155  0.5152 -0.0722
 8042TIP3   OH245540   3.001   5.617  13.155  0.1475  0.6248 -0.4828
 8042TIP3    H145541   3.012   5.610  13.250 -0.8979  1.7410 -0.2597
 8042TIP3    H245542   3.089   5.636  13.121  0.1878  2.2917  0.4820
 8043TIP3   OH245543   3.843   3.119  14.900  0.3722  0.0370 -0.6267
 8043TIP3    H145544   3.830   3.156  14.987 -0.4030 -0.3393 -0.5758
 8043TIP3    H245545   3.817   3.027  14.909 -2.5076  0.6149 -1.8906
 8044TIP3   OH245546   6.141   4.705   4.420  0.1327  0.0532  0.3531
 8044TIP3    H145547   6.112   4.783   4.467 -0.0573  1.2990 -1.7259
 8044TIP3    H245548   6.061   4.654   4.405  0.2144 -0.4324  1.4340
 8045TIP3   OH245549   0.522   2.662   6.113 -0.2132  0.5895 -0.4790
 8045TIP3    H145550   0.588   2.641   6.179 -2.7899 -0.9391  1.8483
 8045TIP3    H245551   0.479   2.741   6.147 -0.4023  0.8281 -1.2704
 8046TIP3   OH245552   2.184   5.106   1.483 -0.2380  0.5555  0.0446
 8046TIP3    H145553   2.254   5.083   1.422 -0.4808  2.1477 -0.8796
 8046TIP3    H245554   2.182   5.033   1.545  1.9249  0.2358 -0.1730
 8047TIP3   OH245555   1.927   0.587   0.350  0.4204 -0.1040  0.7483
 8047TIP3    H145556   1.889   0.594   0.437 -0.0046  1.5328  0.4728
 8047TIP3    H245557   2.021   0.576   0.366  0.3369  0.0952  1.4141
 8048TIP3   OH245558   3.604   5.420  16.746 -0.2684  0.6546 -0.7265
 8048TIP3    H145559   3.651   5.351  16.700 -0.8929 -0.2587 -0.0305
 8048TIP3    H245560   3.522   5.378  16.774  0.5467  0.8092  2.1813
 8049TIP3   OH245561   5.607   5.046  12.755  0.4514 -0.2591 -0.3435
 8049TIP3    H145562   5.597   5.105  12.830  3.5042 -1.0757  0.8919
 8049TIP3    H245563   5.697   5.061  12.726  0.4254 -2.3743 -1.7217
 8050TIP3   OH245564   1.198   2.474   2.431  0.3951  0.1138 -0.6035
 8050TIP3    H145565   1.111   2.514   2.437 -0.3555 -1.4756 -0.1303
 8050TIP3    H245566   1.227   2.493   2.342 -1.5332 -1.3826 -1.6320
 8051TIP3   OH245567   5.704   0.277  14.332  0.4889  0.1224  0.1367
 8051TIP3    H145568   5.696   0.209  14.266  1.2381 -0.5542  0.7150
 8051TIP3    H245569   5.632   0.260  14.393  0.1233  0.4141 -0.2124
 8052TIP3   OH245570   3.806   1.469   1.023  0.1335 -0.3282 -0.0830
 8052TIP3    H145571   3.819   1.471   1.118  0.9756 -0.6109 -0.1832
 8052TIP3    H245572   3.889   1.500   0.987  0.0106 -0.7484 -0.7431
 8053TIP3   OH245573   6.648   2.674   1.790 -0.3536  0.2983  0.0016
 8053TIP3    H145574   6.601   2.738   1.736 -1.2771 -0.6812 -0.3924
 8053TIP3    H245575   6.587   2.601   1.798  0.5590 -0.4011  0.7177
 8054TIP3   OH245576   2.509   4.273  16.802  0.0961  0.4506 -0.2834
 8054TIP3    H145577   2.525   4.244  16.712  0.4079  0.7406 -0.3221
 8054TIP3    H245578   2.459   4.354  16.792 -0.6226  0.0246 -0.1803
 8055TIP3   OH245579   1.769   3.072  11.880  0.1148 -0.1539  0.2708
 8055TIP3    H145580   1.689   3.025  11.899 -0.3278  0.5517  0.1928
 8055TIP3    H245581   1.838   3.021  11.924 -0.1311 -1.6741 -1.0446
 8056TIP3   OH245582   4.346   2.609   4.821  0.3537 -0.6249 -0.1713
 8056TIP3    H145583   4.411   2.567   4.877 -0.8449 -0.5418  1.3418
 8056TIP3    H245584   4.398   2.657   4.757  1.8782  0.7965  1.9680
 8057TIP3   OH245585   5.123   1.250   3.259  0.0728 -0.0538  0.2323
 8057TIP3    H145586   5.130   1.171   3.314 -0.8680  0.4454  1.0940
 8057TIP3    H245587   5.199   1.302   3.284  0.5263 -0.5330 -0.1125
 8058TIP3   OH245588   3.730   0.677  11.643  0.3933 -0.5128  0.4665
 8058TIP3    H145589   3.731   0.585  11.617 -1.7688 -0.3263 -0.4591
 8058TIP3    H245590   3.777   0.722  11.573 -0.6448 -0.6545 -0.3444
 8059TIP3   OH245591   3.152   2.298   1.069  0.2573 -0.2684  0.9711
 8059TIP3    H145592   3.125   2.220   1.021 -0.2609  0.6460 -0.2938
 8059TIP3    H245593   3.098   2.298   1.148 -1.1170 -0.2207  0.0667
 8060TIP3   OH245594   4.759   6.334  15.498  0.0050  0.5323 -0.0108
 8060TIP3    H145595   4.831   6.335  15.561  0.2302 -2.4204 -0.0914
 8060TIP3    H245596   4.803   6.336  15.413 -0.0803  0.0642 -0.0652
 8061TIP3   OH245597   1.114   6.657   2.457 -0.2687  0.3345 -0.6545
 8061TIP3    H145598   1.179   6.695   2.398  0.4161  2.3795  1.2626
 8061TIP3    H245599   1.071   6.732   2.497  0.3805 -0.8226  2.5435
 8062TIP3   OH245600   3.093   5.880   0.856 -0.3004  0.2064  0.0258
 8062TIP3    H145601   3.015   5.887   0.912 -0.4215  1.4866 -0.2655
 8062TIP3    H245602   3.070   5.927   0.776  0.6764  0.3752 -0.1733
 8063TIP3   OH245603   5.079   0.531   5.070 -0.2610  0.3941  0.1042
 8063TIP3    H145604   5.171   0.540   5.046 -0.2414 -1.0649 -0.4824
 8063TIP3    H245605   5.080   0.489   5.156 -0.3542 -1.7813 -0.9082
 8064TIP3   OH245606   4.862   2.553  14.847  0.1510 -0.7041  0.6731
 8064TIP3    H145607   4.781   2.579  14.803 -0.0174  0.9573  1.8833
 8064TIP3    H245608   4.870   2.459  14.829 -2.2882 -1.0110  0.9386
 8065TIP3   OH245609   6.030   1.108   3.925  0.2131 -0.2388  0.0966
 8065TIP3    H145610   6.112   1.157   3.921  1.1980 -1.7929  0.4397
 8065TIP3    H245611   5.995   1.113   3.837 -0.0277  1.5692  0.2677
 8066TIP3   OH245612   0.893   1.769   4.002  0.0995 -0.2126  0.2380
 8066TIP3    H145613   0.928   1.781   4.090 -1.9387  0.5038  1.0231
 8066TIP3    H245614   0.832   1.695   4.011 -0.1136 -0.1440 -0.5851
 8067TIP3   OH245615   6.104   1.032  16.618  0.1578 -0.1211  0.0411
 8067TIP3    H145616   6.098   0.945  16.580 -0.4954 -0.1368  0.1653
 8067TIP3    H245617   6.038   1.083  16.570  0.4092  0.2589  0.0944
 8068TIP3   OH245618   0.380   5.888   6.030 -0.2215 -0.1206  0.4076
 8068TIP3    H145619   0.462   5.926   6.061  1.2251 -1.6091 -1.3806
 8068TIP3    H245620   0.382   5.798   6.061 -1.4848 -0.0407  0.8022
 8069TIP3   OH245621   3.125   6.102   2.001  0.2215  0.2847 -0.6018
 8069TIP3    H145622   3.215   6.080   2.023  0.2019 -0.1704 -0.9630
 8069TIP3    H245623   3.072   6.066   2.072  0.1503 -1.2373 -1.3950
 8070TIP3   OH245624   4.723   4.178  10.721  0.2999  0.0995  0.2748
 8070TIP3    H145625   4.670   4.251  10.754 -0.3141  0.4024 -1.3096
 8070TIP3    H245626   4.671   4.140  10.650  0.8379 -1.5930  0.7389
 8071TIP3   OH245627   4.157   3.034  15.514 -0.1688 -0.3301 -0.2139
 8071TIP3    H145628   4.244   3.071  15.497 -1.2011  2.9099  0.6736
 8071TIP3    H245629   4.169   2.982  15.594  0.9417  0.2678  0.0413
 8072TIP3   OH245630   6.565   6.373   0.474 -0.0325  0.4219 -0.2170
 8072TIP3    H145631   6.522   6.354   0.390  2.5297 -2.3804 -1.0779
 8072TIP3    H245632   6.511   6.329   0.539  2.2913 -5.2872 -1.5258
 8073TIP3   OH245633   1.996   1.658  15.094  0.6803  0.1041 -0.4718
 8073TIP3    H145634   1.906   1.637  15.121  0.8112 -1.5362 -1.2052
 8073TIP3    H245635   1.990   1.748  15.063 -0.0011  1.2026  2.4770
 8074TIP3   OH245636   3.210   6.412  17.094 -0.4565  0.5674 -0.3986
 8074TIP3    H145637   3.158   6.416  17.174 -2.2398 -0.3056 -1.4260
 8074TIP3    H245638   3.267   6.488  17.097  0.4799 -0.1490  2.2814
 8075TIP3   OH245639   1.443   6.661   2.100  0.3921  0.5059  0.2842
 8075TIP3    H145640   1.458   6.695   2.188  1.1446 -1.1505  0.8347
 8075TIP3    H245641   1.361   6.613   2.106  0.3828  0.4888  0.0459
 8076TIP3   OH245642   0.525   3.813   6.388  0.1139 -0.0003 -0.3675
 8076TIP3    H145643   0.532   3.744   6.322 -0.4328 -0.7453  0.3335
 8076TIP3    H245644   0.569   3.889   6.349  0.5964 -0.6996 -1.2076
 8077TIP3   OH245645   4.416   2.828   0.735 -0.2402  0.1513  0.3833
 8077TIP3    H145646   4.506   2.808   0.710 -0.3520 -0.9863  0.7967
 8077TIP3    H245647   4.423   2.884   0.812  0.1431 -1.0795  1.2714
 8078TIP3   OH245648   2.140   5.855   2.315 -0.2394  0.4319 -0.0957
 8078TIP3    H145649   2.202   5.818   2.377  1.6236  2.4982 -0.6063
 8078TIP3    H245650   2.116   5.781   2.259  1.1569 -0.5909  0.5823
 8079TIP3   OH245651   5.475   4.835  14.550  0.6588  0.0976 -0.0239
 8079TIP3    H145652   5.521   4.789  14.620 -0.1521  1.8381  1.7563
 8079TIP3    H245653   5.384   4.841  14.580  0.1870  0.5435 -1.4331
 8080TIP3   OH245654   4.464   0.787  10.982 -0.5102 -0.4054  0.6056
 8080TIP3    H145655   4.478   0.742  10.898  1.0017 -0.9627  1.1156
 8080TIP3    H245656   4.400   0.855  10.962 -0.3587 -0.6710 -0.9537
 8081TIP3   OH245657   6.055   6.032  16.082 -0.2123  0.8421  0.2467
 8081TIP3    H145658   6.112   6.022  16.158 -0.1561  2.2742  0.4204
 8081TIP3    H245659   6.078   5.958  16.025  1.9640  1.4568  0.2323
 8082TIP3   OH245660   5.994   4.224   3.538 -0.7571  0.5547 -0.2524
 8082TIP3    H145661   5.906   4.238   3.574 -1.0641  0.8357 -1.0895
 8082TIP3    H245662   5.986   4.143   3.487 -0.6010  0.7236 -0.5449
 8083TIP3   OH245663   2.105   0.043  14.784 -0.0465  0.5685 -0.0827
 8083TIP3    H145664   2.027   0.092  14.757 -0.5315  0.2404  0.6636
 8083TIP3    H245665   2.164   0.109  14.820 -0.1012  0.7830 -0.3878
 8084TIP3   OH245666   4.984   0.960   4.980  0.0151  0.1761  0.0010
 8084TIP3    H145667   4.921   0.934   4.913  1.1257 -1.0191 -0.6295
 8084TIP3    H245668   4.961   0.905   5.055 -0.2313  0.3686  0.0682
 8085TIP3   OH245669   4.438   6.105  11.725  0.2630 -0.7049 -0.3308
 8085TIP3    H145670   4.418   6.193  11.694 -2.4868 -0.4314  1.7940
 8085TIP3    H245671   4.496   6.069  11.659  1.3540  2.6037 -1.3882
 8086TIP3   OH245672   0.261   5.253  11.660 -0.2444 -0.1924  0.1593
 8086TIP3    H145673   0.236   5.339  11.627 -0.8951  0.4455  2.1494
 8086TIP3    H245674   0.275   5.267  11.754 -1.2773 -2.4333  0.7141
 8087TIP3   OH245675   2.556   4.714   4.264  0.5828 -0.0489  0.3920
 8087TIP3    H145676   2.515   4.660   4.331 -0.1808 -0.4440 -0.3781
 8087TIP3    H245677   2.640   4.673   4.247  0.4122 -0.4396  0.4965
 8088TIP3   OH245678   4.504   1.662   2.913  0.1471  0.2341 -0.2525
 8088TIP3    H145679   4.589   1.619   2.926 -0.6354 -1.0980  0.7058
 8088TIP3    H245680   4.517   1.751   2.945  1.0867 -0.0798  0.2735
 8089TIP3   OH245681   4.803   3.112  17.040 -0.3442  0.0466  0.9463
 8089TIP3    H145682   4.885   3.148  17.073 -0.1010  0.8640 -0.4855
 8089TIP3    H245683   4.823   3.021  17.017  0.2553  0.3464  0.2702
 8090TIP3   OH245684   3.269   6.043  16.831 -0.2387 -0.0682 -0.3722
 8090TIP3    H145685   3.249   6.041  16.737 -0.8265 -0.0674 -0.2534
 8090TIP3    H245686   3.301   6.132  16.847 -1.1841  0.2819 -0.3755
 8091TIP3   OH245687   6.757   2.540   6.588 -0.5776 -0.3138 -0.1533
 8091TIP3    H145688   6.745   2.479   6.515 -1.8461  1.1544 -1.2451
 8091TIP3    H245689   6.844   2.577   6.576 -0.7410 -0.1569 -0.8968
 8092TIP3   OH245690   5.062   3.317  16.244 -1.2473  0.0582  0.1168
 8092TIP3    H145691   5.128   3.300  16.312 -1.3890  2.0913  0.8321
 8092TIP3    H245692   4.979   3.316  16.290 -1.6239 -1.1325 -0.5426
 8093TIP3   OH245693   6.684   2.844   0.992 -0.0890  0.0886  0.3855
 8093TIP3    H145694   6.748   2.827   1.061  0.0076 -2.7869 -0.2516
 8093TIP3    H245695   6.619   2.774   1.002 -1.5119  1.1537 -0.8336
 8094TIP3   OH245696   5.536   4.455  16.798 -0.1939  0.4700  0.2357
 8094TIP3    H145697   5.534   4.405  16.716  0.6818  0.5033  0.1861
 8094TIP3    H245698   5.526   4.388  16.867  1.1227  0.1832  0.1766
 8095TIP3   OH245699   4.340   6.390   1.466  0.0843  0.5500 -0.1052
 8095TIP3    H145700   4.272   6.367   1.403 -0.1883 -2.8134  1.2328
 8095TIP3    H245701   4.421   6.361   1.425  0.6907  3.3876 -1.1401
 8096TIP3   OH245702   3.775   5.310   4.799  0.4225 -0.0297 -0.0523
 8096TIP3    H145703   3.856   5.259   4.805 -1.3382 -3.0178  0.5685
 8096TIP3    H245704   3.796   5.382   4.739  2.2731 -3.3805 -3.8833
 8097TIP3   OH245705   2.806   0.938   1.623 -0.4289  0.1105 -0.7853
 8097TIP3    H145706   2.860   0.867   1.656 -1.7142 -0.9692 -0.9097
 8097TIP3    H245707   2.722   0.928   1.668 -0.1672  2.5405  0.3990
 8098TIP3   OH245708   2.063   3.138   0.035 -0.2204 -0.0214  0.2899
 8098TIP3    H145709   1.988   3.078   0.040 -0.9759  0.9035  0.3917
 8098TIP3    H245710   2.065   3.166  -0.056  0.3737 -0.4903  0.1553
 8099TIP3   OH245711   0.584   6.442  10.610 -0.3716  0.1064 -0.2465
 8099TIP3    H145712   0.516   6.398  10.558 -1.2099  0.9779  0.0850
 8099TIP3    H245713   0.543   6.456  10.696  0.5731 -0.2229  0.2666
 8100TIP3   OH245714   6.449   2.456  15.280  0.3600  0.1518 -0.1440
 8100TIP3    H145715   6.500   2.375  15.282  0.5485  0.2396 -1.0123
 8100TIP3    H245716   6.361   2.428  15.256  0.3407  0.1608 -0.0830
 8101TIP3   OH245717   6.008   4.600   2.171  0.3213  0.3247  0.2228
 8101TIP3    H145718   6.081   4.551   2.210 -0.0726 -0.4676 -0.0236
 8101TIP3    H245719   5.935   4.587   2.232  0.2983  0.8746  0.3185
 8102TIP3   OH245720   0.926   0.195  14.607  0.1042 -0.6297  0.5687
 8102TIP3    H145721   0.935   0.101  14.624 -0.0556 -0.4910  1.4816
 8102TIP3    H245722   0.832   0.210  14.600  0.1110 -0.4886  0.7551
 8103TIP3   OH245723   6.372   4.586   0.796  0.7133  0.0497 -0.0174
 8103TIP3    H145724   6.284   4.549   0.788 -0.5731  2.5465  1.2344
 8103TIP3    H245725   6.367   4.643   0.873  3.2981  0.6627 -0.2047
 8104TIP3   OH245726   0.346   5.417   3.133 -0.5781 -0.1105  0.2056
 8104TIP3    H145727   0.417   5.482   3.135  0.0935 -0.7804 -0.8185
 8104TIP3    H245728   0.304   5.431   3.048  0.8534 -2.2844 -0.9602
 8105TIP3   OH245729   6.049   6.546  15.225  0.0378 -1.0589  0.1233
 8105TIP3    H145730   6.114   6.586  15.167 -2.0435  1.3987 -0.7204
 8105TIP3    H245731   6.001   6.485  15.169  0.0456 -1.0517  0.1083
 8106TIP3   OH245732   4.214   3.379  12.320  0.5527 -0.3592  0.4186
 8106TIP3    H145733   4.125   3.383  12.353 -0.2295 -0.3249 -1.5434
 8106TIP3    H245734   4.250   3.298  12.356 -0.7957 -1.1425  0.0487
 8107TIP3   OH245735   4.105   3.920  16.287  0.7932 -0.1184  0.1164
 8107TIP3    H145736   4.040   3.963  16.343  2.0806 -1.2982  2.7202
 8107TIP3    H245737   4.070   3.831  16.275  1.9990 -0.8982  1.8912
 8108TIP3   OH245738   0.185   6.069  15.420 -0.0161 -0.2746 -0.3243
 8108TIP3    H145739   0.139   6.079  15.337  0.0303  0.0355 -0.3140
 8108TIP3    H245740   0.224   6.155  15.436 -1.3410  0.1414  0.8132
 8109TIP3   OH245741   4.071   2.971  16.515  0.3842  0.0514 -0.2767
 8109TIP3    H145742   3.998   2.938  16.568 -0.2552  2.1294  0.2386
 8109TIP3    H245743   4.149   2.945  16.563 -0.0382 -1.2076 -0.2258
 8110TIP3   OH245744   2.967   1.513   3.243  0.4560 -0.1787  0.0359
 8110TIP3    H145745   2.966   1.597   3.196 -1.2495 -0.3648 -0.3151
 8110TIP3    H245746   3.036   1.462   3.199 -0.0723  0.2052 -1.3018
 8111TIP3   OH245747   1.878   1.289  14.727  0.4069  0.1599 -0.5463
 8111TIP3    H145748   1.909   1.275  14.637 -0.0973 -0.0701 -0.6905
 8111TIP3    H245749   1.823   1.212  14.745  1.8439 -0.6554  0.5661
 8112TIP3   OH245750   4.493   2.737  15.965 -0.1609 -0.4205  0.6975
 8112TIP3    H145751   4.556   2.679  15.922  2.1376  0.6758  2.3225
 8112TIP3    H245752   4.407   2.703  15.941  1.0539 -3.3925  0.1699
 8113TIP3   OH245753   2.217   4.753  16.769  0.0932  0.1917 -0.7345
 8113TIP3    H145754   2.301   4.754  16.815 -0.9010 -1.3865  1.2693
 8113TIP3    H245755   2.155   4.793  16.830 -0.6575  1.3327 -2.1807
 8114TIP3   OH245756   1.446   3.591  14.950 -0.1241  0.0482  0.0907
 8114TIP3    H145757   1.487   3.668  14.990  0.5343 -1.6416  2.9580
 8114TIP3    H245758   1.354   3.616  14.939  0.4212  1.8210 -0.8027
 8115TIP3   OH245759   0.741   1.264  17.018  0.4645 -0.6004 -0.1513
 8115TIP3    H145760   0.835   1.266  16.998  0.7841 -2.2323  0.9270
 8115TIP3    H245761   0.711   1.182  16.978  0.2937 -1.8748  2.3785
 8116TIP3   OH245762   1.945   5.687  11.486 -0.1836 -0.2016 -0.3828
 8116TIP3    H145763   1.934   5.606  11.436  0.3663  0.6402 -1.9531
 8116TIP3    H245764   1.924   5.663  11.576 -0.6233 -1.9372 -0.9067
 8117TIP3   OH245765   0.921   3.847  15.561 -0.1916 -0.4137 -0.6831
 8117TIP3    H145766   0.963   3.932  15.546  1.8276 -0.9200  1.4503
 8117TIP3    H245767   0.876   3.827  15.479  0.8971  1.8181 -1.9031
 8118TIP3   OH245768   0.200   1.766  14.748 -0.1814  0.0109 -0.8003
 8118TIP3    H145769   0.288   1.745  14.778 -0.6907  0.8541  1.4971
 8118TIP3    H245770   0.143   1.705  14.796 -1.0766  1.7548  0.4574
 8119TIP3   OH245771   4.530   4.204  13.168 -0.1130 -0.2015  0.0501
 8119TIP3    H145772   4.518   4.125  13.221 -0.1086  0.2652  0.7584
 8119TIP3    H245773   4.619   4.233  13.189  0.1028 -0.3310 -0.6590
 8120TIP3   OH245774   6.091   2.691   6.251 -0.5030  0.4573  0.0256
 8120TIP3    H145775   6.021   2.710   6.189 -1.2459 -1.3472  0.2469
 8120TIP3    H245776   6.049   2.636   6.318  0.6872  0.9331  1.2107
 8121TIP3   OH245777   4.951   0.851   3.300 -0.3506  0.2998 -0.0820
 8121TIP3    H145778   4.886   0.904   3.346 -0.1263 -0.0177  0.6144
 8121TIP3    H245779   5.035   0.889   3.324 -0.2146 -0.0471  0.0028
 8122TIP3   OH245780   1.771   3.279  16.281  1.0568 -0.0787 -0.1129
 8122TIP3    H145781   1.817   3.291  16.198  0.4261  1.4700 -0.2627
 8122TIP3    H245782   1.702   3.215  16.261  1.7932 -0.8068 -0.3987
 8123TIP3   OH245783   5.977   5.538  15.751 -0.2119 -0.1485 -0.3798
 8123TIP3    H145784   6.047   5.553  15.815 -0.9271  0.6812  0.2155
 8123TIP3    H245785   6.009   5.464  15.698  1.1330  0.2508 -0.1550
 8124TIP3   OH245786   1.950   4.180   3.969  0.1961 -0.9031  0.4966
 8124TIP3    H145787   1.992   4.252   3.921 -1.2251 -0.2173  0.2463
 8124TIP3    H245788   1.971   4.198   4.061 -2.0652  1.2033  0.6842
 8125TIP3   OH245789   0.712   4.097   3.866  1.1139 -0.6590  0.0534
 8125TIP3    H145790   0.669   4.029   3.919 -0.0277 -0.4049 -0.5031
 8125TIP3    H245791   0.691   4.179   3.910  1.8072 -0.6046  0.2789
 8126TIP3   OH245792   0.913   0.653   3.196 -0.1424 -0.0927 -0.2426
 8126TIP3    H145793   0.829   0.613   3.173  0.8240 -2.5264  0.1492
 8126TIP3    H245794   0.942   0.696   3.116 -1.2412 -0.1786 -0.7057
 8127TIP3   OH245795   4.947   3.867  12.986  0.3664 -0.5800 -0.4288
 8127TIP3    H145796   5.041   3.886  12.989  0.4053 -0.8789  0.6600
 8127TIP3    H245797   4.917   3.880  13.076 -0.8453  0.4719 -0.9443
 8128TIP3   OH245798   4.441   2.709  14.510  0.1484  0.5557  0.2766
 8128TIP3    H145799   4.420   2.761  14.432 -1.3410  0.0279  0.2799
 8128TIP3    H245800   4.364   2.653  14.522  0.1708  0.9018  2.3554
 8129TIP3   OH245801   5.524   6.364  14.797 -0.0790 -0.4545 -0.0698
 8129TIP3    H145802   5.513   6.276  14.762 -0.1619 -1.1353  1.5730
 8129TIP3    H245803   5.458   6.417  14.752 -0.4566 -1.3655 -0.6040
 8130TIP3   OH245804   1.659   0.465  14.594 -0.6070 -0.3814 -0.3636
 8130TIP3    H145805   1.691   0.409  14.523 -0.2012 -1.9297  1.0014
 8130TIP3    H245806   1.733   0.523  14.613 -0.4206 -0.5221 -0.6445
 8131TIP3   OH245807   2.702   4.945   2.604 -0.3320 -0.4596 -0.1338
 8131TIP3    H145808   2.648   5.023   2.616  0.5822  0.4202 -1.4463
 8131TIP3    H245809   2.756   4.941   2.683 -0.9270 -0.2260  0.2989
 8132TIP3   OH245810   4.304   1.814  16.069  0.7031 -0.0152 -0.0353
 8132TIP3    H145811   4.222   1.838  16.026 -1.4736 -4.1631  1.1689
 8132TIP3    H245812   4.362   1.786  15.997  0.0855  0.5128 -0.7477
 8133TIP3   OH245813   5.714   1.727   0.880  0.2942  0.0290 -0.1550
 8133TIP3    H145814   5.659   1.665   0.928  2.0696  0.9633  3.4303
 8133TIP3    H245815   5.653   1.782   0.832 -1.5539 -1.7054  0.0941
 8134TIP3   OH245816   0.854   3.861  13.668  0.3458 -0.3258  0.5611
 8134TIP3    H145817   0.889   3.802  13.735  1.9185 -0.1634 -0.0751
 8134TIP3    H245818   0.902   3.838  13.589 -0.4931  0.4288 -0.1893
 8135TIP3   OH245819   4.212   5.161   0.677  0.5524 -0.0867 -0.1670
 8135TIP3    H145820   4.290   5.119   0.713 -0.6725 -3.5378 -1.2060
 8135TIP3    H245821   4.171   5.203   0.753  0.4678 -3.1500  1.6254
 8136TIP3   OH245822   1.902   0.365  10.941  0.0700 -0.1596 -0.2098
 8136TIP3    H145823   1.828   0.321  10.983 -0.0478 -0.7725 -1.0388
 8136TIP3    H245824   1.963   0.383  11.013 -2.3102  3.5534  1.1454
 8137TIP3   OH245825   3.380   1.621   4.513  0.5459 -0.4691 -0.8303
 8137TIP3    H145826   3.341   1.554   4.569 -1.2890 -0.1947 -1.6909
 8137TIP3    H245827   3.350   1.599   4.425 -1.7295  2.4005 -0.9759
 8138TIP3   OH245828   1.843   3.740  15.585 -0.4315 -0.1130 -0.0093
 8138TIP3    H145829   1.799   3.725  15.669 -0.4106  1.8226  0.3997
 8138TIP3    H245830   1.933   3.712  15.601 -0.5676 -0.3278  0.4163
 8139TIP3   OH245831   6.139   0.564   5.327  0.2532  0.0209  0.4430
 8139TIP3    H145832   6.194   0.638   5.300  0.4076 -0.4908 -0.7369
 8139TIP3    H245833   6.199   0.506   5.373  0.5743 -0.2315 -0.2737
 8140TIP3   OH245834   5.679   0.353   0.643  0.7544  0.0078  0.2422
 8140TIP3    H145835   5.728   0.324   0.720 -1.0538  0.0709  1.4847
 8140TIP3    H245836   5.696   0.286   0.577  1.7984 -0.4118  0.9156
 8141TIP3   OH245837   3.997   2.987   3.757  0.0940  0.2458  0.1741
 8141TIP3    H145838   3.966   2.938   3.832 -0.1528  0.8098  0.4439
 8141TIP3    H245839   3.959   2.943   3.681  0.7323 -0.6177  0.3352
 8142TIP3   OH245840   0.385   0.536  11.931 -0.6020 -0.0184 -0.4706
 8142TIP3    H145841   0.418   0.483  11.858 -0.6851  1.2623 -1.4869
 8142TIP3    H245842   0.294   0.556  11.907 -0.2527  1.4567 -0.6684
 8143TIP3   OH245843   3.086   6.740   5.965 -0.0187  0.2760 -0.2499
 8143TIP3    H145844   3.125   6.823   5.995 -1.5863  0.2931  1.9825
 8143TIP3    H245845   3.157   6.676   5.974  1.0172  1.2004 -1.3750
 8144TIP3   OH245846   0.120   1.657  12.152  0.3233  0.6621 -0.4191
 8144TIP3    H145847   0.069   1.658  12.234  1.6673 -0.9209  0.5037
 8144TIP3    H245848   0.211   1.666  12.181  0.8522 -0.2501 -1.6951
 8145TIP3   OH245849   2.847   4.044   2.276 -0.4298 -0.9471 -0.3501
 8145TIP3    H145850   2.816   4.020   2.363 -0.5764 -0.5073 -0.2820
 8145TIP3    H245851   2.801   4.125   2.255  1.9732  0.7122  0.4833
 8146TIP3   OH245852   2.136   6.571  17.011 -0.3220  0.0624  0.2880
 8146TIP3    H145853   2.064   6.602  16.956 -1.3718  1.1552  2.1310
 8146TIP3    H245854   2.096   6.560  17.098  1.0370 -2.4185  0.6888
 8147TIP3   OH245855   4.601   0.304  11.150  0.1680 -0.3106 -0.2748
 8147TIP3    H145856   4.519   0.257  11.143 -0.1479  0.1767  0.0846
 8147TIP3    H245857   4.596   0.371  11.081  1.2056 -1.6429 -1.7209
 8148TIP3   OH245858   3.142   1.336   1.606 -0.0599 -0.0672 -0.2214
 8148TIP3    H145859   3.115   1.381   1.686  0.2538  0.5542 -0.4561
 8148TIP3    H245860   3.137   1.403   1.538  1.7527  0.0167 -0.3295
 8149TIP3   OH245861   2.369   3.201  14.684 -0.0980  0.0712  0.3476
 8149TIP3    H145862   2.301   3.156  14.635  0.9517  0.1016 -1.1959
 8149TIP3    H245863   2.406   3.134  14.741 -0.3479 -0.3453  0.0265
 8150TIP3   OH245864   4.146   4.731   0.022 -0.5021 -0.4642 -0.0924
 8150TIP3    H145865   4.183   4.767  -0.059  2.5769  1.4917  1.9478
 8150TIP3    H245866   4.198   4.653   0.039  0.7797  0.6195  1.2599
 8151TIP3   OH245867   2.473   5.931  11.649 -0.1120 -0.7500 -0.7560
 8151TIP3    H145868   2.502   5.996  11.585  0.6604 -0.7736 -0.4482
 8151TIP3    H245869   2.552   5.909  11.698 -0.5499 -1.2472 -0.2521
 8152TIP3   OH245870   1.561   6.358   3.952 -0.0993  0.1680 -0.1360
 8152TIP3    H145871   1.569   6.333   4.044 -0.5517  1.1920  0.1933
 8152TIP3    H245872   1.604   6.287   3.904 -1.0592 -1.0532  0.7721
 8153TIP3   OH245873   2.520   6.387   3.217  0.1756  0.8113  0.1221
 8153TIP3    H145874   2.440   6.335   3.216  1.6220 -1.6330  1.0483
 8153TIP3    H245875   2.573   6.347   3.286  3.9517 -0.5906 -3.2072
 8154TIP3   OH245876   0.773   2.393   5.661 -0.4402 -0.2397  0.1146
 8154TIP3    H145877   0.713   2.442   5.717  1.3314  2.5747 -0.2479
 8154TIP3    H245878   0.803   2.320   5.715 -1.0571  0.6876  1.7810
 8155TIP3   OH245879   1.321   4.737   0.577 -0.1114 -0.1296 -0.0565
 8155TIP3    H145880   1.288   4.779   0.497  0.1718  0.5099  0.1553
 8155TIP3    H245881   1.345   4.649   0.550 -0.0261  0.0816 -0.6770
 8156TIP3   OH245882   5.010   1.727   1.786  0.4256 -0.2888 -0.4522
 8156TIP3    H145883   5.041   1.680   1.709 -1.1987 -1.4974 -0.4262
 8156TIP3    H245884   5.083   1.725   1.848  0.9984 -1.1960 -1.1510
 8157TIP3   OH245885   4.265   2.274   5.573  0.3104  0.5451  0.2754
 8157TIP3    H145886   4.237   2.351   5.621 -0.1217 -0.8100  2.3369
 8157TIP3    H245887   4.234   2.200   5.626  2.1716 -1.0477 -0.7204
 8158TIP3   OH245888   3.807   5.326  11.326  0.3724 -0.4509  0.5019
 8158TIP3    H145889   3.881   5.369  11.284  0.5983 -0.2472  1.1059
 8158TIP3    H245890   3.839   5.239  11.349  0.3140 -0.4867  0.4498
 8159TIP3   OH245891   5.759   0.266  10.441 -0.4332  0.4014 -0.2443
 8159TIP3    H145892   5.716   0.244  10.524  1.9970  2.1715  1.6361
 8159TIP3    H245893   5.809   0.187  10.419 -4.6962 -1.9778 -2.8520
 8160TIP3   OH245894   6.421   0.600   1.868  0.3414  0.1897  0.0235
 8160TIP3    H145895   6.381   0.530   1.816 -1.8547  0.1671  1.5996
 8160TIP3    H245896   6.480   0.555   1.928  1.8999  0.1075 -1.4859
 8161TIP3   OH245897   0.279   1.613  16.588  0.9981 -0.0900 -0.2643
 8161TIP3    H145898   0.336   1.666  16.644  0.2587  0.3036  0.1326
 8161TIP3    H245899   0.317   1.525  16.591  1.2842  0.0509  0.4074
 8162TIP3   OH245900   0.982   4.410  12.907 -0.5737 -0.8197 -0.0427
 8162TIP3    H145901   1.042   4.399  12.833 -0.3732 -1.2746  0.1815
 8162TIP3    H245902   0.968   4.321  12.939  1.3490 -0.4702  2.0430
 8163TIP3   OH245903   5.072   5.749   6.285 -0.1695  0.0885 -0.2193
 8163TIP3    H145904   5.080   5.710   6.372 -1.6445 -1.0462 -0.5434
 8163TIP3    H245905   5.162   5.755   6.253  0.2410 -1.4183  0.5629
 8164TIP3   OH245906   0.699   5.852  12.234 -0.1846  0.1246  0.2515
 8164TIP3    H145907   0.648   5.927  12.205 -1.6295 -0.4177  1.2669
 8164TIP3    H245908   0.758   5.886  12.301  0.4620  0.6621 -0.5691
 8165TIP3   OH245909   6.412   5.570  13.581 -0.6583  0.3318 -0.4258
 8165TIP3    H145910   6.325   5.590  13.617 -0.1455  2.3973 -0.2229
 8165TIP3    H245911   6.471   5.628  13.629  0.9016 -1.2871 -0.3254
 8166TIP3   OH245912   5.111   4.197   3.981 -0.5134 -0.1483 -0.4613
 8166TIP3    H145913   5.194   4.155   3.957 -0.7914 -1.7560  1.1539
 8166TIP3    H245914   5.075   4.140   4.049 -3.2658  0.1568 -1.5463
 8167TIP3   OH245915   3.805   4.800   2.713  0.0653 -0.8461  0.2745
 8167TIP3    H145916   3.731   4.844   2.755  0.1044 -1.4291  0.9511
 8167TIP3    H245917   3.802   4.710   2.744  1.7062 -0.6231  1.1871
 8168TIP3   OH245918   3.333   3.196   2.996  0.3219  0.4412 -0.4303
 8168TIP3    H145919   3.423   3.164   3.007  0.3203 -0.1546 -1.8981
 8168TIP3    H245920   3.324   3.264   3.063  1.2241 -0.7795  1.0161
 8169TIP3   OH245921   6.670   1.471  13.262 -0.8253  0.0562 -0.4766
 8169TIP3    H145922   6.730   1.411  13.305 -1.3868 -1.0969 -1.2473
 8169TIP3    H245923   6.663   1.545  13.322  1.7668  0.5117 -0.5907
 8170TIP3   OH245924   6.102   0.741  14.387 -0.6588  0.3817 -0.0671
 8170TIP3    H145925   6.085   0.649  14.363  1.9983 -0.6576  1.6494
 8170TIP3    H245926   6.080   0.745  14.480  0.9130  0.9826  0.3030
 8171TIP3   OH245927   5.355   2.822  14.553  0.0236  0.8176 -0.2794
 8171TIP3    H145928   5.262   2.811  14.538  0.0974 -1.3880  0.5355
 8171TIP3    H245929   5.397   2.787  14.475  0.1887 -2.0596  0.9777
 8172TIP3   OH245930   2.490   1.814   2.184  0.0543  0.4396  0.1476
 8172TIP3    H145931   2.457   1.805   2.274 -1.1726 -0.0344 -0.3303
 8172TIP3    H245932   2.433   1.879   2.144 -1.8882 -1.9785 -1.3614
 8173TIP3   OH245933   2.423   6.085   2.542  0.3925 -0.6851  0.0472
 8173TIP3    H145934   2.350   6.146   2.549 -0.6117 -1.8325 -0.1124
 8173TIP3    H245935   2.446   6.086   2.449  1.6136  0.7986  0.3195
 8174TIP3   OH245936   4.144   2.468  13.757 -0.0398 -0.4044  0.2745
 8174TIP3    H145937   4.206   2.399  13.780 -0.7519 -2.1692 -2.5322
 8174TIP3    H245938   4.187   2.518  13.687 -0.3931  0.6580  0.7899
 8175TIP3   OH245939   0.229   0.007  11.309  0.3640 -0.0016  1.0105
 8175TIP3    H145940   0.172  -0.065  11.281  0.9960 -0.3474  0.5994
 8175TIP3    H245941   0.191   0.085  11.269  0.4798 -0.3060  0.2992
 8176TIP3   OH245942   2.642   0.595  11.845  0.4149 -0.2096  0.4987
 8176TIP3    H145943   2.588   0.516  11.848  0.9050 -0.6318 -0.8369
 8176TIP3    H245944   2.732   0.563  11.848  0.6147  0.3926  1.2649
 8177TIP3   OH245945   1.010   3.186  15.057 -0.1067 -0.1995  0.2775
 8177TIP3    H145946   0.983   3.216  15.144 -0.0446  1.2481 -0.1757
 8177TIP3    H245947   1.106   3.184  15.060 -0.1231 -1.7057  0.7139
 8178TIP3   OH245948   4.396   0.986  13.659  0.8084  0.2422  0.0115
 8178TIP3    H145949   4.341   0.997  13.582  0.8860  1.6459  0.1285
 8178TIP3    H245950   4.341   0.941  13.723  0.2616  0.3979 -0.3515
 8179TIP3   OH245951   1.754   2.766   0.251 -0.0871 -0.6806  0.2581
 8179TIP3    H145952   1.688   2.799   0.312  0.5714 -0.0730  0.6540
 8179TIP3    H245953   1.755   2.671   0.266  1.7542 -0.3430  2.9800
 8180TIP3   OH245954   1.344   1.134   2.490  0.0894 -0.1556 -0.0454
 8180TIP3    H145955   1.264   1.153   2.442  0.4828  0.8381 -0.3367
 8180TIP3    H245956   1.401   1.208   2.472  0.8196 -0.5084  0.7239
 8181TIP3   OH245957   0.169   6.047   3.869 -0.0992  0.6677 -0.3616
 8181TIP3    H145958   0.220   6.067   3.947 -1.5217 -2.7995  1.6748
 8181TIP3    H245959   0.233   6.018   3.804  0.8656  0.6348  0.5880
 8182TIP3   OH245960   0.098   2.136  14.525  0.0968 -0.2102 -0.1430
 8182TIP3    H145961   0.013   2.132  14.482  0.0823 -1.5022 -0.0093
 8182TIP3    H245962   0.139   2.051  14.507 -0.0764 -0.9778  2.7031
 8183TIP3   OH245963   3.743   4.300  12.648 -0.0178  0.4011 -0.0391
 8183TIP3    H145964   3.698   4.373  12.605  1.1465  1.1543 -0.0156
 8183TIP3    H245965   3.791   4.340  12.720 -0.4994 -0.6038  0.8770
 8184TIP3   OH245966   0.613   5.552   3.157 -0.5982 -0.6635  0.0386
 8184TIP3    H145967   0.585   5.551   3.249  0.8193  2.9266  0.6557
 8184TIP3    H245968   0.709   5.550   3.161 -0.4917  0.4865 -1.2894
 8185TIP3   OH245969   6.107   4.851   3.111 -0.4254  0.2828  0.1203
 8185TIP3    H145970   6.037   4.913   3.095 -1.2146 -1.1462 -2.6233
 8185TIP3    H245971   6.184   4.905   3.130 -1.3827  2.0292 -0.8034
 8186TIP3   OH245972   5.912   6.324  15.090  0.0611 -0.6341  0.3569
 8186TIP3    H145973   5.904   6.347  14.998  0.1404  0.1819  0.5498
 8186TIP3    H245974   5.907   6.228  15.091 -0.8428 -0.6112 -0.4084
 8187TIP3   OH245975   0.851   4.321   0.628  0.0447 -0.3801 -0.1612
 8187TIP3    H145976   0.819   4.411   0.624  2.0582  0.3909 -0.4299
 8187TIP3    H245977   0.811   4.284   0.707 -0.3498  0.9428  0.2797
 8188TIP3   OH245978   3.766   1.141   5.312 -0.8728  0.3760  0.1439
 8188TIP3    H145979   3.694   1.112   5.368 -0.3487 -0.6983  0.2885
 8188TIP3    H245980   3.735   1.223   5.273 -1.6030  0.6724  1.3055
 8189TIP3   OH245981   5.388   3.700  11.365 -0.1324  0.0593 -0.4702
 8189TIP3    H145982   5.329   3.774  11.376  0.2974  0.4970 -1.0222
 8189TIP3    H245983   5.344   3.627  11.407 -1.8325 -0.0205 -2.2343
 8190TIP3   OH245984   4.135   2.062  13.609 -0.5134 -0.0391  0.0654
 8190TIP3    H145985   4.148   1.999  13.538  0.0579 -2.4481  2.1706
 8190TIP3    H245986   4.083   2.133  13.569  0.7812 -0.6600 -3.0050
 8191TIP3   OH245987   0.745   4.324  12.146  0.3737 -0.5873 -0.4147
 8191TIP3    H145988   0.760   4.239  12.104 -1.7152 -1.2417  0.0761
 8191TIP3    H245989   0.824   4.374  12.126  1.3702 -2.3994 -1.2932
 8192TIP3   OH245990   0.194   6.507   5.830  0.2788 -0.8757 -0.4482
 8192TIP3    H145991   0.125   6.470   5.886  0.9560 -1.7086 -0.1422
 8192TIP3    H245992   0.168   6.598   5.818  0.2425 -0.5836  1.4551
 8193TIP3   OH245993   2.159   5.658  13.711 -0.3501 -0.4567  0.3081
 8193TIP3    H145994   2.248   5.671  13.678  0.3478 -0.8385  1.9020
 8193TIP3    H245995   2.102   5.670  13.635  1.0700 -0.2875 -0.7621
 8194TIP3   OH245996   5.661   4.656  14.287  0.1128  0.2992 -0.0408
 8194TIP3    H145997   5.575   4.688  14.259  0.6034  2.2605  0.5342
 8194TIP3    H245998   5.715   4.659  14.209 -0.2811 -0.8109 -0.3737
 8195TIP3   OH245999   0.055   5.906  14.941 -0.4765  0.7454  0.0336
 8195TIP3    H146000   0.124   5.936  15.000 -1.4291 -0.7591  2.0323
 8195TIP3    H246001   0.078   5.815  14.921 -0.2637  1.1811 -1.8238
 8196TIP3   OH246002   6.643   2.975  14.707  0.1279  0.0501 -0.1557
 8196TIP3    H146003   6.678   3.046  14.762  0.5242  0.6277 -1.1275
 8196TIP3    H246004   6.642   2.898  14.764 -1.8599  1.1648  1.4517
 8197TIP3   OH246005   5.116   2.154  16.454  0.6922 -0.0674 -0.1577
 8197TIP3    H146006   5.105   2.097  16.378 -1.7843 -0.8430  0.6936
 8197TIP3    H246007   5.129   2.094  16.527 -1.1288  0.4167  0.6230
 8198TIP3   OH246008   4.686   4.592  13.070  0.1522 -0.4841  0.2814
 8198TIP3    H146009   4.766   4.539  13.069  0.3444 -0.2437 -1.7542
 8198TIP3    H246010   4.662   4.596  13.162  2.6248 -0.3585  1.0114
 8199TIP3   OH246011   1.542   4.157   4.740  1.1210  0.1206 -0.0816
 8199TIP3    H146012   1.539   4.225   4.672  0.6288  0.3069  0.1175
 8199TIP3    H246013   1.546   4.206   4.822  2.0950 -0.1043  0.0204
 8200TIP3   OH246014   0.337   5.131  14.271 -0.4455  0.1751 -0.0665
 8200TIP3    H146015   0.369   5.102  14.357  0.9957  0.1538 -0.5781
 8200TIP3    H246016   0.245   5.151  14.285 -0.5040 -0.8942  1.2211
 8201TIP3   OH246017   2.373   3.203   2.277 -0.4558  0.3759  0.4985
 8201TIP3    H146018   2.432   3.180   2.205 -0.1928 -0.5277  0.9818
 8201TIP3    H246019   2.294   3.236   2.234  0.1949  1.0891 -0.1679
 8202TIP3   OH246020   3.914   6.766   2.487  0.4694  0.1595  0.1114
 8202TIP3    H146021   3.861   6.773   2.567 -1.6106  0.5290 -1.2089
 8202TIP3    H246022   3.891   6.845   2.437 -0.0176 -1.1328 -1.8109
 8203TIP3   OH246023   3.119   3.789  13.277  0.3943 -0.3642  0.2872
 8203TIP3    H146024   3.088   3.868  13.322  0.0274 -1.1054  1.3777
 8203TIP3    H246025   3.186   3.753  13.335 -0.3678 -1.5604  0.4781
 8204TIP3   OH246026   2.041   5.666  13.176 -0.1993 -0.1072 -0.0403
 8204TIP3    H146027   1.956   5.701  13.148 -0.3434 -0.6075 -0.2249
 8204TIP3    H246028   2.105   5.712  13.121 -0.4145 -0.4098 -0.5447
 8205TIP3   OH246029   2.274   0.520   1.624 -0.2706  0.4750 -0.0755
 8205TIP3    H146030   2.359   0.545   1.587  0.6694 -1.3318  0.7255
 8205TIP3    H246031   2.237   0.458   1.561 -1.0892  1.3620 -0.4912
 8206TIP3   OH246032   0.201   5.730  11.019 -0.0640 -0.0677 -0.2128
 8206TIP3    H146033   0.166   5.809  11.059 -0.5021 -1.2568  1.8920
 8206TIP3    H246034   0.206   5.750  10.926 -1.7686  1.8222  0.0462
 8207TIP3   OH246035   3.856   0.175   3.006 -0.9285 -0.2434 -0.4114
 8207TIP3    H146036   3.788   0.242   3.000 -1.0059 -0.2308  0.5703
 8207TIP3    H246037   3.813   0.094   2.977 -1.5697 -0.3763  0.8637
 8208TIP3   OH246038   3.687   1.723   3.518  0.2182  0.6278 -0.2376
 8208TIP3    H146039   3.708   1.630   3.519 -0.3456  0.4971  0.4050
 8208TIP3    H246040   3.593   1.726   3.499 -0.2445  0.9415  1.9007
 8209TIP3   OH246041   1.063   3.963  16.590  0.0875 -0.0088 -0.0526
 8209TIP3    H146042   1.119   3.886  16.578  0.6143 -0.0137  1.9791
 8209TIP3    H246043   1.124   4.037  16.591 -0.0697  0.1248  0.7713
 8210TIP3   OH246044   3.784   2.881   4.883 -0.2526 -0.0344 -0.5962
 8210TIP3    H146045   3.842   2.827   4.936 -0.8727  0.2909  0.4522
 8210TIP3    H246046   3.741   2.939   4.946 -2.5728 -1.0337 -1.1374
 8211TIP3   OH246047   5.372   5.759  12.989  0.5306  0.5030 -0.1259
 8211TIP3    H146048   5.334   5.815  12.921 -0.3914 -0.8744 -0.7983
 8211TIP3    H246049   5.433   5.816  13.035 -0.3806  2.0676 -0.7480
 8212TIP3   OH246050   1.578   1.076   2.185  0.0069 -0.0507 -0.2836
 8212TIP3    H146051   1.538   1.162   2.195 -2.5217 -1.0775 -0.7189
 8212TIP3    H246052   1.653   1.091   2.127 -0.7207  1.7624 -0.8207
 8213TIP3   OH246053   2.677   1.035   0.748  0.8020  0.6633 -0.0880
 8213TIP3    H146054   2.749   1.083   0.789  1.1455  1.1786 -1.2300
 8213TIP3    H246055   2.679   1.064   0.656 -0.0256 -0.3149 -0.4320
 8214TIP3   OH246056   5.586   2.088  10.736  0.0365 -0.5361  0.3511
 8214TIP3    H146057   5.596   2.117  10.645  2.1460 -1.1872  0.3313
 8214TIP3    H246058   5.559   1.996  10.729  1.0640 -0.8542  0.3388
 8215TIP3   OH246059   3.225   4.664  14.729 -0.9987  0.6180  0.2808
 8215TIP3    H146060   3.294   4.611  14.769 -2.0283 -0.7694  0.3290
 8215TIP3    H246061   3.270   4.721  14.667  0.2026 -0.1088  0.4534
 8216TIP3   OH246062   4.620   6.226  16.953  0.0468 -0.6443  0.3392
 8216TIP3    H146063   4.539   6.229  16.902 -1.4347 -1.7944  2.4800
 8216TIP3    H246064   4.610   6.148  17.008  1.9806  0.0074  1.6862
 8217TIP3   OH246065   4.307   3.432   3.251 -0.7391  0.7064  0.1288
 8217TIP3    H146066   4.403   3.434   3.249 -0.7500  1.9680  0.4708
 8217TIP3    H246067   4.284   3.353   3.202  0.4858  0.1387  0.4350
 8218TIP3   OH246068   4.154   5.927   0.969  0.2702 -0.3676 -0.2694
 8218TIP3    H146069   4.226   5.968   1.018 -0.7032 -0.0364  0.9397
 8218TIP3    H246070   4.183   5.929   0.878  1.1941  1.0429  0.0165
 8219TIP3   OH246071   6.127   5.939  13.840 -0.4011 -0.0010 -0.5796
 8219TIP3    H146072   6.164   5.853  13.820 -0.6484 -0.3208  0.2701
 8219TIP3    H246073   6.189   6.002  13.804  0.9559 -0.5130  0.7563
 8220TIP3   OH246074   0.175   3.591  14.822  0.6025  0.5205 -0.4103
 8220TIP3    H146075   0.234   3.571  14.750 -0.2004  1.0110 -1.2360
 8220TIP3    H246076   0.205   3.676  14.855 -0.4173  1.4300 -1.7124
 8221TIP3   OH246077   4.727   5.027   4.017  0.5650 -0.1229 -0.4776
 8221TIP3    H146078   4.634   5.026   4.041  1.1237  1.7574  2.3115
 8221TIP3    H246079   4.729   5.060   3.928 -1.4415  0.3799 -0.3790
 8222TIP3   OH246080   1.268   4.136  16.511 -0.1516  0.4514  0.1786
 8222TIP3    H146081   1.299   4.218  16.473 -0.6413  1.5456  2.0221
 8222TIP3    H246082   1.323   4.123  16.589 -0.2457 -0.8460  0.0512
 8223TIP3   OH246083   2.455   3.241   0.729  0.1312  0.3817 -0.2300
 8223TIP3    H146084   2.417   3.164   0.686  0.5759  0.9540 -1.7251
 8223TIP3    H246085   2.425   3.315   0.676  1.8944  0.9948 -0.4329
 8224TIP3   OH246086   6.558   4.010  11.511  0.0672 -0.2363  0.3237
 8224TIP3    H146087   6.521   3.952  11.445  1.4493 -2.2557  1.2226
 8224TIP3    H246088   6.483   4.059  11.545 -0.9720 -0.6605 -1.2623
 8225TIP3   OH246089   2.759   2.859   0.032 -0.1000 -0.3310 -0.4257
 8225TIP3    H146090   2.824   2.833   0.097 -1.7072 -0.0233  1.3696
 8225TIP3    H246091   2.775   2.952   0.019 -1.4259  0.2183  1.5592
 8226TIP3   OH246092   6.443   2.661  11.436 -0.4440 -0.7601 -0.1447
 8226TIP3    H146093   6.422   2.596  11.370 -1.0408  0.2792 -1.0177
 8226TIP3    H246094   6.370   2.723  11.433  0.3748  0.2571  0.2393
 8227TIP3   OH246095   4.370   4.274  12.319 -0.2657  0.4177  0.4532
 8227TIP3    H146096   4.328   4.194  12.352  1.7141 -0.5069  0.8935
 8227TIP3    H246097   4.403   4.317  12.398  1.8057 -0.2174 -0.0225
 8228TIP3   OH246098   4.521   6.773   2.962 -1.1925 -0.0865  0.0993
 8228TIP3    H146099   4.598   6.819   2.994 -0.1140 -2.3158  0.9673
 8228TIP3    H246100   4.468   6.757   3.040 -1.1760 -0.9393 -0.0544
 8229TIP3   OH246101   6.446   4.522  16.857 -0.8797 -0.9977 -0.5397
 8229TIP3    H146102   6.411   4.471  16.784 -0.5989  1.3065 -2.4218
 8229TIP3    H246103   6.541   4.518  16.844 -0.7077 -2.0237  0.8130
 8230TIP3   OH246104   1.632   1.941  16.094  0.0638 -0.0009 -0.0841
 8230TIP3    H146105   1.623   1.870  16.031 -0.1321 -0.7651  0.7745
 8230TIP3    H246106   1.542   1.965  16.116  0.1291  0.5901 -0.4503
 8231TIP3   OH246107   5.446   3.286  13.553  0.1782 -0.0284 -0.2397
 8231TIP3    H146108   5.498   3.224  13.501 -0.5089 -0.7515 -0.0791
 8231TIP3    H246109   5.477   3.274  13.643  0.5300  0.3657 -0.3054
 8232TIP3   OH246110   3.418   1.569  10.934  0.2049  0.3767  0.2031
 8232TIP3    H146111   3.371   1.582  10.851 -0.1113 -2.0904 -0.0927
 8232TIP3    H246112   3.391   1.481  10.963  2.5467 -0.0160  1.4362
 8233TIP3   OH246113   3.185   0.474   3.811 -0.2379  0.3569  0.1484
 8233TIP3    H146114   3.119   0.436   3.754 -0.9913 -0.7944  1.7055
 8233TIP3    H246115   3.259   0.413   3.805 -0.6726 -0.2888  1.0738
 8234TIP3   OH246116   0.814   2.401  16.378 -0.2911 -0.4367  0.4556
 8234TIP3    H146117   0.723   2.374  16.389 -0.5169  0.7548  1.7625
 8234TIP3    H246118   0.836   2.445  16.460  1.9964 -2.1344  0.8749
 8235TIP3   OH246119   0.278   0.735  15.432 -0.2605 -0.0524  0.2712
 8235TIP3    H146120   0.183   0.730  15.445 -0.2780 -0.7485 -0.1223
 8235TIP3    H246121   0.293   0.825  15.404 -1.2073 -0.7449 -2.8171
 8236TIP3   OH246122   2.460   3.635  11.157  0.1038  0.3400 -0.1492
 8236TIP3    H146123   2.506   3.668  11.233  0.3959  1.0247 -0.6156
 8236TIP3    H246124   2.423   3.713  11.115 -0.3075 -0.0585 -0.5444
 8237TIP3   OH246125   0.262   6.036  13.342 -0.2802  0.2856 -0.1500
 8237TIP3    H146126   0.326   5.967  13.357 -0.2972 -0.0388 -1.4337
 8237TIP3    H246127   0.314   6.114  13.324 -0.2437  0.1790 -0.5144
 8238TIP3   OH246128   5.160   2.798   6.172 -0.0536 -0.1875 -0.3887
 8238TIP3    H146129   5.247   2.800   6.212 -0.1804 -0.2270 -0.1089
 8238TIP3    H246130   5.136   2.705   6.172 -0.5434 -0.0816  0.5205
 8239TIP3   OH246131   5.721   5.387   3.062 -0.6834  0.3479 -0.0733
 8239TIP3    H146132   5.668   5.339   3.125  0.5478 -0.0061  0.7343
 8239TIP3    H246133   5.783   5.436   3.115  0.7902 -0.4405 -1.0027
 8240TIP3   OH246134   3.861   2.516   2.856 -0.3028 -0.2262 -0.2263
 8240TIP3    H146135   3.885   2.598   2.814 -1.6675 -0.0618 -0.7549
 8240TIP3    H246136   3.887   2.526   2.947  0.3001  0.4550 -0.4663
 8241TIP3   OH246137   1.295   2.047   2.503 -0.3294  0.0022  0.9414
 8241TIP3    H146138   1.329   2.137   2.506  0.4786 -0.2517 -0.0263
 8241TIP3    H246139   1.362   1.998   2.455 -1.6527 -0.7252 -0.2320
 8242TIP3   OH246140   4.866   1.766  12.498  0.3363  0.0441 -0.3967
 8242TIP3    H146141   4.827   1.773  12.411  2.7658 -2.9050 -1.9473
 8242TIP3    H246142   4.827   1.687  12.536  1.6636 -0.5699 -0.2524
 8243TIP3   OH246143   2.139   2.338  11.673 -0.2594  0.2227  0.3544
 8243TIP3    H146144   2.099   2.283  11.605  2.4124 -1.9347  0.3521
 8243TIP3    H246145   2.078   2.333  11.747 -3.9269  3.6558 -1.9762
 8244TIP3   OH246146   1.015   5.520  15.475  0.2354 -0.1874 -0.1414
 8244TIP3    H146147   1.054   5.557  15.396 -0.2541 -0.4848 -0.5251
 8244TIP3    H246148   0.988   5.597  15.527 -2.5958  0.0929 -1.8236
 8245TIP3   OH246149   1.135   4.863   4.070 -0.2906  0.0071  0.7117
 8245TIP3    H146150   1.042   4.842   4.073 -0.2829  0.0521  2.1149
 8245TIP3    H246151   1.138   4.958   4.074 -0.2058  0.1373 -1.3100
 8246TIP3   OH246152   5.046   2.343   3.569  0.2654 -0.2283 -0.3714
 8246TIP3    H146153   5.045   2.254   3.605 -0.6415  0.5222  1.5919
 8246TIP3    H246154   5.109   2.390   3.624  0.1214  0.5454 -0.8578
 8247TIP3   OH246155   2.588   2.578   1.613 -0.6861 -0.0305 -0.0413
 8247TIP3    H146156   2.571   2.509   1.549  0.9712 -0.9888  0.4858
 8247TIP3    H246157   2.666   2.623   1.580 -0.3084  0.0045  0.8489
 8248TIP3   OH246158   1.173   1.581   4.053 -0.5019 -0.6640 -0.1001
 8248TIP3    H146159   1.113   1.613   4.121  1.2968 -1.1330  1.8138
 8248TIP3    H246160   1.193   1.659   4.001 -0.8665  0.0273  0.7595
 8249TIP3   OH246161   5.240   2.708   3.495  0.3118  0.1227 -0.1124
 8249TIP3    H146162   5.334   2.718   3.479  0.6885  0.4721  2.0905
 8249TIP3    H246163   5.231   2.622   3.536 -0.5101 -0.4084 -1.3245
 8250TIP3   OH246164   2.722   5.024  14.075  0.4675 -0.1038  0.1898
 8250TIP3    H146165   2.729   5.115  14.047 -1.5261  0.2083  0.5006
 8250TIP3    H246166   2.704   4.975  13.995 -0.4015  0.0903  0.2493
 8251TIP3   OH246167   6.090   2.165  12.149 -0.1826  0.1228  0.8721
 8251TIP3    H146168   6.053   2.136  12.233 -1.0729 -1.1833  0.0705
 8251TIP3    H246169   6.013   2.184  12.095  0.2973 -1.4683 -0.4457
 8252TIP3   OH246170   6.051   3.689   0.702 -0.1573  0.3459 -0.8394
 8252TIP3    H146171   6.079   3.601   0.676  0.3765 -0.0300  0.8589
 8252TIP3    H246172   6.133   3.738   0.713 -0.3580  0.5350 -0.1068
 8253TIP3   OH246173   1.691   5.683  14.749 -0.6867 -0.3752  0.4506
 8253TIP3    H146174   1.608   5.636  14.738  0.0079 -1.6357  0.4190
 8253TIP3    H246175   1.684   5.758  14.690 -1.2766 -1.2195 -0.5876
 8254TIP3   OH246176   1.927   4.239  13.927 -0.3984  0.2698  0.9406
 8254TIP3    H146177   1.960   4.161  13.881 -2.2848 -1.0407  1.6791
 8254TIP3    H246178   2.004   4.275  13.971  0.5833 -1.0600  0.3939
 8255TIP3   OH246179   2.526   0.425  16.895 -0.0823 -0.4181 -1.0177
 8255TIP3    H146180   2.481   0.352  16.936 -0.8185  1.8192  2.6089
 8255TIP3    H246181   2.459   0.466  16.839 -1.6271  0.7949  1.5568
 8256TIP3   OH246182   3.341   2.773  13.376  1.2232  0.8601  0.4751
 8256TIP3    H146183   3.429   2.801  13.352  0.7998  1.7825 -0.0491
 8256TIP3    H246184   3.320   2.705  13.312  1.5003  0.7210  0.5283
 8257TIP3   OH246185   0.113   4.149   0.873 -0.1186 -0.2774 -0.3551
 8257TIP3    H146186   0.175   4.169   0.944  0.5927 -1.3365 -0.6697
 8257TIP3    H246187   0.100   4.233   0.829  2.6395 -0.3456 -1.5083
 8258TIP3   OH246188   5.898   6.297   3.353  0.1802  0.5677 -0.4152
 8258TIP3    H146189   5.840   6.243   3.299  1.1784 -2.0444  0.9746
 8258TIP3    H246190   5.851   6.380   3.362 -2.0651 -0.4829 -1.5582
 8259TIP3   OH246191   2.885   2.386   5.998  0.3096 -0.1009  0.4842
 8259TIP3    H146192   2.927   2.464   6.035  1.0043 -0.5071  0.5751
 8259TIP3    H246193   2.819   2.420   5.937  1.5166  0.5585 -0.4964
 8260TIP3   OH246194   1.669   0.962  10.798 -0.0626  0.3261  0.4666
 8260TIP3    H146195   1.745   0.955  10.855  0.3058 -4.5420 -0.1547
 8260TIP3    H246196   1.594   0.965  10.858  0.4733 -0.4980  1.2022
 8261TIP3   OH246197   3.630   0.569  14.766  0.0247  0.0805 -0.6663
 8261TIP3    H146198   3.704   0.622  14.795  0.2182 -0.7875  0.4795
 8261TIP3    H246199   3.553   0.620  14.790  0.2223  0.2644 -0.4239
 8262TIP3   OH246200   5.469   2.067   3.457  0.6661  0.1789 -0.0662
 8262TIP3    H146201   5.438   2.093   3.370  1.9149  0.4881 -0.4392
 8262TIP3    H246202   5.497   2.149   3.498 -1.4733  0.3026  1.3276
 8263TIP3   OH246203   2.198   2.252   0.174  0.1594  0.4935 -0.4787
 8263TIP3    H146204   2.253   2.185   0.132 -0.1935  0.8959 -1.6110
 8263TIP3    H246205   2.137   2.279   0.106 -0.2141  1.4167  0.2044
 8264TIP3   OH246206   4.795   0.646   5.311  0.0144 -0.1519 -0.4528
 8264TIP3    H146207   4.860   0.578   5.326 -1.0003 -0.7749  1.4946
 8264TIP3    H246208   4.722   0.623   5.368 -1.1735  1.5160 -1.1965
 8265TIP3   OH246209   0.228   6.408   0.013 -0.2787  0.0134  0.4452
 8265TIP3    H146210   0.202   6.323   0.049  0.3015 -0.4902 -0.3062
 8265TIP3    H246211   0.234   6.395  -0.081  1.0273  0.5439  0.4196
 8266TIP3   OH246212   3.093   1.357   0.017  0.4976  0.4382 -0.2327
 8266TIP3    H146213   3.016   1.339  -0.037  1.5779 -0.9492 -1.4019
 8266TIP3    H246214   3.066   1.427   0.076 -1.1876  1.0252 -1.6286
 8267TIP3   OH246215   4.994   1.028  13.278  0.4190 -0.4700 -0.1402
 8267TIP3    H146216   4.952   1.070  13.352 -1.0135 -1.6134 -0.2709
 8267TIP3    H246217   5.029   0.946  13.313  1.8385  0.0703 -0.2266
 8268TIP3   OH246218   4.842   2.249   0.971 -0.2234  0.2450 -0.2133
 8268TIP3    H146219   4.824   2.341   0.991  1.2257  0.5493 -0.2150
 8268TIP3    H246220   4.923   2.250   0.919 -1.5513 -0.8493 -2.4757
 8269TIP3   OH246221   2.016   3.513  11.439  0.0888 -0.6062 -0.7103
 8269TIP3    H146222   1.977   3.600  11.439  0.3277 -0.4599  1.1190
 8269TIP3    H246223   1.957   3.460  11.492  1.3603 -0.8483  0.5198
 8270TIP3   OH246224   6.276   5.932   2.744 -0.2262  0.7507  0.2929
 8270TIP3    H146225   6.317   5.971   2.821 -2.1849  0.3807  1.5983
 8270TIP3    H246226   6.193   5.978   2.734 -0.6425 -0.1534 -0.7530
 8271TIP3   OH246227   2.999   3.532   0.136  0.0285 -0.0537  0.5993
 8271TIP3    H146228   3.019   3.544   0.043  1.0328  1.7177  0.9908
 8271TIP3    H246229   3.067   3.471   0.167  1.4992  1.5664  0.7236
 8272TIP3   OH246230   4.607   2.224  16.376  1.0265  0.0073  0.3385
 8272TIP3    H146231   4.616   2.184  16.290  0.2500  0.0070  0.2510
 8272TIP3    H246232   4.693   2.264  16.394  1.3468 -0.4355 -0.2048
 8273TIP3   OH246233   4.424   1.774  15.304 -0.0152 -0.0087  0.1817
 8273TIP3    H146234   4.456   1.686  15.287  0.2612  0.2735 -0.8222
 8273TIP3    H246235   4.500   1.820  15.341  0.4393  0.3358 -1.1170
 8274TIP3   OH246236   2.742   5.102   1.173  0.2183 -0.1501 -0.5064
 8274TIP3    H146237   2.795   5.160   1.227 -0.2933  3.1057 -3.1711
 8274TIP3    H246238   2.659   5.147   1.163 -0.9208 -2.2843 -1.2523
 8275TIP3   OH246239   5.541   3.217   3.949 -0.3940  0.1914 -0.1121
 8275TIP3    H146240   5.540   3.313   3.949 -1.7582  0.2187  1.0657
 8275TIP3    H246241   5.615   3.194   4.005  1.4695  0.4614 -2.3024
 8276TIP3   OH246242   5.968   4.771   3.504 -0.6057  0.0389 -0.2767
 8276TIP3    H146243   5.877   4.795   3.489 -0.6696  0.8093  1.1507
 8276TIP3    H246244   5.971   4.677   3.489 -1.3799  0.1771 -1.4312
 8277TIP3   OH246245   0.186   3.612   2.512  0.4578 -0.3214 -0.1371
 8277TIP3    H146246   0.156   3.691   2.468 -1.3898 -1.5790 -1.2922
 8277TIP3    H246247   0.120   3.595   2.579  1.7219 -0.0209  1.2411
 8278TIP3   OH246248   1.382   5.384  13.499  0.2010  0.6408 -0.0976
 8278TIP3    H146249   1.472   5.366  13.471  0.8069  2.0039  0.8808
 8278TIP3    H246250   1.350   5.450  13.437 -0.1892  0.0586 -0.5275
 8279TIP3   OH246251   0.057   0.041   2.986  0.3090 -0.3651 -0.1636
 8279TIP3    H146252   0.027  -0.045   3.015 -0.5539  0.5927  1.9856
 8279TIP3    H246253   0.146   0.027   2.956  0.4379 -1.8914  0.8433
 8280TIP3   OH246254   4.677   2.995   2.708  0.0581  0.8599 -0.1102
 8280TIP3    H146255   4.594   3.004   2.756  0.8381  1.4316  1.1762
 8280TIP3    H246256   4.742   3.033   2.766  1.2557  0.2860 -1.0460
 8281TIP3   OH246257   3.304   2.189   4.050 -0.5028  0.0773 -0.4585
 8281TIP3    H146258   3.247   2.113   4.060 -0.5635  0.1463 -0.2585
 8281TIP3    H246259   3.390   2.159   4.079 -0.7150  0.3227  0.4647
 8282TIP3   OH246260   5.078   2.475  11.595  0.7828 -0.3011  0.6412
 8282TIP3    H146261   4.985   2.478  11.573  0.8660  1.8288  0.3612
 8282TIP3    H246262   5.122   2.492  11.512  1.3624  0.4219  1.0913
 8283TIP3   OH246263   3.230   1.650   5.689  0.0967  0.8261  0.1856
 8283TIP3    H146264   3.272   1.611   5.613 -1.2241  1.5995 -0.9837
 8283TIP3    H246265   3.188   1.730   5.656 -0.8049  1.0089  1.6490
 8284TIP3   OH246266   5.275   1.997  15.009  0.4525  0.7121  0.0919
 8284TIP3    H146267   5.340   1.938  14.970 -0.4732  0.9545 -1.9115
 8284TIP3    H246268   5.201   1.941  15.029 -0.6215  1.1792 -2.2642
 8285TIP3   OH246269   1.705   3.641   4.018 -0.1576  0.5131  0.0756
 8285TIP3    H146270   1.698   3.736   4.008 -0.8208  0.4100 -0.5521
 8285TIP3    H246271   1.693   3.626   4.111  1.3390  1.1514  0.3994
 8286TIP3   OH246272   1.811   4.379  13.469 -0.0706  0.0623 -0.2979
 8286TIP3    H146273   1.719   4.376  13.494  0.0903 -0.3995  0.2637
 8286TIP3    H246274   1.818   4.456  13.412 -0.5707  0.7887  0.5991
 8287TIP3   OH246275   0.766   1.911  13.009 -0.4389  0.2816  0.4907
 8287TIP3    H146276   0.833   1.842  13.003  0.1397  0.7801  1.0298
 8287TIP3    H246277   0.684   1.867  12.987  0.3010  0.0928 -2.3061
 8288TIP3   OH246278   0.563   2.513  16.080  0.0490 -0.0208 -0.4584
 8288TIP3    H146279   0.550   2.423  16.111 -0.8043  0.2177 -0.0968
 8288TIP3    H246280   0.615   2.555  16.149 -1.1909  0.2916  0.3212
 8289TIP3   OH246281   1.470   1.117   0.333 -0.0677 -0.1713 -0.1826
 8289TIP3    H146282   1.428   1.041   0.292 -2.4307  0.8050  0.2878
 8289TIP3    H246283   1.462   1.101   0.427  0.0576  0.3434 -0.0824
 8290TIP3   OH246284   1.716   6.227   3.302 -0.2878  0.0895 -0.0229
 8290TIP3    H146285   1.756   6.155   3.255  0.8286 -0.9129  2.2931
 8290TIP3    H246286   1.633   6.243   3.257  0.8380 -0.5152 -2.4662
 8291TIP3   OH246287   3.966   0.698  13.311 -0.2079 -0.0087  0.2295
 8291TIP3    H146288   3.901   0.628  13.322 -0.8466  0.4653 -0.4067
 8291TIP3    H246289   4.003   0.710  13.398 -0.5904 -0.6622  0.4937
 8292TIP3   OH246290   3.870   5.102  10.663 -0.1672 -0.0579  0.3815
 8292TIP3    H146291   3.798   5.043  10.642  0.0930 -1.7022  3.4141
 8292TIP3    H246292   3.938   5.044  10.700  1.4819  1.7797  0.4123
 8293TIP3   OH246293   0.953   4.599  13.923  0.5012 -0.0924 -0.1906
 8293TIP3    H146294   0.999   4.565  13.999  1.0245  1.1052  0.0568
 8293TIP3    H246295   1.019   4.598  13.853  0.8668  1.3927  0.0995
 8294TIP3   OH246296   4.962   2.018  12.519 -0.0167  0.3491 -0.1012
 8294TIP3    H146297   4.915   1.935  12.516  0.7488 -0.0806 -0.7203
 8294TIP3    H246298   4.956   2.052  12.430  0.4079  0.5314 -0.0627
 8295TIP3   OH246299   0.202   6.780   4.234  0.5700  0.4454 -0.3917
 8295TIP3    H146300   0.166   6.868   4.241 -0.3703  0.3756 -3.1191
 8295TIP3    H246301   0.273   6.778   4.298 -0.6861  2.4670  1.1867
 8296TIP3   OH246302   0.623   2.074   0.229 -0.1791 -0.4193  0.2633
 8296TIP3    H146303   0.676   2.008   0.273  1.1316  1.5514  1.7589
 8296TIP3    H246304   0.583   2.026   0.156 -0.5571 -3.2267  2.1451
 8297TIP3   OH246305   6.640   2.334  15.446  0.6822 -0.5253 -0.1762
 8297TIP3    H146306   6.728   2.301  15.466 -0.1042 -1.7471  1.4756
 8297TIP3    H246307   6.655   2.425  15.420  2.7039 -1.4546 -2.7425
 8298TIP3   OH246308   6.170   6.740   1.659  0.3237 -0.4848  0.7932
 8298TIP3    H146309   6.246   6.764   1.606  0.3177  0.7803  1.3326
 8298TIP3    H246310   6.202   6.742   1.749 -0.1430 -0.7736  0.9672
 8299TIP3   OH246311   5.999   2.233  11.509  0.4289 -0.3911 -0.2899
 8299TIP3    H146312   6.044   2.313  11.482  0.2653 -0.0690  0.3775
 8299TIP3    H246313   6.063   2.187  11.564 -0.5782  0.8773  2.0833
 8300TIP3   OH246314   1.382   2.543   3.812 -0.3252 -0.6810 -0.0156
 8300TIP3    H146315   1.469   2.511   3.791 -0.2600 -0.2585 -0.4194
 8300TIP3    H246316   1.396   2.606   3.883 -0.5918 -2.4082  1.6432
 8301TIP3   OH246317   3.884   6.628  14.237 -0.1196 -0.2052  0.1548
 8301TIP3    H146318   3.959   6.644  14.295  0.2219  1.0119 -0.5902
 8301TIP3    H246319   3.907   6.549  14.189  1.2656  0.8130 -0.9367
 8302TIP3   OH246320   0.243   5.965   5.201 -0.0453 -0.4727  0.6630
 8302TIP3    H146321   0.304   5.907   5.246  0.3643 -0.7122 -0.1708
 8302TIP3    H246322   0.292   5.996   5.124 -0.7081 -0.0461  0.4018
 8303TIP3   OH246323   3.744   2.846  14.906 -0.2959 -0.3928  0.1697
 8303TIP3    H146324   3.654   2.850  14.874 -1.1874 -0.7103  2.3896
 8303TIP3    H246325   3.746   2.767  14.960  1.5605 -0.8075 -0.4510
 8304TIP3   OH246326   4.441   5.498   5.349 -0.4483  0.4385 -0.0368
 8304TIP3    H146327   4.503   5.556   5.393  1.7129 -1.4423 -0.4445
 8304TIP3    H246328   4.360   5.508   5.400  0.9498  0.8940  2.2703
 8305TIP3   OH246329   1.817   6.306   4.765 -0.0376 -0.7444 -0.0872
 8305TIP3    H146330   1.759   6.334   4.695  0.8568  0.0689 -0.5349
 8305TIP3    H246331   1.853   6.222   4.736  0.3981 -0.3662 -0.6608
 8306TIP3   OH246332   1.463   1.188  12.490  0.1443  0.0780 -0.4640
 8306TIP3    H146333   1.406   1.117  12.519 -2.6524  2.4892  0.3871
 8306TIP3    H246334   1.506   1.218  12.570 -0.3076  0.6750 -0.4419
 8307TIP3   OH246335   1.938   4.517  16.759  0.4761  0.3417  0.1309
 8307TIP3    H146336   1.847   4.532  16.788  1.1417  2.1036  1.5120
 8307TIP3    H246337   1.976   4.605  16.754  2.2371 -0.3894  0.0398
 8308TIP3   OH246338   0.561   5.648   4.246  0.3454  0.3894 -0.0655
 8308TIP3    H146339   0.624   5.691   4.303  0.7986 -1.4030  0.8531
 8308TIP3    H246340   0.599   5.562   4.229  0.1135  0.7483 -2.9018
 8309TIP3   OH246341   3.125   6.760  14.081  0.0550 -0.2395  0.1834
 8309TIP3    H146342   3.090   6.845  14.107  0.0984 -0.3465  0.5971
 8309TIP3    H246343   3.154   6.720  14.162  1.8230  0.1428 -0.2221
 8310TIP3   OH246344   5.102   2.524   6.244  0.1342 -0.3786 -0.3566
 8310TIP3    H146345   5.113   2.457   6.311 -1.1670 -1.4831 -1.1939
 8310TIP3    H246346   5.007   2.540   6.243  0.4075  1.5179 -0.1598
 8311TIP3   OH246347   6.289   3.887   6.355 -0.3033 -0.2773 -0.3279
 8311TIP3    H146348   6.325   3.798   6.354 -1.8171 -0.9154 -0.4283
 8311TIP3    H246349   6.216   3.883   6.417  1.0712  1.5336  1.5172
 8312TIP3   OH246350   5.382   5.263  13.128  0.1662  0.1648 -0.1140
 8312TIP3    H146351   5.377   5.307  13.213  0.5484  1.0890 -0.5511
 8312TIP3    H246352   5.452   5.198  13.140  0.6369  0.6965  0.1105
 8313TIP3   OH246353   0.119   3.245  14.596 -0.1869  0.2470 -0.0800
 8313TIP3    H146354   0.061   3.313  14.564 -0.5547  0.8624  1.7774
 8313TIP3    H246355   0.201   3.290  14.616  0.7187 -0.4781 -1.9385
 8314TIP3   OH246356   0.715   3.063   2.257  0.0552  0.9882  0.1847
 8314TIP3    H146357   0.644   3.053   2.193  0.7937 -2.6968 -0.3071
 8314TIP3    H246358   0.672   3.097   2.336 -1.8878  0.6565 -0.6829
 8315TIP3   OH246359   1.626   0.036   4.227 -0.2397 -0.9747 -0.6969
 8315TIP3    H146360   1.568   0.016   4.301  0.4137 -1.3370 -0.2813
 8315TIP3    H246361   1.639  -0.049   4.184  0.3792 -0.9789 -0.5009
 8316TIP3   OH246362   1.202   1.419  14.663 -0.4008  0.0911 -0.0101
 8316TIP3    H146363   1.225   1.407  14.755 -1.8010 -0.8077  0.2513
 8316TIP3    H246364   1.267   1.367  14.615  0.0652  0.2032  0.4971
 8317TIP3   OH246365   1.961   2.759  11.872 -0.0921 -0.7433  0.4060
 8317TIP3    H146366   2.052   2.742  11.849  0.2906  0.7508  0.7116
 8317TIP3    H246367   1.963   2.841  11.922 -1.6308 -0.5418  0.2007
 8318TIP3   OH246368   0.997   2.648   2.477  0.0924 -0.4752 -0.3520
 8318TIP3    H146369   0.968   2.739   2.486  2.0766  0.2079 -0.4011
 8318TIP3    H246370   0.916   2.597   2.481 -0.9803  1.1966  0.7862
 8319TIP3   OH246371   3.894   1.807  16.240  0.0899 -0.8642  0.1500
 8319TIP3    H146372   3.978   1.850  16.254 -0.0885 -0.8870  1.4109
 8319TIP3    H246373   3.908   1.750  16.164  0.1108  1.9695 -2.1290
 8320TIP3   OH246374   3.702   3.582   3.288 -0.1652 -0.0774  0.2693
 8320TIP3    H146375   3.692   3.565   3.381  0.0964  0.4730  0.3995
 8320TIP3    H246376   3.771   3.521   3.260  0.7278  0.7070  0.7235
 8321TIP3   OH246377   0.405   2.080  14.200  0.1851 -0.1766  0.2491
 8321TIP3    H146378   0.397   2.090  14.295  0.9674 -0.5520  0.3623
 8321TIP3    H246379   0.386   1.988  14.184  0.6805 -0.2608  0.1220
 8322TIP3   OH246380   3.474   1.746   1.796 -0.1162  0.5808 -0.4369
 8322TIP3    H146381   3.555   1.748   1.846  0.3712 -2.8699 -0.8551
 8322TIP3    H246382   3.405   1.737   1.862  0.1617  0.2497 -0.1875
 8323TIP3   OH246383   3.422   0.333   5.924 -0.3982  0.2749  0.5173
 8323TIP3    H146384   3.463   0.377   5.999  0.5371 -2.0540  1.4555
 8323TIP3    H246385   3.375   0.403   5.878 -0.4993  1.9008  2.9168
 8324TIP3   OH246386   1.587   1.555   5.064 -0.4630 -0.1858  0.2480
 8324TIP3    H146387   1.548   1.558   5.151 -1.3044  1.3589 -0.1558
 8324TIP3    H246388   1.522   1.510   5.010 -0.7436  0.4583  0.0418
 8325TIP3   OH246389   4.459   1.440   1.915  0.4797  0.4796 -0.3812
 8325TIP3    H146390   4.493   1.527   1.894  0.7000  0.2193 -1.1081
 8325TIP3    H246391   4.410   1.414   1.837  1.4642 -0.5729 -0.6721
 8326TIP3   OH246392   2.889   6.102   3.930 -0.1049  0.3632 -0.3138
 8326TIP3    H146393   2.942   6.145   3.863 -1.1651  0.2736 -1.2273
 8326TIP3    H246394   2.886   6.010   3.904 -1.1460  0.4585 -0.5805
 8327TIP3   OH246395   3.717   6.151   2.972 -0.7950  0.0383 -0.9136
 8327TIP3    H146396   3.672   6.232   2.996 -0.0923  0.0166  0.6355
 8327TIP3    H246397   3.655   6.104   2.917 -2.6188  0.1085  0.9554
 8328TIP3   OH246398   6.046   5.845  15.876  0.1471 -0.5790  0.6151
 8328TIP3    H146399   6.040   5.845  15.781 -0.8498  0.8780  0.6422
 8328TIP3    H246400   6.081   5.759  15.898  4.6099  0.4950 -1.2833
 8329TIP3   OH246401   6.662   2.118   1.249  0.0721 -0.3162 -0.3053
 8329TIP3    H146402   6.716   2.196   1.256  0.6269 -0.6397 -0.8096
 8329TIP3    H246403   6.725   2.046   1.243 -0.2880 -0.5336 -3.3068
 8330TIP3   OH246404   2.741   1.439  16.282 -0.3693 -0.7830  0.4115
 8330TIP3    H146405   2.833   1.416  16.298  0.0280  0.7950  0.5687
 8330TIP3    H246406   2.729   1.522  16.328 -2.4479 -1.9121  2.0954
 8331TIP3   OH246407   1.789   6.317  16.579  0.1722 -0.0837  0.2933
 8331TIP3    H146408   1.805   6.408  16.606 -0.1532  0.1277 -0.2161
 8331TIP3    H246409   1.856   6.267  16.625  0.3119  0.4055  0.6375
 8332TIP3   OH246410   4.949   6.491  15.967 -0.7074  0.2564 -0.1072
 8332TIP3    H146411   4.920   6.565  16.020 -2.0279  0.4242 -1.0233
 8332TIP3    H246412   4.872   6.435  15.959 -0.7568  0.5467 -2.3517
 8333TIP3   OH246413   6.017   0.169  16.550  0.5397  0.7396 -0.1934
 8333TIP3    H146414   6.100   0.165  16.596  0.7852  1.7354 -0.5362
 8333TIP3    H246415   6.023   0.099  16.484  0.9798  0.6172 -0.0278
 8334TIP3   OH246416   5.233   6.712  13.779  0.1278  0.0916  0.4180
 8334TIP3    H146417   5.212   6.784  13.840  0.1703 -0.3825  1.0004
 8334TIP3    H246418   5.217   6.633  13.830  3.1293 -0.3227  0.8733
 8335TIP3   OH246419   1.946   0.643  14.952  0.0638  0.0128 -0.3242
 8335TIP3    H146420   1.908   0.611  15.033 -0.9522 -0.2419 -0.8877
 8335TIP3    H246421   2.017   0.701  14.980 -1.7670  1.8324  0.7953
 8336TIP3   OH246422   2.570   0.606   3.014 -0.1846 -0.5503 -0.2425
 8336TIP3    H146423   2.585   0.548   3.088  3.0421 -0.4298 -0.6841
 8336TIP3    H246424   2.519   0.554   2.952 -1.1964 -1.3231  1.2006
 8337TIP3   OH246425   3.889   4.248   0.724  0.1035  0.2475  0.3114
 8337TIP3    H146426   3.947   4.297   0.783  0.7212 -0.5748  0.4099
 8337TIP3    H246427   3.838   4.315   0.679  0.5704  0.9535  0.8165
 8338TIP3   OH246428   0.327   6.705   5.061  0.0832 -0.0141  0.2468
 8338TIP3    H146429   0.416   6.677   5.043 -0.3044 -0.1818 -1.6515
 8338TIP3    H246430   0.276   6.623   5.063 -0.5678  0.2514 -2.3287
 8339TIP3   OH246431   4.025   2.314  16.729  0.1321 -0.1594 -0.3679
 8339TIP3    H146432   3.942   2.345  16.765 -0.1272 -1.2053 -0.0389
 8339TIP3    H246433   4.084   2.313  16.804  0.2657 -0.0254 -0.4706
 8340TIP3   OH246434   4.145   1.688   3.494 -0.4752 -0.2753 -0.1391
 8340TIP3    H146435   4.205   1.719   3.561 -1.2329 -1.2317  1.0179
 8340TIP3    H246436   4.111   1.605   3.527 -1.5090 -0.3720 -1.3158
 8341TIP3   OH246437   2.990   3.879   5.090 -0.8160 -0.2150 -0.1295
 8341TIP3    H146438   2.986   3.937   5.014 -1.0385 -1.2430 -0.9323
 8341TIP3    H246439   2.999   3.791   5.052  1.6775 -0.5503  1.0805
 8342TIP3   OH246440   1.803   0.454  16.319 -0.5156  0.0967 -0.8019
 8342TIP3    H146441   1.754   0.496  16.389  0.2150 -0.1378 -0.1373
 8342TIP3    H246442   1.761   0.484  16.239 -1.7054 -0.0563 -0.2507
 8343TIP3   OH246443   2.457   6.093  16.598 -0.8052 -0.3093  0.0031
 8343TIP3    H146444   2.532   6.151  16.609 -0.8565 -0.3891  0.8086
 8343TIP3    H246445   2.485   6.030  16.531 -0.5440  0.2908 -0.4675
 8344TIP3   OH246446   5.552   6.573   1.259 -0.2455  0.4809 -0.1245
 8344TIP3    H146447   5.635   6.597   1.219 -0.2479  0.4958 -0.1207
 8344TIP3    H246448   5.531   6.487   1.221  0.6978 -0.4076  1.2585
 8345TIP3   OH246449   5.721   3.689  11.533  0.4427  0.2344 -0.3975
 8345TIP3    H146450   5.806   3.721  11.564  0.8723 -0.2527 -1.0394
 8345TIP3    H246451   5.672   3.767  11.509  0.2005  0.6159  1.2103
 8346TIP3   OH246452   0.146   4.253   4.642 -0.3289 -0.6752  0.5018
 8346TIP3    H146453   0.205   4.190   4.683  0.1440 -0.3475  0.3224
 8346TIP3    H246454   0.184   4.339   4.661 -0.6249 -0.4731  0.1949
 8347TIP3   OH246455   1.157   5.236   3.755 -0.2666  0.5036  0.0255
 8347TIP3    H146456   1.160   5.159   3.698 -0.5950 -0.1265  0.8370
 8347TIP3    H246457   1.064   5.261   3.756 -0.2081  0.7205  0.0072
 8348TIP3   OH246458   3.230   2.969  11.461  0.5456  0.2893 -0.1283
 8348TIP3    H146459   3.262   3.027  11.530 -0.3129  0.6451 -0.0133
 8348TIP3    H246460   3.142   2.943  11.490  1.3271 -2.0217  0.4087
 8349TIP3   OH246461   2.245   6.286   1.544 -0.1452 -0.2945 -0.4641
 8349TIP3    H146462   2.290   6.209   1.509 -1.4472 -1.5457  0.4889
 8349TIP3    H246463   2.158   6.254   1.568 -1.0453  1.6908 -0.8540
 8350TIP3   OH246464   1.121   4.132   4.866 -0.1064 -0.5805 -0.5432
 8350TIP3    H146465   1.151   4.054   4.912  0.2915 -0.2499 -0.2327
 8350TIP3    H246466   1.171   4.133   4.784  0.4427 -0.2533 -0.2111
 8351TIP3   OH246467   0.286   4.219   1.688 -0.3913 -0.5975 -0.2800
 8351TIP3    H146468   0.356   4.176   1.638 -0.4796 -0.2478 -0.7084
 8351TIP3    H246469   0.288   4.176   1.774  0.2627 -0.6799 -0.3327
 8352TIP3   OH246470   6.751   0.967   3.439 -0.3652 -0.4457  0.4040
 8352TIP3    H146471   6.683   1.030   3.415  1.0221  1.1891  0.5540
 8352TIP3    H246472   6.717   0.882   3.410 -1.0629  0.7283 -2.5097
 8353TIP3   OH246473   1.945   0.342   3.710  0.5490  0.2687  0.7062
 8353TIP3    H146474   2.019   0.282   3.707  0.4837  0.1496  1.2672
 8353TIP3    H246475   1.869   0.285   3.724  0.4168  0.4315  0.6524
 8354TIP3   OH246476   0.571   6.101  14.705 -0.4681 -0.1171 -0.1786
 8354TIP3    H146477   0.616   6.177  14.668 -0.5508 -0.0208 -0.0790
 8354TIP3    H246478   0.588   6.031  14.641 -0.7915  0.1042 -0.5153
 8355TIP3   OH246479   1.240   2.307  17.121  0.1753 -0.1617  0.1962
 8355TIP3    H146480   1.236   2.217  17.089 -0.1052  0.8459 -2.8653
 8355TIP3    H246481   1.151   2.340  17.112  0.5396  0.8113  0.0301
 8356TIP3   OH246482   1.606   1.941   1.867 -0.3732 -0.5029 -0.8435
 8356TIP3    H146483   1.548   2.013   1.889 -0.1507 -0.5767  0.0088
 8356TIP3    H246484   1.690   1.983   1.847  0.3192 -0.6202  1.5764
 8357TIP3   OH246485   6.171   3.844  16.903 -0.1193 -0.4926 -0.6417
 8357TIP3    H146486   6.215   3.924  16.931 -0.9215 -0.6367  1.1945
 8357TIP3    H246487   6.241   3.788  16.869  0.7576  0.1829  0.0238
 8358TIP3   OH246488   1.788   5.979  10.804 -0.2409 -0.3232 -0.1729
 8358TIP3    H146489   1.722   6.006  10.740  0.7175  1.3473 -0.5327
 8358TIP3    H246490   1.784   5.884  10.805 -2.1545 -0.2906 -0.6925
 8359TIP3   OH246491   4.445   1.263  13.571 -0.2072  0.5893  0.1838
 8359TIP3    H146492   4.489   1.229  13.493  0.2498  1.0637  0.2361
 8359TIP3    H246493   4.429   1.185  13.625 -0.1816  0.3095 -0.2038
 8360TIP3   OH246494   4.765   2.233   1.282 -0.7553  0.6566 -0.3347
 8360TIP3    H146495   4.715   2.261   1.359 -1.2462  0.6994 -0.6609
 8360TIP3    H246496   4.793   2.314   1.240  1.2332  0.6554  0.8622
 8361TIP3   OH246497   1.536   1.925  13.140 -0.4009  0.4118  0.1500
 8361TIP3    H146498   1.508   1.975  13.217 -1.5178  2.0606 -1.2435
 8361TIP3    H246499   1.461   1.870  13.118 -0.0070 -0.2121  0.3561
 8362TIP3   OH246500   6.084   0.799   4.281  0.3468  0.0386  0.4754
 8362TIP3    H146501   6.065   0.707   4.297  1.5866 -0.3172  0.0289
 8362TIP3    H246502   6.095   0.805   4.186 -0.3230  0.7748  0.4307
 8363TIP3   OH246503   1.671   1.928  15.459  0.2107  0.0581 -0.2636
 8363TIP3    H146504   1.655   1.838  15.430 -1.8929  0.2027  0.2389
 8363TIP3    H246505   1.762   1.946  15.436  0.6722 -2.1966 -0.3770
 8364TIP3   OH246506   0.187   3.986   5.287 -0.7438  0.0046  0.0406
 8364TIP3    H146507   0.179   4.081   5.293 -3.0008 -0.1701  0.7943
 8364TIP3    H246508   0.255   3.964   5.351 -0.4470  1.0710  0.1155
 8365TIP3   OH246509   4.550   1.974   4.265  0.1522  0.2506  0.1792
 8365TIP3    H146510   4.597   1.899   4.229 -2.0125 -0.3993 -1.4671
 8365TIP3    H246511   4.531   2.029   4.190 -1.2333  0.7445  0.8617
 8366TIP3   OH246512   2.123   5.963  15.178 -0.1510  0.2743  0.3243
 8366TIP3    H146513   2.190   5.993  15.240 -0.8855  1.4712  0.5859
 8366TIP3    H246514   2.059   6.034  15.177 -1.0110 -0.4885 -0.5284
 8367TIP3   OH246515   5.674   4.383  12.037  0.3965  0.4083  0.3064
 8367TIP3    H146516   5.758   4.411  12.074  1.3053 -0.5042 -0.9715
 8367TIP3    H246517   5.670   4.289  12.058  0.9789 -0.1582 -1.8867
 8368TIP3   OH246518   6.714   3.299  11.468  0.2677 -0.2408  0.9655
 8368TIP3    H146519   6.798   3.287  11.423  0.5352 -0.7401  1.5791
 8368TIP3    H246520   6.652   3.246  11.418 -0.1403  1.6557 -0.6590
 8369TIP3   OH246521   4.612   1.827  11.144  0.3817  0.2652  0.2669
 8369TIP3    H146522   4.703   1.834  11.174 -0.4339  3.6781  2.4263
 8369TIP3    H246523   4.605   1.890  11.073  0.0194 -1.2186 -1.0799
 8370TIP3   OH246524   0.868   6.183  11.834  0.4603  0.0955  0.0679
 8370TIP3    H146525   0.801   6.164  11.769  0.9524  1.5019 -0.8880
 8370TIP3    H246526   0.951   6.162  11.790  0.6993 -1.3526  1.1358
 8371TIP3   OH246527   5.013   5.773  15.808  0.2618 -0.7039  0.5242
 8371TIP3    H146528   4.924   5.799  15.834  0.5349  1.4428 -0.4831
 8371TIP3    H246529   5.055   5.749  15.890 -0.7981 -0.2809  1.2203
 8372TIP3   OH246530   5.495   4.299   5.174 -0.5660 -0.0796 -0.1230
 8372TIP3    H146531   5.529   4.212   5.153 -0.6505 -0.3376  0.7604
 8372TIP3    H246532   5.400   4.290   5.168 -0.5533  0.1661 -0.8017
 8373TIP3   OH246533   1.299   5.645  11.389  0.2649 -0.2657  0.0961
 8373TIP3    H146534   1.348   5.667  11.309 -0.3983  4.0532  0.6555
 8373TIP3    H246535   1.210   5.631  11.359  0.3937 -0.6528 -0.1138
 8374TIP3   OH246536   5.836   4.727   4.416  0.2550  0.0501 -0.1447
 8374TIP3    H146537   5.746   4.735   4.385 -0.8423 -0.5823  2.6330
 8374TIP3    H246538   5.876   4.812   4.396 -0.8328  0.2426 -1.6602
 8375TIP3   OH246539   3.931   3.295   2.076 -0.2209 -0.0174 -0.2707
 8375TIP3    H146540   3.987   3.250   2.013  1.0440 -0.9227  1.4282
 8375TIP3    H246541   3.979   3.374   2.100  0.0566 -0.4457  0.6625
 8376TIP3   OH246542   4.708   0.476   5.541 -0.3392 -0.1679 -0.1450
 8376TIP3    H146543   4.694   0.395   5.590 -0.4431  0.0637  0.2117
 8376TIP3    H246544   4.782   0.519   5.585  1.5974 -1.3858 -2.0066
 8377TIP3   OH246545   3.831   0.163   2.312  0.1816 -0.1295  0.1297
 8377TIP3    H146546   3.741   0.142   2.289 -0.3990 -0.5150  2.5378
 8377TIP3    H246547   3.842   0.254   2.283 -0.9094 -0.1212 -0.3221
 8378TIP3   OH246548   3.099   2.114   0.564  1.1594 -0.0003 -0.6656
 8378TIP3    H146549   3.192   2.106   0.542  0.9810  2.1154 -2.5714
 8378TIP3    H246550   3.055   2.124   0.479 -0.7503 -0.4724  0.2226
 8379TIP3   OH246551   0.995   0.185   4.239  0.2353  0.7709  0.0142
 8379TIP3    H146552   0.987   0.120   4.170  1.2114  2.7706 -2.1283
 8379TIP3    H246553   0.905   0.213   4.257 -0.0920 -0.3429  0.1554
 8380TIP3   OH246554   2.627   6.419   2.830  0.0170 -0.0620  0.5425
 8380TIP3    H146555   2.641   6.355   2.760 -3.1293 -2.0125  1.4510
 8380TIP3    H246556   2.676   6.385   2.904  0.8901  0.3295  0.1513
 8381TIP3   OH246557   4.121   2.307  13.229 -0.0998  0.4938 -0.4337
 8381TIP3    H146558   4.088   2.242  13.167  0.4160 -2.2628  1.9788
 8381TIP3    H246559   4.065   2.297  13.306  0.0644  2.9075  0.0704
 8382TIP3   OH246560   0.058   6.223   1.279  0.2980 -0.3349 -0.0142
 8382TIP3    H146561   0.143   6.229   1.234  0.3552  1.8999  0.2627
 8382TIP3    H246562   0.030   6.314   1.288 -0.1071 -0.6790  3.7142
 8383TIP3   OH246563   5.690   0.244  13.675  0.0648 -0.1187  0.2488
 8383TIP3    H146564   5.613   0.300  13.670 -0.6475 -1.1505 -1.0782
 8383TIP3    H246565   5.657   0.161  13.711  0.8180 -0.1592  0.8751
 8384TIP3   OH246566   1.673   4.276  12.628 -0.3780 -0.2895  0.3606
 8384TIP3    H146567   1.714   4.266  12.714  0.7236 -0.6725 -0.1918
 8384TIP3    H246568   1.635   4.191  12.610 -1.0016 -0.0775  0.6593
 8385TIP3   OH246569   2.929   0.643  14.465  0.0999 -0.2190  0.3396
 8385TIP3    H146570   2.949   0.552  14.442 -0.2770  0.3263 -2.5623
 8385TIP3    H246571   2.834   0.646  14.474 -0.0319  0.0828 -0.8908
 8386TIP3   OH246572   2.190   3.691  10.858  0.2566 -0.4764 -0.3759
 8386TIP3    H146573   2.157   3.761  10.802  0.7257  0.0767  0.0139
 8386TIP3    H246574   2.128   3.688  10.931  1.0870  0.6432  0.4176
 8387TIP3   OH246575   0.187   2.557   3.565 -0.0847 -0.0506 -0.0553
 8387TIP3    H146576   0.174   2.465   3.542 -1.1490 -0.1329  0.8158
 8387TIP3    H246577   0.112   2.579   3.620  0.8507  0.9758  0.8491
 8388TIP3   OH246578   4.067   4.456  14.977  0.3724  0.1414  0.4812
 8388TIP3    H146579   4.022   4.499  15.049 -0.6660  0.6812 -0.4484
 8388TIP3    H246580   4.106   4.378  15.015 -1.6942 -0.5722  1.2915
 8389TIP3   OH246581   2.486   3.956   5.548  0.3786  0.0584  0.1702
 8389TIP3    H146582   2.460   4.048   5.545 -0.7574 -0.1449  2.2046
 8389TIP3    H246583   2.415   3.910   5.504  0.1196  0.0143  0.6308
 8390TIP3   OH246584   4.319   5.601  16.199  0.2528 -0.4641 -0.9144
 8390TIP3    H146585   4.344   5.689  16.169  1.2646  0.7192  2.9313
 8390TIP3    H246586   4.247   5.577  16.140 -0.6825  3.3131 -1.6349
 8391TIP3   OH246587   1.796   2.119  13.974 -0.6735  0.1474  0.4173
 8391TIP3    H146588   1.861   2.105  14.043 -1.3029  0.2877  1.0537
 8391TIP3    H246589   1.839   2.180  13.913 -0.1227  0.0556  0.7058
 8392TIP3   OH246590   2.091   4.022   4.386  0.1495  0.0940 -0.2499
 8392TIP3    H146591   2.105   4.111   4.354 -2.0990  0.8153  0.5521
 8392TIP3    H246592   2.040   3.979   4.317  1.7508 -0.8398 -0.9180
 8393TIP3   OH246593   2.217   6.619   0.126  0.2072 -0.3230  0.1730
 8393TIP3    H146594   2.145   6.682   0.122 -0.4289 -0.9840  0.9581
 8393TIP3    H246595   2.254   6.632   0.213  2.2516  1.2926 -0.8363
 8394TIP3   OH246596   2.803   5.365   0.619 -0.2818  0.5474 -0.3307
 8394TIP3    H146597   2.804   5.271   0.634  0.6520  0.6979  0.6772
 8394TIP3    H246598   2.883   5.381   0.568  0.6615  1.0231  1.2228
 8395TIP3   OH246599   6.002   0.855   5.358  0.0898  0.0098  0.3116
 8395TIP3    H146600   5.978   0.776   5.406  0.0323 -0.0161  0.2409
 8395TIP3    H246601   6.058   0.904   5.418 -0.4350  0.2466  0.6109
 8396TIP3   OH246602   5.971   0.970  16.847  0.5726 -0.0111  0.3982
 8396TIP3    H146603   6.025   0.979  16.769 -1.7211  2.0040 -1.0828
 8396TIP3    H246604   5.936   0.881  16.841  0.4627  0.1017 -0.8573
 8397TIP3   OH246605   0.720   2.053  17.008 -0.0728  0.1429 -0.1675
 8397TIP3    H146606   0.757   2.013  16.930 -0.5525 -0.5847 -0.0383
 8397TIP3    H246607   0.784   2.036  17.077  1.4643  2.7883 -0.8337
 8398TIP3   OH246608   3.938   0.714   3.766 -0.1071  0.0549 -0.6460
 8398TIP3    H146609   3.943   0.672   3.852  3.0997 -0.1829 -0.8178
 8398TIP3    H246610   3.933   0.807   3.785 -0.3596 -0.0457 -0.2074
 8399TIP3   OH246611   5.798   2.586   4.812 -0.2269  0.1071 -0.2650
 8399TIP3    H146612   5.706   2.572   4.831  0.0075  0.3857  1.2358
 8399TIP3    H246613   5.803   2.594   4.717 -1.7767  0.3385 -0.3402
 8400TIP3   OH246614   6.516   4.058  14.516  0.2327  0.4243 -0.0259
 8400TIP3    H146615   6.431   4.099  14.531 -0.6052  0.2284 -3.4850
 8400TIP3    H246616   6.580   4.123  14.547 -1.1446  2.3857 -1.0518
 8401TIP3   OH246617   5.028   0.246  10.491  0.3514  0.7705  0.3857
 8401TIP3    H146618   4.964   0.233  10.561  0.9058  1.2509  0.9904
 8401TIP3    H246619   5.073   0.162  10.484 -0.1132  0.5326  0.1845
 8402TIP3   OH246620   5.912   3.669   3.453 -0.0713 -0.2279 -0.3836
 8402TIP3    H146621   6.008   3.663   3.455 -0.0796 -0.3702 -0.3979
 8402TIP3    H246622   5.883   3.578   3.445 -0.2375 -0.2659  0.6135
 8403TIP3   OH246623   1.673   2.516   2.440 -0.0643 -0.4489 -0.3407
 8403TIP3    H146624   1.700   2.607   2.447  1.0922 -0.8640  0.9237
 8403TIP3    H246625   1.592   2.511   2.491 -1.7499  0.4196 -2.7202
 8404TIP3   OH246626   4.357   1.097   3.350  0.1993 -0.0264  0.4426
 8404TIP3    H146627   4.328   1.045   3.425 -0.7995 -0.5274 -0.2682
 8404TIP3    H246628   4.296   1.074   3.280  1.9849 -0.6941 -0.9686
 8405TIP3   OH246629   0.635   1.513  14.070  0.3629  0.6114  0.1701
 8405TIP3    H146630   0.719   1.558  14.066  0.8921 -0.4108 -0.5454
 8405TIP3    H246631   0.585   1.562  14.136  2.4947 -0.3558  2.6960
 8406TIP3   OH246632   5.816   2.377   0.505 -0.0013  0.3414  0.2931
 8406TIP3    H146633   5.807   2.367   0.600 -0.0947 -0.1517  0.2364
 8406TIP3    H246634   5.857   2.295   0.477  2.3578  1.4663  0.2157
 8407TIP3   OH246635   1.746   4.635  12.591 -0.2747  0.1872  0.0702
 8407TIP3    H146636   1.783   4.720  12.614 -0.2127  0.0581  0.4622
 8407TIP3    H246637   1.738   4.637  12.496  0.7732  0.1985 -0.0273
 8408TIP3   OH246638   3.511   4.017  11.771 -0.1106 -0.4047  0.2732
 8408TIP3    H146639   3.545   3.968  11.846 -0.6628 -1.6710 -0.2830
 8408TIP3    H246640   3.586   4.071  11.743  0.1188  0.0512  1.6727
 8409TIP3   OH246641   1.535   2.543  14.333 -0.5909 -0.4282 -0.1704
 8409TIP3    H146642   1.550   2.464  14.386  0.2145 -0.6628 -0.7406
 8409TIP3    H246643   1.440   2.542  14.316 -1.4778  1.1127  3.5606
 8410TIP3   OH246644   0.411   3.295  10.709  0.0514  0.2886  0.1686
 8410TIP3    H146645   0.497   3.308  10.669 -0.7371 -1.0434 -2.1653
 8410TIP3    H246646   0.350   3.302  10.636 -1.5240 -2.1420  1.1321
 8411TIP3   OH246647   3.323   1.214  12.338  0.7330 -0.1998 -0.2858
 8411TIP3    H146648   3.401   1.222  12.284  1.2640 -2.9310 -0.0582
 8411TIP3    H246649   3.345   1.147  12.403 -1.5915 -0.6324  0.1620
 8412TIP3   OH246650   0.684   3.894   1.128 -0.5491  0.6385 -0.6015
 8412TIP3    H146651   0.607   3.942   1.098 -1.5143 -0.3161  0.2982
 8412TIP3    H246652   0.678   3.896   1.224 -0.5786 -1.2041 -0.5369
 8413TIP3   OH246653   4.546   4.116   4.692  0.1686 -0.1491 -0.1553
 8413TIP3    H146654   4.589   4.065   4.624 -1.3004 -0.8864 -0.5606
 8413TIP3    H246655   4.474   4.061   4.723  0.5975  0.2844  1.7940
 8414TIP3   OH246656   0.301   5.118   0.508  0.5781 -0.0032  0.6465
 8414TIP3    H146657   0.300   5.037   0.457  0.0465 -0.7464  1.7915
 8414TIP3    H246658   0.208   5.140   0.519  0.6706 -0.0668  1.6006
 8415TIP3   OH246659   2.105   5.799   4.470 -0.0698  0.3022  0.2548
 8415TIP3    H146660   2.018   5.766   4.445 -1.9099  4.4676  0.2356
 8415TIP3    H246661   2.131   5.745   4.544 -3.4686 -0.1409  1.2958
 8416TIP3   OH246662   3.357   5.102   1.854 -0.7651 -0.2686 -0.3199
 8416TIP3    H146663   3.435   5.047   1.849  0.1102  0.9266 -0.2639
 8416TIP3    H246664   3.306   5.065   1.926 -1.3061 -2.3286 -1.6575
 8417TIP3   OH246665   5.510   2.568  13.369  0.2062  0.0337  0.6421
 8417TIP3    H146666   5.512   2.505  13.441 -2.0327  0.1092  0.8195
 8417TIP3    H246667   5.459   2.526  13.301 -0.0241  1.0540  0.1581
 8418TIP3   OH246668   3.482   6.497   2.027 -0.0905 -0.4032 -0.3962
 8418TIP3    H146669   3.388   6.485   2.014 -0.1946  0.7283 -0.7893
 8418TIP3    H246670   3.489   6.569   2.090  0.4508  2.4968 -3.4537
 8419TIP3   OH246671   3.852   2.752  14.135 -0.2984  0.4602  0.5114
 8419TIP3    H146672   3.856   2.817  14.065 -2.0469  0.4546  0.3493
 8419TIP3    H246673   3.760   2.724  14.136  0.3855 -1.9844  0.6219
 8420TIP3   OH246674   5.089   2.974  16.314  0.3545 -0.1076  0.2410
 8420TIP3    H146675   5.155   2.994  16.247  0.1041 -1.4125 -0.4357
 8420TIP3    H246676   5.008   2.959  16.264  0.0913 -0.7785  0.8522
 8421TIP3   OH246677   2.680   3.666   2.716  0.5108  0.0498 -0.4712
 8421TIP3    H146678   2.739   3.592   2.705  0.1339 -0.3250 -0.0073
 8421TIP3    H246679   2.634   3.673   2.633 -1.7738 -2.2667  0.4808
 8422TIP3   OH246680   2.187   4.385   5.014 -0.1568  0.7761  0.6480
 8422TIP3    H146681   2.217   4.364   5.102  0.5203 -1.0233  0.0331
 8422TIP3    H246682   2.095   4.408   5.025 -0.3266 -0.3366  1.7069
 8423TIP3   OH246683   1.116   5.814   5.420 -0.3758 -0.1624  0.0455
 8423TIP3    H146684   1.194   5.870   5.421 -0.4055  0.1078 -2.9776
 8423TIP3    H246685   1.140   5.742   5.362 -2.0309 -0.6351 -0.0975
 8424TIP3   OH246686   4.784   4.646   4.292  0.6239 -0.2865  0.0029
 8424TIP3    H146687   4.787   4.636   4.387 -0.6357 -0.2710  0.0508
 8424TIP3    H246688   4.715   4.710   4.276  0.9684 -0.1254 -0.9228
 8425TIP3   OH246689   6.129   6.573   4.169  0.1365  0.0848 -0.2632
 8425TIP3    H146690   6.144   6.663   4.198  1.7870 -0.6081  1.1926
 8425TIP3    H246691   6.216   6.534   4.168 -0.6620 -1.7865  0.0716
 8426TIP3   OH246692   3.792   2.158   3.663 -0.0935 -0.0873 -0.3338
 8426TIP3    H146693   3.831   2.074   3.687 -0.3366  0.8924  4.4334
 8426TIP3    H246694   3.698   2.146   3.676 -0.4700  0.2772 -2.3149
 8427TIP3   OH246695   5.188   0.465  15.632  0.0902 -0.0100  0.1301
 8427TIP3    H146696   5.200   0.373  15.657 -0.7228 -0.3985 -0.8447
 8427TIP3    H246697   5.253   0.480  15.563  1.3528  0.6476  1.4175
 8428TIP3   OH246698   2.767   2.912   2.791 -0.0694 -0.2550  0.1615
 8428TIP3    H146699   2.783   2.986   2.850 -0.0960 -2.0368  2.5234
 8428TIP3    H246700   2.677   2.925   2.761  0.0773  0.8892  0.1752
 8429TIP3   OH246701   1.762   2.127  13.405  0.1395  0.0188 -0.4829
 8429TIP3    H146702   1.710   2.078  13.468 -0.7392  0.8534 -0.5383
 8429TIP3    H246703   1.752   2.219  13.431  1.0793  0.2465 -0.8711
 8430TIP3   OH246704   2.330   4.921   1.697 -0.1794 -0.2775  0.0380
 8430TIP3    H146705   2.400   4.950   1.756 -0.6707 -1.2909  1.1482
 8430TIP3    H246706   2.250   4.940   1.745 -0.6117 -0.6599 -0.5286
 8431TIP3   OH246707   3.622   1.832  15.154  0.0701 -0.1677 -0.1622
 8431TIP3    H146708   3.621   1.844  15.059  1.8142 -1.5844 -0.4174
 8431TIP3    H246709   3.675   1.904  15.187 -1.9372  1.3234 -0.0270
 8432TIP3   OH246710   3.036   3.584  16.779  0.1990  0.5344 -0.0968
 8432TIP3    H146711   2.944   3.568  16.762 -0.1525 -0.6479  2.4444
 8432TIP3    H246712   3.082   3.544  16.706 -1.2191 -1.2146 -0.0899
 8433TIP3   OH246713   1.946   6.680  10.552 -0.2288  0.2236 -0.1750
 8433TIP3    H146714   2.004   6.747  10.588  0.4249 -0.3156 -0.2024
 8433TIP3    H246715   1.976   6.599  10.593 -0.2242 -0.2301 -1.0583
 8434TIP3   OH246716   2.528   0.760  13.634 -0.5329  0.0815 -0.4716
 8434TIP3    H146717   2.520   0.669  13.662 -0.3118  0.1131 -0.2999
 8434TIP3    H246718   2.616   0.786  13.662 -1.4357  1.0807  1.6306
 8435TIP3   OH246719   5.993   5.789   4.022 -0.3011 -0.1884 -0.2026
 8435TIP3    H146720   5.942   5.835   3.955 -0.0666  1.1393  0.4805
 8435TIP3    H246721   5.974   5.696   4.008 -1.6742  0.1787 -0.9447
 8436TIP3   OH246722   2.841   5.151   1.444  0.3724 -0.0352 -0.2424
 8436TIP3    H146723   2.879   5.225   1.398  0.3179  1.6173  2.1629
 8436TIP3    H246724   2.824   5.184   1.533 -2.0042 -2.1813  0.2349
 8437TIP3   OH246725   1.082   5.136   6.145  0.3827 -0.1829  0.3641
 8437TIP3    H146726   1.042   5.113   6.228 -0.0893 -1.1581 -0.1149
 8437TIP3    H246727   1.087   5.232   6.146 -1.6796 -0.0243  0.5855
 8438TIP3   OH246728   5.331   1.030   5.468  0.4212 -0.2732 -0.1223
 8438TIP3    H146729   5.354   0.948   5.512  1.1798  1.3167  2.7450
 8438TIP3    H246730   5.383   1.031   5.388 -0.9290 -3.3098 -1.1765
 8439TIP3   OH246731   3.585   3.434   3.792 -0.1065  0.0253 -0.5996
 8439TIP3    H146732   3.606   3.352   3.836  1.2521 -0.1326 -1.4709
 8439TIP3    H246733   3.555   3.492   3.862  0.8715 -0.5770  0.3460
 8440TIP3   OH246734   1.726   4.370   5.981  0.2558 -0.3060 -0.2338
 8440TIP3    H146735   1.752   4.394   5.892  1.1428 -0.2940  0.0169
 8440TIP3    H246736   1.720   4.275   5.979  1.3645 -0.3993 -0.0438
 8441TIP3   OH246737   0.677   1.420   1.331 -0.1480 -0.0499  0.1503
 8441TIP3    H146738   0.742   1.475   1.375  0.6449 -0.4912 -0.4546
 8441TIP3    H246739   0.703   1.330   1.353 -0.7598 -0.2214  0.1875
 8442TIP3   OH246740   0.222   4.461   1.142 -1.1713  0.3211 -0.5144
 8442TIP3    H146741   0.140   4.472   1.094 -0.3317  1.2596 -1.8082
 8442TIP3    H246742   0.214   4.519   1.218 -0.2459  3.5298 -2.6831
 8443TIP3   OH246743   3.623   2.959   1.601  0.7315 -0.1177 -0.0124
 8443TIP3    H146744   3.608   2.977   1.508  0.3684 -1.2261 -0.1800
 8443TIP3    H246745   3.538   2.973   1.642  1.4003  2.9282  0.6431
 8444TIP3   OH246746   0.482   0.691  13.268 -0.0339 -0.0494  0.7410
 8444TIP3    H146747   0.479   0.736  13.183 -1.0181  1.2876  1.4348
 8444TIP3    H246748   0.571   0.659  13.275 -0.2055 -1.1365 -1.2603
 8445TIP3   OH246749   6.770   2.821  15.169  0.5650  0.2730 -0.1701
 8445TIP3    H146750   6.831   2.895  15.167  0.9301 -0.0408 -0.9322
 8445TIP3    H246751   6.705   2.846  15.234  1.1483  0.8986  0.1938
 8446TIP3   OH246752   0.216   0.045   0.458 -0.0316  0.4636 -0.1551
 8446TIP3    H146753   0.178   0.127   0.428  0.5145  0.7687 -0.0158
 8446TIP3    H246754   0.308   0.065   0.474  0.2778 -0.3617 -0.8439
 8447TIP3   OH246755   5.103   5.894  11.965  0.0387 -0.0883 -0.3106
 8447TIP3    H146756   5.107   5.988  11.984  1.1355 -0.1184 -0.3286
 8447TIP3    H246757   5.102   5.889  11.870  1.0482 -0.1163 -0.3269
 8448TIP3   OH246758   6.530   1.981   6.102  0.0825  0.6966 -0.5661
 8448TIP3    H146759   6.571   2.067   6.110 -2.3892  2.0098 -0.8782
 8448TIP3    H246760   6.534   1.961   6.009  2.2679 -0.4468 -0.2789
 8449TIP3   OH246761   2.807   4.666   3.610 -0.5578  0.2127  0.7992
 8449TIP3    H146762   2.720   4.671   3.649 -0.9799 -1.2697  0.1202
 8449TIP3    H246763   2.795   4.611   3.532  1.1389 -0.7088  1.1479
 8450TIP3   OH246764   2.249   6.507  15.365  0.2123 -0.0969 -0.1359
 8450TIP3    H146765   2.317   6.550  15.417  0.2601 -1.1419  0.7019
 8450TIP3    H246766   2.290   6.425  15.335 -0.9956 -1.3020  1.3381
 8451TIP3   OH246767   0.298   6.770   0.960 -0.3304  0.4030 -0.1513
 8451TIP3    H146768   0.318   6.682   0.929 -0.5744 -0.3351  1.6559
 8451TIP3    H246769   0.203   6.770   0.973 -0.3334  0.9333 -0.1498
 8452TIP3   OH246770   5.701   1.519   4.185  0.5338  0.4028  0.3551
 8452TIP3    H146771   5.709   1.424   4.182  0.5161  0.4142 -0.1026
 8452TIP3    H246772   5.712   1.547   4.094 -0.6062  0.7438  0.3079
 8453TIP3   OH246773   3.920   0.503   1.917  0.3561 -0.2014  0.5253
 8453TIP3    H146774   3.835   0.535   1.947 -0.2243 -2.1772  1.1541
 8453TIP3    H246775   3.979   0.519   1.990  0.0045 -0.7610  0.9486
 8454TIP3   OH246776   4.091   0.547  11.866 -0.5961 -0.0163  0.1913
 8454TIP3    H146777   4.088   0.464  11.914  0.0562 -1.0944 -1.5304
 8454TIP3    H246778   4.062   0.524  11.778 -1.5938  1.8602 -0.0102
 8455TIP3   OH246779   2.715   2.069  13.884 -0.1823  0.2989 -0.3062
 8455TIP3    H146780   2.717   1.982  13.844  0.0355  0.0571  0.2133
 8455TIP3    H246781   2.639   2.112  13.846 -0.8860 -0.4921  0.1788
 8456TIP3   OH246782   3.206   5.553   2.158  0.0815  0.1236  0.0895
 8456TIP3    H146783   3.154   5.484   2.117  0.4647  0.0744 -0.3249
 8456TIP3    H246784   3.296   5.536   2.128  0.4971 -0.3351  1.5068
 8457TIP3   OH246785   6.445   0.721  11.740  0.7526 -0.1255 -0.3824
 8457TIP3    H146786   6.511   0.788  11.758 -0.6059  0.8381  1.4535
 8457TIP3    H246787   6.387   0.761  11.676 -0.0304  0.5085  0.6774
 8458TIP3   OH246788   0.327   4.821  16.558  0.0707 -0.7254 -0.0328
 8458TIP3    H146789   0.361   4.744  16.511  0.5911 -0.0544 -0.7845
 8458TIP3    H246790   0.392   4.889  16.542 -0.0801 -0.2809  1.1258
 8459TIP3   OH246791   5.793   6.773   5.219  0.0655  0.1187  0.0094
 8459TIP3    H146792   5.797   6.681   5.246  0.7998  0.5764  1.5565
 8459TIP3    H246793   5.852   6.818   5.279 -1.2282  1.7949  0.0920
 8460TIP3   OH246794   2.269   2.089   2.679  0.5768 -0.0592  0.1929
 8460TIP3    H146795   2.211   2.026   2.636  0.4079 -1.1625  1.9282
 8460TIP3    H246796   2.291   2.048   2.763  0.6459  2.1061  1.2992
 8461TIP3   OH246797   3.800   1.911  14.925  0.3726  0.9115  0.4293
 8461TIP3    H146798   3.791   1.988  14.869 -1.9761  0.0149 -0.5475
 8461TIP3    H246799   3.877   1.929  14.979  1.3590  2.8384 -1.4682
 8462TIP3   OH246800   3.495   5.628  14.192 -0.1780 -0.3882 -0.4241
 8462TIP3    H146801   3.448   5.707  14.218  0.8675 -0.7271  3.0955
 8462TIP3    H246802   3.436   5.557  14.216  0.8817 -0.7256  1.3972
 8463TIP3   OH246803   1.156   1.158   1.804  0.7288 -0.1172 -0.2360
 8463TIP3    H146804   1.205   1.076   1.810 -0.3417 -1.0161 -2.5584
 8463TIP3    H246805   1.212   1.216   1.752  0.6071 -0.1234 -0.3769
 8464TIP3   OH246806   1.841   3.367   0.083 -0.2258  0.4151 -0.6752
 8464TIP3    H146807   1.826   3.297   0.020 -0.6536 -2.0090  1.9058
 8464TIP3    H246808   1.788   3.343   0.158  3.9712  0.2183  2.6402
 8465TIP3   OH246809   0.512   4.476   0.985  0.6265 -0.4067  0.6182
 8465TIP3    H146810   0.417   4.468   0.997  0.3515  0.0470 -0.9557
 8465TIP3    H246811   0.521   4.509   0.895  2.2676 -0.0925  0.8821
 8466TIP3   OH246812   0.236   1.775  16.350  0.2504 -0.2832  0.1858
 8466TIP3    H146813   0.281   1.699  16.386  0.8504  0.3776  0.8450
 8466TIP3    H246814   0.281   1.851  16.388 -0.6181  0.4025 -0.1135
 8467TIP3   OH246815   5.514   2.020   4.557 -0.1654  0.0298 -0.1112
 8467TIP3    H146816   5.567   1.986   4.485 -0.0541  0.0435 -0.0360
 8467TIP3    H246817   5.502   1.944   4.615 -3.0172 -0.8923 -1.7368
 8468TIP3   OH246818   5.958   1.350  16.854  0.8043  0.5496  0.1907
 8468TIP3    H146819   6.008   1.277  16.816  1.3687  0.8112  0.4323
 8468TIP3    H246820   5.911   1.310  16.928  0.9335  0.3799  0.1840
 8469TIP3   OH246821   2.822   1.567  10.928  0.2672  0.4942  0.0668
 8469TIP3    H146822   2.821   1.637  10.994  1.6325 -0.2276  0.9005
 8469TIP3    H246823   2.741   1.519  10.945  0.1592  0.8551  0.6324
 8470TIP3   OH246824   6.021   0.490   3.204  0.1866 -0.4773  0.5081
 8470TIP3    H146825   6.053   0.414   3.156  2.9822  0.2184  1.0923
 8470TIP3    H246826   6.093   0.514   3.262 -0.1258  3.2204 -0.3477
 8471TIP3   OH246827   4.203   2.853  13.393  0.2868  1.2799 -0.1509
 8471TIP3    H146828   4.132   2.870  13.331 -0.4609  0.1276  0.3544
 8471TIP3    H246829   4.190   2.917  13.462 -0.3427  1.0035 -0.0063
 8472TIP3   OH246830   4.299   6.676  12.625  0.2300  0.2860 -0.2953
 8472TIP3    H146831   4.231   6.732  12.662  0.5524  0.9092 -0.6182
 8472TIP3    H246832   4.380   6.704  12.668  0.1944 -0.9249  0.6015
 8473TIP3   OH246833   4.258   3.366   3.987 -0.1467  0.2672  0.3788
 8473TIP3    H146834   4.191   3.327   3.930 -0.6162  1.5904  0.0017
 8473TIP3    H246835   4.212   3.385   4.069  0.4424 -1.2984  1.1185
 8474TIP3   OH246836   0.547   5.091   0.633  0.8587 -0.3212 -0.3489
 8474TIP3    H146837   0.565   5.002   0.604  1.2990  0.2815 -2.0420
 8474TIP3    H246838   0.464   5.113   0.590 -0.0855 -0.4290  1.3260
 8475TIP3   OH246839   0.044   1.880   2.842  0.4023  0.6399  0.3874
 8475TIP3    H146840   0.019   1.849   2.756  0.4498 -0.1524  0.6471
 8475TIP3    H246841  -0.006   1.826   2.903  1.8565 -0.2102  0.8912
 8476TIP3   OH246842   2.361   1.024  14.904  0.4301 -0.1291 -0.9590
 8476TIP3    H146843   2.325   0.954  14.849  0.0821 -0.1686 -0.6862
 8476TIP3    H246844   2.285   1.077  14.929  0.5655 -0.1751 -0.4285
 8477TIP3   OH246845   0.301   0.185   0.754  0.2436 -0.1951 -0.0134
 8477TIP3    H146846   0.350   0.176   0.672 -0.1667  0.2418 -0.3153
 8477TIP3    H246847   0.287   0.095   0.784  1.0805 -0.3275 -0.0079
 8478TIP3   OH246848   1.272   4.558  12.896 -0.6951  0.3244 -0.4310
 8478TIP3    H146849   1.187   4.575  12.937 -0.2015  0.0362  0.7417
 8478TIP3    H246850   1.308   4.483  12.944  1.7887  2.5856  1.6325
 8479TIP3   OH246851   2.953   5.635   1.207  0.8552 -0.2255 -0.6576
 8479TIP3    H146852   2.948   5.644   1.112  0.6247 -3.2005 -1.0178
 8479TIP3    H246853   3.024   5.572   1.222  0.7660  0.0349  1.1361
 8480TIP3   OH246854   5.746   5.847   1.848 -0.1277 -0.3002  0.9496
 8480TIP3    H146855   5.727   5.829   1.940  3.5498 -1.3697  1.6698
 8480TIP3    H246856   5.756   5.942   1.844 -0.7649 -0.2001  1.5473
 8481TIP3   OH246857   4.314   4.100   5.717  0.4586  0.0155 -0.2008
 8481TIP3    H146858   4.299   4.195   5.715  1.5048  0.1936 -0.0626
 8481TIP3    H246859   4.304   4.072   5.626 -4.0599 -0.4758  0.2360
 8482TIP3   OH246860   6.488   4.490   2.026  0.2420  0.0682  0.5617
 8482TIP3    H146861   6.560   4.432   2.001  0.1042  0.7102 -1.5021
 8482TIP3    H246862   6.420   4.432   2.059  1.4399 -0.6012  1.9611
 8483TIP3   OH246863   1.251   1.242  14.220  0.1486  0.2805  0.5097
 8483TIP3    H146864   1.256   1.154  14.257  0.9496  0.4481  0.8395
 8483TIP3    H246865   1.159   1.254  14.198 -0.1597 -0.2405  1.4421
 8484TIP3   OH246866   4.694   2.954  15.388  0.6790  0.0676  0.3914
 8484TIP3    H146867   4.672   3.042  15.418  3.1953  0.8037  0.2732
 8484TIP3    H246868   4.759   2.922  15.451  0.7624 -1.1915 -0.2968
 8485TIP3   OH246869   6.276   6.222   0.421 -0.2002  0.4331 -0.0300
 8485TIP3    H146870   6.252   6.291   0.483 -1.0740 -0.2079  0.3608
 8485TIP3    H246871   6.341   6.170   0.469  1.4989  1.7137 -0.8072
 8486TIP3   OH246872   3.700   6.358   4.268 -0.1172  0.2807 -0.2558
 8486TIP3    H146873   3.782   6.402   4.292  0.8615 -1.9528  0.8040
 8486TIP3    H246874   3.704   6.348   4.173  1.5765 -1.0339 -0.0921
 8487TIP3   OH246875   4.183   5.585   3.825  0.0795  0.4328  0.3086
 8487TIP3    H146876   4.107   5.563   3.771  1.2636  0.1443 -1.3341
 8487TIP3    H246877   4.163   5.671   3.862 -0.7888  0.6306 -0.5849
 8488TIP3   OH246878   2.852   3.386  15.325  0.1314  0.0572 -0.7467
 8488TIP3    H146879   2.764   3.378  15.362  0.5047 -0.9666 -0.0418
 8488TIP3    H246880   2.842   3.450  15.254 -1.2207 -0.1808 -0.8065
 8489TIP3   OH246881   1.383   3.873  16.813 -0.1588 -1.0889 -0.0116
 8489TIP3    H146882   1.385   3.884  16.908 -0.5976 -5.1894  0.6878
 8489TIP3    H246883   1.476   3.866  16.788 -0.0759 -1.6680  0.4281
 8490TIP3   OH246884   4.933   4.379  16.838  0.3254 -0.3971 -0.2575
 8490TIP3    H146885   5.015   4.365  16.887 -0.2755 -0.2357  0.8322
 8490TIP3    H246886   4.944   4.464  16.797  0.9794 -0.6828 -0.6966
 8491TIP3   OH246887   2.123   4.692  16.544 -0.0488  0.5195  0.1373
 8491TIP3    H146888   2.120   4.766  16.483 -0.1655  0.3134 -0.1117
 8491TIP3    H246889   2.170   4.726  16.620 -0.0473  0.8316  0.0015
 8492TIP3   OH246890   2.137   2.532   3.724  0.5589 -0.4246 -0.5950
 8492TIP3    H146891   2.230   2.514   3.710  0.7570 -0.3138  0.5399
 8492TIP3    H246892   2.129   2.551   3.817 -0.6318 -0.5832 -0.6457
 8493TIP3   OH246893   1.613   1.320   1.810 -0.5698 -0.3722  0.2694
 8493TIP3    H146894   1.616   1.249   1.746  1.7817  0.5146 -0.7427
 8493TIP3    H246895   1.643   1.281   1.892 -1.7208 -1.0841  0.3640
 8494TIP3   OH246896   2.822   1.892   0.360  0.4816 -0.3740 -0.0611
 8494TIP3    H146897   2.850   1.894   0.268 -2.2145 -0.7168 -0.9957
 8494TIP3    H246898   2.884   1.833   0.403  2.6674  0.8994 -1.2902
 8495TIP3   OH246899   4.738   3.857   0.535  0.7499 -0.3086 -0.5574
 8495TIP3    H146900   4.740   3.941   0.581 -0.6348 -0.0741 -0.9032
 8495TIP3    H246901   4.756   3.792   0.604 -0.9439  0.0711  0.3024
 8496TIP3   OH246902   0.826   1.294   4.581  0.3087 -0.0310 -0.1792
 8496TIP3    H146903   0.816   1.386   4.608 -3.4937  0.6262 -2.9419
 8496TIP3    H246904   0.777   1.245   4.647 -1.0153  0.4697 -0.7464
 8497TIP3   OH246905   6.481   2.429   0.926 -0.4981  0.0195  0.6737
 8497TIP3    H146906   6.412   2.429   0.860  2.3583  0.7246 -2.5594
 8497TIP3    H246907   6.485   2.338   0.957 -1.2273 -0.5707 -0.8894
 8498TIP3   OH246908   4.470   3.401   4.163  0.2890  0.7778 -0.4245
 8498TIP3    H146909   4.404   3.364   4.104  0.7696 -2.8353  1.0217
 8498TIP3    H246910   4.430   3.397   4.250  2.2830 -1.6485  0.5197
 8499TIP3   OH246911   6.370   0.381   1.724 -0.2101  0.1588 -0.3469
 8499TIP3    H146912   6.456   0.340   1.722  0.7491  2.1197 -1.5913
 8499TIP3    H246913   6.319   0.332   1.659  0.1554 -0.5745 -0.0934
 8500TIP3   OH246914   1.310   0.455   5.104  0.4943 -0.0356 -0.0966
 8500TIP3    H146915   1.357   0.372   5.115  1.3171  0.4844  0.4722
 8500TIP3    H246916   1.369   0.508   5.050 -0.6741 -0.3080 -1.7257
 8501TIP3   OH246917   3.446   0.687  15.121  0.2208  0.0897 -0.3373
 8501TIP3    H146918   3.394   0.643  15.054 -0.3321  1.5162 -0.9046
 8501TIP3    H246919   3.515   0.625  15.144  0.0564 -0.6603 -1.7913
 8502TIP3   OH246920   0.312   1.359  16.365 -0.5726 -0.1911  0.2940
 8502TIP3    H146921   0.270   1.352  16.451  1.1724  1.3714  1.3663
 8502TIP3    H246922   0.270   1.292  16.312 -3.0485  0.0376  1.7889
 8503TIP3   OH246923   4.707   5.686  16.776  0.0608  0.1810  0.0381
 8503TIP3    H146924   4.753   5.712  16.856  1.4759 -0.2448 -0.6038
 8503TIP3    H246925   4.650   5.614  16.804  0.0829  0.4468  0.7879
 8504TIP3   OH246926   5.995   1.201  16.383  0.9355  0.3591  0.4237
 8504TIP3    H146927   6.032   1.221  16.297 -0.9961 -0.5566 -0.6896
 8504TIP3    H246928   5.931   1.270  16.399 -1.1921 -1.2701 -0.5330
 8505TIP3   OH246929   5.057   2.124  13.523  0.1031  0.2276  0.0738
 8505TIP3    H146930   5.070   2.219  13.514 -0.1400  0.3119  0.5724
 8505TIP3    H246931   5.115   2.086  13.457  0.6196  0.7034  0.2421
 8506TIP3   OH246932   5.648   3.765  15.959 -0.1886  0.5268 -0.6185
 8506TIP3    H146933   5.714   3.731  16.020 -1.0823 -0.7632 -0.3497
 8506TIP3    H246934   5.673   3.728  15.874  0.4969  1.5584 -0.8968
 8507TIP3   OH246935   0.964   2.903   5.188  0.0895  0.0780 -0.2991
 8507TIP3    H146936   0.971   2.901   5.284 -0.4314  0.2436 -0.2520
 8507TIP3    H246937   1.049   2.872   5.157  0.0212 -0.6582  0.2249
 8508TIP3   OH246938   0.780   2.074   3.689 -0.3403 -0.8116 -0.6567
 8508TIP3    H146939   0.722   2.024   3.746  0.2535 -1.3192 -0.4879
 8508TIP3    H246940   0.784   2.023   3.608  0.8169 -1.4188 -0.2349
 8509TIP3   OH246941   3.940   1.078   1.235 -0.2350 -0.3851  0.2794
 8509TIP3    H146942   3.868   1.124   1.191  1.3511  1.0366 -1.0192
 8509TIP3    H246943   3.903   0.994   1.261 -2.3039  0.2293 -0.4447
 8510TIP3   OH246944   0.030   4.060  16.133  0.2471  0.6081  0.1591
 8510TIP3    H146945   0.061   4.148  16.157  0.1897  0.0635  2.4169
 8510TIP3    H246946   0.099   4.001  16.162  0.3457 -0.1403 -1.4577
 8511TIP3   OH246947   5.771   3.037  16.913  0.2209 -0.0893 -0.3621
 8511TIP3    H146948   5.804   2.984  16.985  0.7537 -1.1122 -1.3239
 8511TIP3    H246949   5.791   3.127  16.937  0.8087 -0.4516  0.5364
 8512TIP3   OH246950   4.469   5.284  15.690  0.2793 -0.4373  0.3886
 8512TIP3    H146951   4.408   5.236  15.633 -0.3008  1.5358 -0.7319
 8512TIP3    H246952   4.547   5.228  15.693 -0.6618 -1.8517 -0.1506
 8513TIP3   OH246953   3.751   6.229  16.992  0.2444  0.0247  0.2612
 8513TIP3    H146954   3.837   6.215  16.952  0.5514  0.7796  0.6288
 8513TIP3    H246955   3.770   6.232  17.086  0.0497  1.7467  0.2625
 8514TIP3   OH246956   6.558   1.552   2.789 -0.2518 -0.0565  0.4222
 8514TIP3    H146957   6.507   1.477   2.820 -2.3915  0.5790 -1.2402
 8514TIP3    H246958   6.560   1.612   2.864 -0.1396 -0.9847  1.1805
 8515TIP3   OH246959   2.391   0.783   2.834  0.7073  0.3493  0.1441
 8515TIP3    H146960   2.310   0.741   2.863  0.7352 -0.6167 -1.1009
 8515TIP3    H246961   2.452   0.710   2.819  1.0887  0.9009 -1.0640
 8516TIP3   OH246962   1.450   2.115   2.020 -0.1397 -0.2598 -0.5427
 8516TIP3    H146963   1.430   2.149   1.933 -1.3822 -0.9116 -0.5380
 8516TIP3    H246964   1.378   2.147   2.075  1.9745  2.4352  0.9172
 8517TIP3   OH246965   4.449   3.966  12.552  0.2662  0.6325  0.2131
 8517TIP3    H146966   4.500   3.992  12.476 -1.1075  1.4592 -0.4610
 8517TIP3    H246967   4.488   3.883  12.580  1.5916  0.9569 -0.6044
 8518TIP3   OH246968   6.631   6.188   5.887 -0.0910 -0.3763  0.3197
 8518TIP3    H146969   6.704   6.246   5.905 -0.2247 -0.4650  1.2210
 8518TIP3    H246970   6.624   6.134   5.966  0.1812 -1.7842 -0.5877
 8519TIP3   OH246971   1.403   5.235   0.873 -0.5066  0.4333 -0.4140
 8519TIP3    H146972   1.363   5.155   0.838  0.9380 -1.1425  1.3142
 8519TIP3    H246973   1.479   5.250   0.817  1.3843 -1.6691  1.3952
 8520TIP3   OH246974   4.143   4.203   4.722  0.2474 -0.5955  0.3344
 8520TIP3    H146975   4.183   4.199   4.635 -0.7919  0.0439 -0.1834
 8520TIP3    H246976   4.067   4.146   4.716 -0.0608 -0.2238  0.6993
 8521TIP3   OH246977   3.295   2.734  16.766 -0.2454 -0.2518  0.0353
 8521TIP3    H146978   3.372   2.679  16.753 -0.3939 -0.3533 -0.4158
 8521TIP3    H246979   3.262   2.751  16.678  0.6328  1.7708  0.0178
 8522TIP3   OH246980   0.484   6.162   1.590  0.3724  0.2298 -0.4541
 8522TIP3    H146981   0.395   6.145   1.559  0.5783 -0.6523 -0.5985
 8522TIP3    H246982   0.473   6.194   1.679 -0.1533  1.4256 -0.9331
 8523TIP3   OH246983   5.941   6.116   1.898  0.1371 -0.1808  0.3491
 8523TIP3    H146984   5.919   6.118   1.992 -0.3116  0.3314  0.2362
 8523TIP3    H246985   5.974   6.203   1.879  1.1288 -0.5666  0.2290
 8524TIP3   OH246986   0.184   4.061   2.913 -0.4330 -0.1332  0.0265
 8524TIP3    H146987   0.232   4.044   2.833  0.0349  0.6416  0.1332
 8524TIP3    H246988   0.165   3.974   2.949  1.2040 -0.4586  0.1755
 8525TIP3   OH246989   1.199   3.788   0.343  0.0255 -0.2514  0.6048
 8525TIP3    H146990   1.145   3.861   0.316  0.3979 -0.2107 -0.0573
 8525TIP3    H246991   1.196   3.789   0.438  0.5514  1.0260  0.6212
 8526TIP3   OH246992   1.203   6.748  11.634 -0.3169  0.7774 -0.2058
 8526TIP3    H146993   1.158   6.785  11.711 -3.3157 -0.1227 -1.3692
 8526TIP3    H246994   1.180   6.807  11.562 -0.1005 -0.0506 -0.9704
 8527TIP3   OH246995   3.881   2.503   2.389 -0.3038  0.1080  0.3014
 8527TIP3    H146996   3.872   2.491   2.295 -1.3726  2.3355  0.0625
 8527TIP3    H246997   3.809   2.561   2.413  0.2175 -0.0431  2.4297
 8528TIP3   OH246998   3.418   0.029   6.177 -0.2910 -0.5348  0.1471
 8528TIP3    H146999   3.323   0.038   6.179 -0.1591  1.6934 -0.6867
 8528TIP3    H247000   3.441   0.033   6.084  0.5827 -2.0410  0.2541
 8529TIP3   OH247001   3.442   6.450  16.639  0.4343  0.5191  0.0345
 8529TIP3    H147002   3.453   6.367  16.593  0.8872 -0.5844  2.0481
 8529TIP3    H247003   3.421   6.426  16.729 -1.7461  2.5941  0.1833
 8530TIP3   OH247004   2.899   0.371  11.589  0.2863  0.5328  0.5093
 8530TIP3    H147005   2.891   0.395  11.681 -0.8706  1.3520  0.2138
 8530TIP3    H247006   2.913   0.454  11.543 -1.4298  0.4350 -0.2738
 8531TIP3   OH247007   2.022   1.932  11.780  0.4296  0.0512  0.6437
 8531TIP3    H147008   2.056   1.997  11.719  0.5921  2.1701  2.8439
 8531TIP3    H247009   1.932   1.916  11.751  0.4467  1.1325 -0.0400
 8532TIP3   OH247010   4.844   5.958  11.001 -0.3598 -0.9413  0.0649
 8532TIP3    H147011   4.865   6.033  11.056  0.0703 -1.2695  0.3668
 8532TIP3    H247012   4.809   5.893  11.062 -0.8389 -0.9460 -0.2112
 8533TIP3   OH247013   3.945   5.049  15.338 -0.0309  0.1651  0.0095
 8533TIP3    H147014   3.851   5.048  15.354 -0.1383  0.6046 -0.5885
 8533TIP3    H247015   3.969   4.956  15.330 -0.0560 -0.0790  2.1413
 8534TIP3   OH247016   1.385   2.600  16.561  0.2189  0.3964 -0.4210
 8534TIP3    H147017   1.434   2.679  16.582  0.6536 -0.2252  1.1056
 8534TIP3    H247018   1.442   2.551  16.502  0.2771  0.8849 -0.7698
 8535TIP3   OH247019   2.895   0.260  15.490 -0.2716  0.3413 -0.0331
 8535TIP3    H147020   2.932   0.271  15.403 -0.7328  2.2284 -0.0460
 8535TIP3    H247021   2.893   0.349  15.526 -0.3849 -0.3635  1.7752
 8536TIP3   OH247022   3.602   0.616  16.462  0.7510 -0.0910  0.0409
 8536TIP3    H147023   3.624   0.557  16.391 -1.4203 -1.4311  0.3848
 8536TIP3    H247024   3.511   0.640  16.446  1.0240  1.7236  0.9291
 8537TIP3   OH247025   0.543   4.164   0.421 -0.6733 -0.1096  0.5848
 8537TIP3    H147026   0.584   4.233   0.369 -0.3564 -0.6210  0.1395
 8537TIP3    H247027   0.520   4.206   0.503 -1.8291  0.9122 -0.2178
 8538TIP3   OH247028   3.305   4.710   0.818  0.1863  0.2383 -0.3607
 8538TIP3    H147029   3.355   4.638   0.780  1.0147  0.9848 -0.7375
 8538TIP3    H247030   3.261   4.752   0.743  0.9957  1.0837 -0.3832
 8539TIP3   OH247031   4.625   5.166  15.441  0.6437 -0.2962  0.0232
 8539TIP3    H147032   4.558   5.109  15.478 -0.6823  0.8841 -0.4568
 8539TIP3    H247033   4.676   5.110  15.384  0.4762 -1.3644  0.8877
 8540TIP3   OH247034   5.453   4.786   3.349  0.1289  0.4202  0.0298
 8540TIP3    H147035   5.430   4.720   3.283  0.3872  0.8048 -0.4453
 8540TIP3    H247036   5.450   4.869   3.302 -1.7718  0.9539  0.9860
 8541TIP3   OH247037   1.173   0.364  14.538 -0.3781  0.2145  0.1173
 8541TIP3    H147038   1.105   0.309  14.579 -0.7408 -0.4003 -1.2570
 8541TIP3    H247039   1.255   0.331  14.575 -0.8361  2.1421  3.1991
 8542TIP3   OH247040   6.224   4.863  14.488  0.3447 -0.9430  0.4796
 8542TIP3    H147041   6.267   4.795  14.541  2.5401 -0.0650 -0.0800
 8542TIP3    H247042   6.287   4.883  14.419 -0.0428  1.9077  0.8380
 8543TIP3   OH247043   0.236   3.924   0.427 -0.3266 -0.6948 -0.9887
 8543TIP3    H147044   0.183   3.855   0.467  0.1857  0.4023  1.8313
 8543TIP3    H247045   0.326   3.898   0.443 -0.1015  1.2123  1.5177
 8544TIP3   OH247046   0.047   5.375  12.478 -0.5891 -0.2125  0.2934
 8544TIP3    H147047   0.012   5.369  12.389 -0.8586 -0.6105  0.4216
 8544TIP3    H247048   0.081   5.464  12.485 -1.6437  0.2112  0.1874
 8545TIP3   OH247049   5.139   3.720  13.931 -0.3865 -0.4523  0.0845
 8545TIP3    H147050   5.134   3.815  13.919  0.5441 -0.0129  2.6153
 8545TIP3    H247051   5.186   3.689  13.854  1.0291  1.4066  0.1192
 8546TIP3   OH247052   6.578   3.805   3.587  0.1126 -0.1659 -0.4272
 8546TIP3    H147053   6.668   3.790   3.556  1.3140  2.0021  1.5972
 8546TIP3    H247054   6.575   3.900   3.604 -3.2244  0.1668 -2.1819
 8547TIP3   OH247055   4.702   3.298   3.462  1.0376 -0.4076  0.4938
 8547TIP3    H147056   4.692   3.205   3.441 -0.1277 -0.7657  2.3583
 8547TIP3    H247057   4.718   3.300   3.557 -1.3939  1.3359  0.9839
 8548TIP3   OH247058   5.045   3.820   3.754  0.2954 -0.1446 -0.1842
 8548TIP3    H147059   5.038   3.857   3.842  1.1655  0.5540 -0.4020
 8548TIP3    H247060   5.120   3.864   3.714 -1.1533  0.8784 -1.9385
 8549TIP3   OH247061   3.837   5.076  12.590 -0.2218  0.0275 -0.3813
 8549TIP3    H147062   3.912   5.022  12.563 -1.0964 -1.4145 -0.0821
 8549TIP3    H247063   3.830   5.142  12.521 -0.5940 -1.7527 -2.1789
 8550TIP3   OH247064   2.593   5.150   0.284 -0.0714 -0.0584  0.0854
 8550TIP3    H147065   2.533   5.173   0.213 -0.8301  3.4544  1.6916
 8550TIP3    H247066   2.606   5.055   0.274 -2.0525 -0.1295 -3.2013
 8551TIP3   OH247067   2.259   6.550   5.276 -0.7902  0.1087  1.0590
 8551TIP3    H147068   2.242   6.580   5.366 -1.1060 -1.0243  1.3918
 8551TIP3    H247069   2.327   6.483   5.286 -0.0836  0.6978  0.3289
 8552TIP3   OH247070   6.184   1.578   1.717  0.9785  0.7019 -0.5911
 8552TIP3    H147071   6.258   1.555   1.661  0.4907  1.0690 -1.3923
 8552TIP3    H247072   6.129   1.633   1.663 -0.6367 -0.7594 -0.5180
 8553TIP3   OH247073   1.992   4.597   2.605  0.2113  0.2527 -0.0925
 8553TIP3    H147074   1.979   4.544   2.684  0.9027 -0.3229 -0.3534
 8553TIP3    H247075   2.055   4.547   2.553  1.9031  1.9456  0.2366
 8554TIP3   OH247076   5.087   2.483   3.964  0.2750 -0.3400 -0.0947
 8554TIP3    H147077   5.049   2.570   3.971  1.2811 -0.0048  2.0682
 8554TIP3    H247078   5.021   2.424   4.001  0.3958 -0.2108  0.3382
 8555TIP3   OH247079   6.079   0.622   0.335 -0.4309  0.4934  0.5154
 8555TIP3    H147080   5.996   0.669   0.338 -0.6523  0.1545 -0.1576
 8555TIP3    H247081   6.145   0.687   0.360 -0.6056  1.4579 -1.4032
 8556TIP3   OH247082   4.589   5.129  14.808  0.1990 -0.3216 -0.3591
 8556TIP3    H147083   4.617   5.137  14.899  1.0366  1.4897 -0.7398
 8556TIP3    H247084   4.621   5.043  14.780  1.6623 -0.0721  0.4796
 8557TIP3   OH247085   2.459   5.926  11.289  0.3465  0.1575 -0.1488
 8557TIP3    H147086   2.398   5.887  11.226  0.5839 -1.8462  0.7721
 8557TIP3    H247087   2.466   5.861  11.358 -0.0293  2.3359  2.0733
 8558TIP3   OH247088   3.254   0.094   3.584  0.6155  0.2647  0.0709
 8558TIP3    H147089   3.263   0.171   3.528 -0.2247  0.8806  0.7469
 8558TIP3    H247090   3.321   0.105   3.651 -0.3905  1.1508  0.9691
 8559TIP3   OH247091   5.668   5.563  11.827  0.3648 -0.1266 -0.5861
 8559TIP3    H147092   5.648   5.557  11.920 -0.4090 -0.7014 -0.7807
 8559TIP3    H247093   5.595   5.613  11.789 -0.3516 -1.5515 -1.1738
 8560TIP3   OH247094   6.229   3.579   6.467  0.0444  0.4250 -0.4538
 8560TIP3    H147095   6.241   3.541   6.554  0.5934  2.6394  0.4855
 8560TIP3    H247096   6.316   3.606   6.440  0.3538 -2.4040 -2.8678
 8561TIP3   OH247097   3.155   4.607  13.171  0.2796 -0.4563 -0.3590
 8561TIP3    H147098   3.087   4.549  13.205  1.3836 -1.2137  0.6611
 8561TIP3    H247099   3.140   4.608  13.076  0.1207 -2.3033 -0.3932
 8562TIP3   OH247100   5.644   1.209   3.928  0.5848  0.1374  0.2260
 8562TIP3    H147101   5.671   1.201   4.020  2.0210  0.7760 -0.1098
 8562TIP3    H247102   5.699   1.145   3.882 -0.2762 -0.3236 -0.1678
 8563TIP3   OH247103   2.114   2.548  14.593  0.1705  0.4154 -0.2054
 8563TIP3    H147104   2.180   2.509  14.535 -0.3223  0.1291 -0.5820
 8563TIP3    H247105   2.146   2.636  14.610  0.9349  0.0955  0.0673
 8564TIP3   OH247106   6.553   3.801  14.581  0.0876  0.1884 -0.3746
 8564TIP3    H147107   6.645   3.807  14.554  0.7774  2.4599  2.0219
 8564TIP3    H247108   6.519   3.890  14.567 -0.5814  0.4303  2.2635
 8565TIP3   OH247109   2.318   6.200   4.057 -0.5533  0.6858 -0.0920
 8565TIP3    H147110   2.391   6.229   4.112  0.1025  0.3078 -0.7490
 8565TIP3    H247111   2.343   6.112   4.029 -1.3230  0.5055 -0.2249
 8566TIP3   OH247112   3.490   1.237   2.564  0.4140 -0.1563 -0.1240
 8566TIP3    H147113   3.478   1.323   2.525 -0.2457  0.8161  2.0403
 8566TIP3    H247114   3.410   1.189   2.541  0.2557  0.2303 -0.3856
 8567TIP3   OH247115   3.134   2.292  14.698  0.1884  0.3606  0.4847
 8567TIP3    H147116   3.083   2.245  14.764 -0.1322 -0.8762 -0.6163
 8567TIP3    H247117   3.224   2.286  14.730  0.2520 -1.6231  0.0495
 8568TIP3   OH247118   4.467   4.464   3.372 -0.2754 -0.3621  0.0634
 8568TIP3    H147119   4.538   4.484   3.432 -0.2331  0.8856 -0.3682
 8568TIP3    H247120   4.495   4.501   3.288 -0.8889 -0.9589 -0.4228
 8569TIP3   OH247121   0.912   0.920  13.405 -0.4844  0.0348  0.4914
 8569TIP3    H147122   0.934   0.847  13.463 -1.0977  1.9779  3.4053
 8569TIP3    H247123   0.857   0.882  13.337  0.1567 -2.3725  1.2333
 8570TIP3   OH247124   2.384   1.712  16.856  0.6066 -0.2425  0.2814
 8570TIP3    H147125   2.424   1.625  16.853  0.2840 -0.4953  2.1814
 8570TIP3    H247126   2.290   1.695  16.849  0.6220  0.0960 -0.9148
 8571TIP3   OH247127   3.090   4.248   2.391  0.1043  0.6679  0.2109
 8571TIP3    H147128   3.183   4.269   2.395  0.1546  1.0995 -1.8917
 8571TIP3    H247129   3.087   4.156   2.367 -0.0336  0.4649  0.9865
 8572TIP3   OH247130   5.330   1.366  12.404  0.2192 -0.0087 -0.0573
 8572TIP3    H147131   5.375   1.418  12.471  0.9969 -0.4550 -0.2152
 8572TIP3    H247132   5.344   1.275  12.431 -0.1503 -0.1652 -0.3927
 8573TIP3   OH247133   6.647   0.477  13.144 -0.2776 -0.1135 -0.7689
 8573TIP3    H147134   6.593   0.553  13.119  0.3454  0.2253 -1.0996
 8573TIP3    H247135   6.723   0.514  13.187 -0.4374 -0.6128 -0.0488
 8574TIP3   OH247136   0.841   1.009  12.314  0.8384  0.4211  0.5168
 8574TIP3    H147137   0.880   0.952  12.381  3.2146 -0.3396 -1.3913
 8574TIP3    H247138   0.868   1.097  12.339 -0.4546  0.4836  1.8890
 8575TIP3   OH247139   4.048   6.481   0.678  0.7983  0.1684  0.2400
 8575TIP3    H147140   3.957   6.451   0.688  0.8233  0.6441  2.3734
 8575TIP3    H247141   4.051   6.563   0.728  2.0346  1.0104 -1.1409
 8576TIP3   OH247142   0.029   4.460  12.085 -0.2465 -0.1426 -0.0338
 8576TIP3    H147143  -0.038   4.520  12.052 -0.5187  0.2617  1.1931
 8576TIP3    H247144   0.091   4.516  12.132  0.5978 -0.5940 -0.5774
 8577TIP3   OH247145   1.179   4.370   5.544  0.0831  0.2394 -0.1606
 8577TIP3    H147146   1.226   4.409   5.618 -1.1664 -0.9780  1.3285
 8577TIP3    H247147   1.193   4.432   5.472  1.2005  1.5463  1.1162
 8578TIP3   OH247148   4.317   5.050   3.173  0.4271 -0.4217 -0.1975
 8578TIP3    H147149   4.352   5.107   3.104  0.8813 -0.7519 -0.2440
 8578TIP3    H247150   4.367   5.073   3.251 -1.8613  1.8622  0.7506
 8579TIP3   OH247151   1.793   5.907  11.385  0.6805  0.2829  0.2420
 8579TIP3    H147152   1.814   5.864  11.302  0.2862 -1.4729  0.9903
 8579TIP3    H247153   1.835   5.851  11.452 -0.6390  0.5488  1.3299
 8580TIP3   OH247154   0.952   4.618  12.485  0.6971 -0.2542 -0.4113
 8580TIP3    H147155   0.908   4.535  12.467  0.6559 -0.4052  0.3886
 8580TIP3    H247156   1.020   4.597  12.549  0.5860  0.3501 -0.0839
 8581TIP3   OH247157   4.967   2.338   2.444 -0.8772  0.0559  0.2124
 8581TIP3    H147158   4.916   2.312   2.367  1.4572  0.3307 -1.5218
 8581TIP3    H247159   4.983   2.432   2.431  0.0016 -0.0143  0.7181
 8582TIP3   OH247160   5.138   5.452   2.972 -0.2940  0.2052  0.1869
 8582TIP3    H147161   5.125   5.405   3.055 -0.6986  1.3545  0.7923
 8582TIP3    H247162   5.233   5.467   2.968 -0.2049 -0.3190  0.1643
 8583TIP3   OH247163   6.101   2.840   3.224 -0.5774 -0.5811 -0.2766
 8583TIP3    H147164   6.175   2.800   3.270 -1.2211 -1.1814  0.2690
 8583TIP3    H247165   6.042   2.766   3.207 -1.2401 -0.0442 -0.3320
 8584TIP3   OH247166   1.350   1.143  14.715 -0.9951  0.3809 -0.2408
 8584TIP3    H147167   1.340   1.128  14.809 -0.2434  0.3776 -0.1554
 8584TIP3    H247168   1.277   1.096  14.675 -0.9121 -0.2062  0.2942
 8585TIP3   OH247169   6.302   6.444  12.599  0.1902 -0.2751 -0.1712
 8585TIP3    H147170   6.344   6.502  12.661  0.2607  0.0047 -0.4811
 8585TIP3    H247171   6.367   6.376  12.581 -0.1864 -0.9143  0.8182
 8586TIP3   OH247172   5.767   2.158   3.631  0.1337 -0.5029 -0.7561
 8586TIP3    H147173   5.736   2.216   3.561  1.0097 -0.4109 -1.0769
 8586TIP3    H247174   5.803   2.083   3.585 -0.8022 -1.2233 -0.3441
 8587TIP3   OH247175   1.254   5.470  16.620 -0.1446  0.9918 -0.0092
 8587TIP3    H147176   1.168   5.506  16.642 -0.6533  0.3879 -0.9455
 8587TIP3    H247177   1.235   5.386  16.578  0.9461  0.4091  0.6270
 8588TIP3   OH247178   5.534   1.246  12.058 -0.2292  0.0416  0.3135
 8588TIP3    H147179   5.508   1.265  12.148  2.5216  0.8990  1.0140
 8588TIP3    H247180   5.540   1.332  12.016 -1.3169 -0.3380 -0.6917
 8589TIP3   OH247181   1.011   0.777  15.083 -0.3154  0.0114  0.2722
 8589TIP3    H147182   1.070   0.834  15.033 -0.6968 -0.4092 -0.6876
 8589TIP3    H247183   1.064   0.745  15.156  0.6642 -0.3778 -0.5831
 8590TIP3   OH247184   0.877   3.456   1.952 -0.0285  0.2184 -0.5807
 8590TIP3    H147185   0.853   3.522   1.888 -0.3364  0.1734 -0.5123
 8590TIP3    H247186   0.887   3.376   1.901 -2.0711 -0.2347 -0.3407
 8591TIP3   OH247187   0.900   1.560   0.443  0.0217 -0.3690  0.4163
 8591TIP3    H147188   0.884   1.571   0.349  0.5979  1.2300  0.4668
 8591TIP3    H247189   0.820   1.593   0.484  0.8843  1.7985  0.5130
 8592TIP3   OH247190   6.789   2.139  15.046 -0.0524  0.5258 -0.2627
 8592TIP3    H147191   6.864   2.128  14.987 -0.2151  0.0148 -0.3860
 8592TIP3    H247192   6.717   2.095  15.000 -0.4283  1.0223 -0.1474
 8593TIP3   OH247193   3.371   2.938  13.893 -0.2619  0.1658  0.1032
 8593TIP3    H147194   3.432   2.876  13.853 -0.2346  0.1381  0.1859
 8593TIP3    H247195   3.398   2.942  13.985  0.0990  0.7300 -0.0165
 8594TIP3   OH247196   3.965   4.127   0.479 -0.5057 -0.5199 -0.0102
 8594TIP3    H147197   3.903   4.172   0.422 -0.9360  1.0072  1.5549
 8594TIP3    H247198   3.933   4.145   0.568 -0.5657 -3.8159  0.7428
 8595TIP3   OH247199   0.930   6.475   4.442 -0.6145 -0.4808  0.5229
 8595TIP3    H147200   0.889   6.535   4.504  0.7568  0.1949  0.8328
 8595TIP3    H247201   0.940   6.393   4.491  2.0043  0.5292  1.9106
 8596TIP3   OH247202   5.175   5.134   4.476 -1.0678 -0.7206  0.7003
 8596TIP3    H147203   5.165   5.092   4.390 -1.1256  1.8624 -0.6342
 8596TIP3    H247204   5.088   5.128   4.516 -1.4634 -0.5528 -0.1090
 8597TIP3   OH247205   1.487   3.498   0.118 -0.0667  0.0605  0.1364
 8597TIP3    H147206   1.401   3.495   0.076  0.9571 -2.2574 -2.0231
 8597TIP3    H247207   1.535   3.425   0.080  2.8663  1.2212  1.3249
 8598TIP3   OH247208   0.803   0.700  15.309  0.3646  0.1147 -0.1566
 8598TIP3    H147209   0.797   0.682  15.215  0.0724  1.2950 -0.3819
 8598TIP3    H247210   0.896   0.715  15.325  0.6426 -1.6633  0.0740
 8599TIP3   OH247211   4.035   1.564   1.939  0.4057 -0.0875  0.5383
 8599TIP3    H147212   4.016   1.539   2.030  1.6856 -1.7459  0.3819
 8599TIP3    H247213   4.030   1.482   1.890  0.9288  0.5908 -0.6901
 8600TIP3   OH247214   2.715   1.782  12.884  0.4315  0.0512  0.1808
 8600TIP3    H147215   2.637   1.727  12.880  2.2916 -2.7572  0.2859
 8600TIP3    H247216   2.682   1.867  12.915 -2.5712 -0.9408  0.0240
 8601TIP3   OH247217   5.997   5.166   6.222 -0.0789  0.4352 -0.6065
 8601TIP3    H147218   6.021   5.258   6.220  0.0043  0.4647  0.8531
 8601TIP3    H247219   6.078   5.120   6.242 -0.3486  0.1554 -0.1360
 8602TIP3   OH247220   2.393   4.455   1.932 -0.6355  0.0829 -0.2239
 8602TIP3    H147221   2.425   4.422   1.848  1.7910  1.0309  0.2467
 8602TIP3    H247222   2.440   4.538   1.945 -1.4555  0.2952  1.7485
 8603TIP3   OH247223   1.761   1.826  10.930 -0.1645  0.0408  0.2096
 8603TIP3    H147224   1.717   1.741  10.943  0.5927 -0.1277  2.0564
 8603TIP3    H247225   1.854   1.806  10.938  0.0490  0.9603  0.1166
 8604TIP3   OH247226   6.459   4.051   2.645 -0.2303  0.0176  0.1708
 8604TIP3    H147227   6.396   4.097   2.701  0.5600 -0.3153  1.3817
 8604TIP3    H247228   6.544   4.072   2.683  0.1743 -2.3820  0.7853
 8605TIP3   OH247229   0.785   3.677  15.402  0.1972 -0.2879  0.5991
 8605TIP3    H147230   0.743   3.699  15.319 -1.1250 -0.8143  1.1078
 8605TIP3    H247231   0.741   3.597  15.431  1.1913 -0.5628  1.4269
 8606TIP3   OH247232   4.421   6.475   3.140 -0.2014  0.5491 -0.1792
 8606TIP3    H147233   4.349   6.507   3.087  0.4106  0.0967 -1.3316
 8606TIP3    H247234   4.462   6.407   3.087  0.2578 -0.1488  1.0123
 8607TIP3   OH247235   1.768   2.167  16.169 -0.4019  0.5236  0.3771
 8607TIP3    H147236   1.711   2.229  16.124 -0.4617  0.1775 -0.0311
 8607TIP3    H247237   1.729   2.082  16.153 -0.3961  0.3924  1.0549
 8608TIP3   OH247238   0.978   1.576  12.093  0.0329 -0.0523 -0.0157
 8608TIP3    H147239   0.911   1.636  12.058 -1.5067 -1.6917 -0.0043
 8608TIP3    H247240   0.997   1.517  12.020  0.2692 -0.6032  0.4894
 8609TIP3   OH247241   5.822   6.023   3.916 -0.6530  0.0376  0.0490
 8609TIP3    H147242   5.809   5.999   3.825  2.2134 -1.0166 -0.1852
 8609TIP3    H247243   5.874   6.103   3.913 -1.4566  0.6130  0.8036
 8610TIP3   OH247244   0.081   3.199   4.868 -0.4916 -0.1187 -0.0885
 8610TIP3    H147245   0.023   3.276   4.872 -1.5247 -0.9144  1.0897
 8610TIP3    H247246   0.169   3.236   4.859 -1.0351  1.1814 -0.2665
 8611TIP3   OH247247   0.637   6.164  12.721 -0.0994 -0.4483 -0.0625
 8611TIP3    H147248   0.665   6.092  12.778  0.7497 -1.5206 -1.7373
 8611TIP3    H247249   0.556   6.132  12.680 -0.6219  0.2465  0.4163
 8612TIP3   OH247250   2.521   3.848   4.378 -0.4740 -0.4415  0.5784
 8612TIP3    H147251   2.441   3.860   4.428 -0.5592 -0.5880  0.4776
 8612TIP3    H247252   2.548   3.758   4.397 -0.5936 -0.5497  0.2371
 8613TIP3   OH247253   5.866   3.298  16.937 -0.1743 -0.1345 -0.1157
 8613TIP3    H147254   5.903   3.263  17.019 -0.2649 -0.9835 -0.4231
 8613TIP3    H247255   5.931   3.361  16.906  0.3490 -0.5574  0.0923
 8614TIP3   OH247256   5.838   4.099   0.817  0.0181  0.4973 -0.3785
 8614TIP3    H147257   5.881   4.025   0.861  0.2936  0.8031 -0.1234
 8614TIP3    H247258   5.898   4.173   0.831 -0.8251  1.0621  0.4338
 8615TIP3   OH247259   1.474   6.295   2.050  0.2487  0.1333 -0.2168
 8615TIP3    H147260   1.404   6.285   2.115  0.1013 -2.1830 -0.6707
 8615TIP3    H247261   1.437   6.354   1.984 -0.0073  1.6266  1.1896
 8616TIP3   OH247262   4.638   0.339  13.135  0.2566 -0.4867  0.6060
 8616TIP3    H147263   4.614   0.418  13.086  0.0215  0.7170  2.5279
 8616TIP3    H247264   4.677   0.281  13.070 -0.3706  0.8496 -1.0480
 8617TIP3   OH247265   2.979   1.781  12.469  0.3406  0.2543  0.0834
 8617TIP3    H147266   2.925   1.719  12.420  0.9865  0.7038 -1.2534
 8617TIP3    H247267   3.014   1.730  12.542 -1.2610 -0.2355  0.5513
 8618TIP3   OH247268   3.414   4.739  15.855  0.0567 -0.4116 -0.0744
 8618TIP3    H147269   3.331   4.693  15.868  0.1650 -0.8804 -0.9169
 8618TIP3    H247270   3.468   4.677  15.807  0.8912 -0.0948  0.4379
 8619TIP3   OH247271   5.465   1.061  16.803  0.2778 -0.1897  0.7639
 8619TIP3    H147272   5.453   0.972  16.770 -0.6474 -0.3084  1.3691
 8619TIP3    H247273   5.552   1.060  16.844  0.0518 -0.9792  1.2466
 8620TIP3   OH247274   3.565   1.014  16.737 -0.3058  0.1274  0.0330
 8620TIP3    H147275   3.622   1.019  16.813  0.0396  2.2008 -0.2941
 8620TIP3    H247276   3.476   1.014  16.773 -0.1370 -0.3242  0.4607
 8621TIP3   OH247277   5.621   3.056  13.950 -0.1181  0.1819 -0.0128
 8621TIP3    H147278   5.554   2.991  13.926  0.3777  0.0715 -1.1620
 8621TIP3    H247279   5.689   3.046  13.884  0.0686  1.7316 -0.1004
 8622TIP3   OH247280   3.111   3.993   1.111  0.0705 -0.1088  0.2805
 8622TIP3    H147281   3.100   3.997   1.016  0.8322  0.2195  0.1975
 8622TIP3    H247282   3.092   4.081   1.142 -0.1111 -0.1983  0.4260
 8623TIP3   OH247283   6.448   4.601  12.945  0.4525 -0.1378 -0.3101
 8623TIP3    H147284   6.533   4.558  12.955  0.9739  0.9835  0.2920
 8623TIP3    H247285   6.415   4.571  12.860  0.8049 -1.6536  0.0534
 8624TIP3   OH247286   3.750   3.755  16.693 -0.0565  0.3101 -0.0908
 8624TIP3    H147287   3.726   3.690  16.628 -0.7397 -1.1437  1.5375
 8624TIP3    H247288   3.696   3.831  16.673  1.1929  0.6739 -2.3971
 8625TIP3   OH247289   0.077   6.629  15.421  0.2958  0.6215 -0.0194
 8625TIP3    H147290   0.137   6.599  15.489 -0.9869  0.0788  0.9060
 8625TIP3    H247291  -0.005   6.582  15.438 -0.6635  1.9656 -0.7282
 8626TIP3   OH247292   2.354   6.398  11.374 -0.1553 -0.1417 -0.1443
 8626TIP3    H147293   2.428   6.452  11.346 -0.5338 -0.2191 -1.3710
 8626TIP3    H247294   2.277   6.455  11.365 -0.1275  0.4519  2.6131
 8627TIP3   OH247295   2.462   6.708   0.374 -0.1010  0.3110 -0.5971
 8627TIP3    H147296   2.485   6.770   0.444 -0.3321 -0.1381 -0.1199
 8627TIP3    H247297   2.374   6.677   0.397 -0.6565  1.0242 -1.7126
 8628TIP3   OH247298   4.885   1.382  13.285  0.1847 -0.6326  0.0317
 8628TIP3    H147299   4.849   1.363  13.198 -1.4810  0.2380  0.4821
 8628TIP3    H247300   4.814   1.361  13.346  0.2226  1.5462  0.9443
 8629TIP3   OH247301   0.168   6.355  16.929 -0.3990  0.6997  0.0481
 8629TIP3    H147302   0.087   6.399  16.955 -0.4430  1.4178 -1.2165
 8629TIP3    H247303   0.152   6.327  16.838  1.0301  1.5619 -0.5003
 8630TIP3   OH247304   6.433   6.711  15.989  0.2887  0.0447  0.1879
 8630TIP3    H147305   6.367   6.724  16.057 -0.5757 -0.1362 -0.5898
 8630TIP3    H247306   6.474   6.797  15.980 -0.0054  0.2236  0.5143
 8631TIP3   OH247307   0.212   1.265  11.298  0.1705 -0.6278 -0.0072
 8631TIP3    H147308   0.285   1.255  11.359  0.4060 -1.7989 -0.4529
 8631TIP3    H247309   0.178   1.176  11.286 -0.6518 -0.2419 -0.6244
 8632TIP3   OH247310   3.102   5.382  10.409  0.2856 -0.2123 -0.1216
 8632TIP3    H147311   3.188   5.417  10.385  0.1088  0.9328  0.7957
 8632TIP3    H247312   3.040   5.432  10.355  0.1234 -0.1621  0.1094
 8633TIP3   OH247313   5.613   1.681   2.131 -0.2857  0.8595  0.1243
 8633TIP3    H147314   5.628   1.614   2.197 -0.3467  2.4864  1.9023
 8633TIP3    H247315   5.576   1.634   2.056  2.7423 -1.5548 -0.0419
 8634TIP3   OH247316   1.034   3.709  14.796 -0.2792 -0.0811  0.2536
 8634TIP3    H147317   1.001   3.619  14.807  0.8265 -0.6182 -0.6898
 8634TIP3    H247318   1.087   3.705  14.717  0.3781  1.2499  0.6162
 8635TIP3   OH247319   0.435   0.568  17.163  0.6893 -0.5190 -0.5277
 8635TIP3    H147320   0.385   0.612  17.095 -1.0198  2.6147  2.4754
 8635TIP3    H247321   0.372   0.512  17.208  0.7045  0.6569  1.0243
 8636TIP3   OH247322   0.949   6.611   4.742  0.0266 -0.0940  0.0353
 8636TIP3    H147323   1.019   6.630   4.678 -0.6570 -0.0374 -0.7159
 8636TIP3    H247324   0.951   6.686   4.801  0.3209  0.1218 -0.2391
 8637TIP3   OH247325   0.555   2.708  14.991  0.1033  0.0187 -0.4141
 8637TIP3    H147326   0.560   2.615  14.972 -0.5152 -0.4998  1.6674
 8637TIP3    H247327   0.636   2.727  15.039  0.5214  0.7213 -1.3636
 8638TIP3   OH247328   3.569   4.926   1.867  0.3571 -0.4404  0.4888
 8638TIP3    H147329   3.557   4.897   1.777  1.1317  0.3122  0.1184
 8638TIP3    H247330   3.603   4.849   1.913  0.2250 -0.7491  0.0725
 8639TIP3   OH247331   1.866   1.997  12.774 -0.6714 -0.1596 -0.0813
 8639TIP3    H147332   1.935   1.966  12.715  0.3101  0.8538  0.4876
 8639TIP3    H247333   1.796   2.026  12.716  0.0469  0.3093 -0.7317
 8640TIP3   OH247334   5.360   0.785  16.727  0.2045 -0.2096 -0.1268
 8640TIP3    H147335   5.337   0.772  16.635 -0.3775 -4.8701  0.4531
 8640TIP3    H247336   5.277   0.772  16.774  0.8566  0.2293  1.1854
 8641TIP3   OH247337   1.427   5.798  14.337  0.1284 -0.1319 -0.1875
 8641TIP3    H147338   1.393   5.710  14.350  1.5020 -1.0416 -2.3032
 8641TIP3    H247339   1.518   5.793  14.364  0.5633  0.2808 -1.5216
 8642TIP3   OH247340   2.586   6.390  16.399 -0.0994  0.0668 -0.1875
 8642TIP3    H147341   2.498   6.375  16.365  0.0085  2.4225 -1.7203
 8642TIP3    H247342   2.620   6.302  16.416 -2.0033 -0.9971 -1.4699
 8643TIP3   OH247343   1.551   6.045  11.031 -0.7317  0.0464  0.4055
 8643TIP3    H147344   1.491   5.990  10.981 -0.4842 -0.3810  0.5677
 8643TIP3    H247345   1.601   6.093  10.965 -0.2994 -0.6296  0.2296
 8644TIP3   OH247346   0.979   5.352  13.665 -0.0016 -0.1330 -0.3740
 8644TIP3    H147347   0.950   5.417  13.729 -0.3386 -2.1935  1.6875
 8644TIP3    H247348   1.070   5.334  13.689  1.5743  2.4978 -3.5635
 8645TIP3   OH247349   2.447   2.791   4.556 -0.5311  0.2075  0.1901
 8645TIP3    H147350   2.404   2.721   4.507 -0.0976  0.9444 -1.3200
 8645TIP3    H247351   2.538   2.789   4.527 -0.5173  1.4109  0.0681
 8646TIP3   OH247352   2.987   0.785   4.348 -0.3971  0.2753  0.1813
 8646TIP3    H147353   2.955   0.733   4.422  1.5718 -0.6425  0.4630
 8646TIP3    H247354   2.960   0.735   4.270 -0.5264  0.0601  0.3644
 8647TIP3   OH247355   3.628   3.208  16.177 -0.2152 -0.0703  0.0914
 8647TIP3    H147356   3.700   3.263  16.147 -0.3721 -0.8430 -1.8276
 8647TIP3    H247357   3.560   3.270  16.203  1.1874  0.6798  2.2828
 8648TIP3   OH247358   1.938   1.180   3.706 -0.1452  0.1409 -0.2980
 8648TIP3    H147359   2.032   1.162   3.703  0.0795  1.0357  0.8553
 8648TIP3    H247360   1.908   1.137   3.786 -0.8661 -0.7451 -1.0269
 8649TIP3   OH247361   2.663   4.806   5.518  0.4868  0.5483 -0.1526
 8649TIP3    H147362   2.730   4.807   5.586 -0.4168 -2.3345  0.9240
 8649TIP3    H247363   2.582   4.832   5.564  0.5350  2.7029 -1.1450
 8650TIP3   OH247364   2.037   0.928   1.956 -0.1744  0.1073  0.0860
 8650TIP3    H147365   2.023   1.010   1.909 -1.9461 -0.6663 -0.8543
 8650TIP3    H247366   2.016   0.860   1.891  0.3846 -1.0654  1.0935
 8651TIP3   OH247367   2.354   5.711   3.144  0.0788  0.0822  0.5555
 8651TIP3    H147368   2.358   5.782   3.080 -0.8288  0.0283  0.4217
 8651TIP3    H247369   2.445   5.681   3.152  0.3337  0.6508 -0.0694
 8652TIP3   OH247370   4.113   2.432  10.929  0.0131 -0.2628  0.0512
 8652TIP3    H147371   4.090   2.522  10.904 -2.5201 -0.7875  0.3298
 8652TIP3    H247372   4.054   2.411  11.001  0.4047 -2.2431 -0.1698
 8653TIP3   OH247373   2.793   3.688   5.623 -0.2689  0.1446 -0.2777
 8653TIP3    H147374   2.773   3.594   5.620  0.6683 -0.0915  0.4287
 8653TIP3    H247375   2.881   3.696   5.586 -0.1840  0.6908  0.0208
 8654TIP3   OH247376   1.713   2.997   2.477 -0.4136  0.1352 -0.2897
 8654TIP3    H147377   1.739   2.939   2.549 -1.2798  2.3861  1.9692
 8654TIP3    H247378   1.663   2.941   2.418  0.3025 -1.8017  0.8428
 8655TIP3   OH247379   1.049   3.847  12.409  0.1233  0.5567 -0.2689
 8655TIP3    H147380   0.961   3.845  12.373 -1.4653  0.8161  3.2062
 8655TIP3    H247381   1.100   3.792  12.350 -1.5384  2.7338 -4.0680
 8656TIP3   OH247382   5.329   5.724  16.924 -0.4865 -0.2175  0.1657
 8656TIP3    H147383   5.407   5.669  16.919  0.1096  0.6033  0.2623
 8656TIP3    H247384   5.282   5.692  17.001 -0.7455 -1.3415 -0.4350
 8657TIP3   OH247385   5.522   1.549   5.073 -0.4912 -0.3508 -0.2658
 8657TIP3    H147386   5.565   1.466   5.090  1.4156  0.2611 -1.7175
 8657TIP3    H247387   5.539   1.602   5.151 -0.3754 -0.8028  0.0157
 8658TIP3   OH247388   3.364   2.064  11.367  0.4845 -0.2923  0.7890
 8658TIP3    H147389   3.444   2.016  11.344 -0.4847 -0.5225 -2.6301
 8658TIP3    H247390   3.385   2.156  11.349  0.3336 -0.2294  0.9379
 8659TIP3   OH247391   6.251   4.055  11.178  0.8063 -0.1184  0.0112
 8659TIP3    H147392   6.216   4.005  11.252  0.4730 -0.8933 -0.6648
 8659TIP3    H247393   6.191   4.037  11.106  0.9460  0.8973 -0.3663
 8660TIP3   OH247394   3.299   0.368  14.969  0.3928 -0.1185  0.0257
 8660TIP3    H147395   3.218   0.355  15.018  0.8339 -1.1951  0.4872
 8660TIP3    H247396   3.281   0.330  14.883  0.6098 -0.9480  0.3366
 8661TIP3   OH247397   2.124   5.048  15.912  0.0376  0.4322  0.2338
 8661TIP3    H147398   2.125   5.130  15.864 -0.4802 -0.4952 -1.4294
 8661TIP3    H247399   2.073   5.067  15.991 -2.6135  1.0345 -1.4740
 8662TIP3   OH247400   4.613   2.228   1.529 -0.4747  0.5748  0.5167
 8662TIP3    H147401   4.526   2.251   1.562 -0.7186 -0.2547  0.4755
 8662TIP3    H247402   4.609   2.133   1.514  0.0466  0.7203 -0.6616
 8663TIP3   OH247403   2.060   6.194  14.461 -0.2393  0.2682  0.5210
 8663TIP3    H147404   2.118   6.127  14.496 -0.5567 -1.5140 -2.0418
 8663TIP3    H247405   2.000   6.214  14.533  0.1331 -1.9171  1.5256
 8664TIP3   OH247406   6.615   3.014   4.504  0.1618 -0.6868 -0.1725
 8664TIP3    H147407   6.620   2.993   4.411 -0.4865 -0.0553 -0.3663
 8664TIP3    H247408   6.684   3.079   4.518  0.1691 -0.6774 -0.2507
 8665TIP3   OH247409   6.704   3.219  16.269  0.6846 -0.5399  0.6122
 8665TIP3    H147410   6.638   3.203  16.202  0.6837  1.2929  0.1281
 8665TIP3    H247411   6.692   3.148  16.332  0.2494 -1.9193 -0.9682
 8666TIP3   OH247412   2.453   0.125   3.637 -0.0483 -0.0486  0.0512
 8666TIP3    H147413   2.481   0.155   3.551  0.4475  0.5938  0.4354
 8666TIP3    H247414   2.449   0.030   3.629 -0.5507  0.0418 -0.8426
 8667TIP3   OH247415   2.512   4.549   3.634  0.0187  0.5648 -0.3166
 8667TIP3    H147416   2.536   4.476   3.577  1.9036  1.3533 -0.6323
 8667TIP3    H247417   2.425   4.527   3.667 -0.4819 -0.6551 -2.2759
 8668TIP3   OH247418   0.681   2.012  14.545 -0.0467 -0.1521  0.2259
 8668TIP3    H147419   0.689   1.918  14.529  1.2199  0.0356 -0.4052
 8668TIP3    H247420   0.715   2.025  14.633 -2.6680 -0.5762  1.4172
 8669TIP3   OH247421   3.397   5.332   4.358 -0.0365 -0.2033 -0.4626
 8669TIP3    H147422   3.391   5.241   4.387  0.4422  0.2240  1.1259
 8669TIP3    H247423   3.428   5.379   4.436 -1.1808  1.4677 -0.9689
 8670TIP3   OH247424   6.218   5.212   3.671  0.0574  0.1055 -0.3794
 8670TIP3    H147425   6.241   5.121   3.652 -0.1312  0.1209 -0.6898
 8670TIP3    H247426   6.159   5.237   3.599  1.6675  1.0915 -1.4269
 8671TIP3   OH247427   0.566   5.674   0.859 -0.3173  0.0541  0.1277
 8671TIP3    H147428   0.564   5.686   0.954 -2.0926  0.5138  0.0553
 8671TIP3    H247429   0.621   5.745   0.827  0.1727 -0.0138  0.7871
 8672TIP3   OH247430   1.162   5.933  14.826  0.3535  0.2245  0.2599
 8672TIP3    H147431   1.113   5.936  14.744 -0.8095  0.9341  0.9575
 8672TIP3    H247432   1.190   5.842  14.834  0.4612  0.1430 -0.9031
 8673TIP3   OH247433   0.264   6.277   1.106  0.0792  0.5031  0.1760
 8673TIP3    H147434   0.242   6.337   1.034  0.0785 -0.3121 -0.5267
 8673TIP3    H247435   0.355   6.253   1.089  0.4779  1.2741  1.1709
 8674TIP3   OH247436   4.389   0.686  14.091 -0.0098 -0.0245 -0.3719
 8674TIP3    H147437   4.445   0.616  14.125 -2.0864 -1.1652  0.8988
 8674TIP3    H247438   4.306   0.674  14.137 -1.7734  0.7231 -3.1605
 8675TIP3   OH247439   0.386   4.583   2.707 -0.4242 -0.1622 -0.2947
 8675TIP3    H147440   0.474   4.571   2.672 -0.0835  3.1726 -0.8864
 8675TIP3    H247441   0.385   4.531   2.788  1.8246 -0.8479 -0.6403
 8676TIP3   OH247442   0.101   4.567   2.923  0.1537  0.6328  0.6456
 8676TIP3    H147443   0.130   4.611   2.844  1.4970 -0.7788  0.3069
 8676TIP3    H247444   0.161   4.493   2.933 -1.5739 -0.7234  1.5476
 8677TIP3   OH247445   1.099   3.369   1.505 -0.5552  0.6082  0.2116
 8677TIP3    H147446   1.099   3.346   1.597  1.1180 -2.4018 -0.4101
 8677TIP3    H247447   1.152   3.448   1.499  1.6487 -0.6960  1.5837
 8678TIP3   OH247448   4.706   5.139   3.770 -0.8320  0.1003 -0.1327
 8678TIP3    H147449   4.611   5.140   3.777 -0.8675 -0.5535 -0.3862
 8678TIP3    H247450   4.725   5.068   3.708 -0.2225  0.8846 -0.8802
 8679TIP3   OH247451   2.700   3.205  16.755  0.6227  0.1500  0.5468
 8679TIP3    H147452   2.710   3.130  16.695  0.4721  0.2348  0.4172
 8679TIP3    H247453   2.635   3.176  16.818  3.4594 -1.4585  3.0029
 8680TIP3   OH247454   5.892   3.326  14.611  0.0369 -0.4970 -0.5838
 8680TIP3    H147455   5.873   3.254  14.550 -0.0391  0.0178 -1.1840
 8680TIP3    H247456   5.811   3.338  14.660 -0.3225 -0.1147 -1.2438
 8681TIP3   OH247457   0.546   3.114  14.791  0.0968 -0.0365 -0.5679
 8681TIP3    H147458   0.487   3.189  14.801  0.2495  0.0077  0.0497
 8681TIP3    H247459   0.611   3.125  14.861  0.0607 -0.8049 -0.4028
 8682TIP3   OH247460   5.400   2.066  16.898  0.3040  0.0564  0.0791
 8682TIP3    H147461   5.429   1.975  16.901 -0.7612 -0.2578  2.3646
 8682TIP3    H247462   5.478   2.116  16.922 -0.2329 -0.6349  3.8308
 8683TIP3   OH247463   3.086   5.277   5.538 -0.5882  0.1094  0.1419
 8683TIP3    H147464   3.124   5.256   5.623 -0.0209  0.3865 -0.0403
 8683TIP3    H247465   3.032   5.201   5.516  0.4269 -0.6104  0.0836
 8684TIP3   OH247466   1.667   5.699   5.131 -0.4336  0.0707  0.8264
 8684TIP3    H147467   1.683   5.699   5.225 -0.3988  0.8025  0.8302
 8684TIP3    H247468   1.610   5.624   5.115  0.2762 -0.5833  1.3029
 8685TIP3   OH247469   1.452   4.303   5.378  0.1773  0.6336  0.6289
 8685TIP3    H147470   1.357   4.310   5.380  0.2407  1.5728  1.5042
 8685TIP3    H247471   1.483   4.386   5.415  1.3439  0.5247 -0.0458
 8686TIP3   OH247472   4.157   2.044   3.935 -0.0422 -0.1002  0.2789
 8686TIP3    H147473   4.246   2.010   3.938  0.1252  0.2544 -0.3637
 8686TIP3    H247474   4.140   2.061   3.842 -0.1032  1.5411  0.5461
 8687TIP3   OH247475   0.621   2.371  16.716 -0.1746  0.8335 -0.0334
 8687TIP3    H147476   0.648   2.462  16.725 -2.4039  1.6826 -1.2033
 8687TIP3    H247477   0.569   2.369  16.636 -1.7326 -1.0793  0.9473
 8688TIP3   OH247478   4.170   2.827  15.142 -0.1950  0.6424  0.4124
 8688TIP3    H147479   4.140   2.802  15.229 -0.3160  0.5494  0.3442
 8688TIP3    H247480   4.127   2.911  15.125 -0.9219  0.2062  0.0556
 8689TIP3   OH247481   2.293   6.399   4.337  0.0875  0.3527  0.4728
 8689TIP3    H147482   2.220   6.358   4.383 -1.5140 -0.0608 -2.1790
 8689TIP3    H247483   2.344   6.325   4.303  0.7135  0.6366  0.7744
 8690TIP3   OH247484   2.852   3.884  11.718  0.5482 -0.6425 -0.7742
 8690TIP3    H147485   2.940   3.853  11.697  0.8476 -1.9491  1.9506
 8690TIP3    H247486   2.862   3.929  11.802 -1.1868  0.4488 -1.0974
 8691TIP3   OH247487   5.387   4.641   3.131 -0.0905 -0.5514 -0.0189
 8691TIP3    H147488   5.317   4.651   3.066 -0.2693 -1.8068 -0.0479
 8691TIP3    H247489   5.456   4.700   3.101 -0.7204 -0.0645 -0.5661
 8692TIP3   OH247490   4.688   6.570  16.465 -0.0192  0.1155 -0.3721
 8692TIP3    H147491   4.648   6.553  16.380 -2.6171 -1.6512  1.0759
 8692TIP3    H247492   4.770   6.521  16.464 -1.4260 -2.3815 -0.8673
 8693TIP3   OH247493   0.664   2.942   4.004 -0.4076 -0.4210  0.2533
 8693TIP3    H147494   0.725   2.924   4.076  0.0030 -0.8633 -0.1921
 8693TIP3    H247495   0.658   2.859   3.957 -1.9592 -0.6051  0.7207
 8694TIP3   OH247496   4.057   5.315   2.321 -0.3458  0.1621  0.1149
 8694TIP3    H147497   3.977   5.331   2.271  0.4191 -0.4271 -1.3564
 8694TIP3    H247498   4.121   5.377   2.284 -0.5740  2.0364  2.5841
 8695TIP3   OH247499   5.802   3.082   6.445 -0.3531  0.0542  1.0588
 8695TIP3    H147500   5.748   3.015   6.403 -0.6877  1.8115 -1.5458
 8695TIP3    H247501   5.749   3.161   6.441  1.7320  1.4804 -0.1297
 8696TIP3   OH247502   6.544   1.460  16.414  0.1864 -0.0323 -0.3719
 8696TIP3    H147503   6.494   1.540  16.403  0.5146  0.7046  2.5643
 8696TIP3    H247504   6.481   1.389  16.401 -0.5995  0.7518 -0.8837
 8697TIP3   OH247505   0.500   4.525  15.866  0.1201  0.0814 -0.2640
 8697TIP3    H147506   0.442   4.462  15.911  0.2739  0.6272  0.7342
 8697TIP3    H247507   0.581   4.476  15.852 -0.8038 -0.9405 -2.3793
 8698TIP3   OH247508   4.050   1.943   3.422 -0.2186  0.2334  0.8283
 8698TIP3    H147509   4.071   1.850   3.434 -2.8119 -0.8184 -1.7250
 8698TIP3    H247510   3.974   1.957   3.479  0.5992  1.0588  1.7591
 8699TIP3   OH247511   3.785   0.435  13.198  0.6570  0.1506 -0.1151
 8699TIP3    H147512   3.736   0.384  13.133 -1.1204 -0.3836  1.5549
 8699TIP3    H247513   3.876   0.432  13.167  0.2172 -1.9144 -1.4109
 8700TIP3   OH247514   4.772   5.014   0.562 -0.1296  0.5497  0.0701
 8700TIP3    H147515   4.812   4.977   0.483  0.2852  2.7967 -0.8361
 8700TIP3    H247516   4.833   4.992   0.632  0.3960  0.0660 -0.5225
 8701TIP3   OH247517   5.243   6.267  14.774 -0.5584  0.1603 -0.0515
 8701TIP3    H147518   5.215   6.224  14.693 -0.0269  0.2219 -0.2729
 8701TIP3    H247519   5.283   6.349  14.745 -3.0934  1.6614  0.4643
 8702TIP3   OH247520   4.127   1.824   5.639  0.5846  0.4260 -0.1531
 8702TIP3    H147521   4.037   1.795   5.622  0.3444  1.0386  0.0532
 8702TIP3    H247522   4.176   1.792   5.563  0.0614  0.6712 -0.6062
 8703TIP3   OH247523   0.613   0.040   1.887  0.1385  0.7645 -0.2250
 8703TIP3    H147524   0.632   0.045   1.981  1.2197 -2.4049 -0.1622
 8703TIP3    H247525   0.539  -0.021   1.881  1.1814 -0.4313 -1.4715
 8704TIP3   OH247526   5.871   6.151  17.108 -0.3249 -0.4319  0.6227
 8704TIP3    H147527   5.826   6.067  17.097  0.0343 -0.2991 -3.2078
 8704TIP3    H247528   5.964   6.131  17.100 -0.1099  0.1590  1.4390
 8705TIP3   OH247529   1.313   6.195   1.768  0.1881 -0.2643 -0.6108
 8705TIP3    H147530   1.254   6.149   1.828  0.1500 -1.4439 -1.5155
 8705TIP3    H247531   1.366   6.126   1.729  1.2774  0.6482 -0.7807
 8706TIP3   OH247532   2.772   5.181   3.284 -0.2130 -0.4949  0.3820
 8706TIP3    H147533   2.781   5.224   3.369  0.2346 -0.0532  0.1135
 8706TIP3    H247534   2.726   5.099   3.304 -0.9633  0.0343  0.9218
 8707TIP3   OH247535   3.584   2.307   0.369  0.2159 -0.5162 -0.6761
 8707TIP3    H147536   3.552   2.383   0.417 -0.2467 -1.2736  0.2571
 8707TIP3    H247537   3.678   2.321   0.360  0.1450  0.1164 -0.4464
 8708TIP3   OH247538   6.430   5.769  15.856  0.0691 -0.2575  1.0213
 8708TIP3    H147539   6.421   5.675  15.839  0.1685 -0.1778  0.4914
 8708TIP3    H247540   6.413   5.779  15.949  1.3192 -0.9753  1.3576
 8709TIP3   OH247541   5.724   6.087   3.267 -1.2580 -0.5028 -0.2208
 8709TIP3    H147542   5.656   6.131   3.216 -0.2732 -0.0131 -1.1413
 8709TIP3    H247543   5.678   6.053   3.343 -2.4574  0.1989 -0.6050
 8710TIP3   OH247544   3.507   1.947   6.014 -0.7599 -0.0289 -0.2391
 8710TIP3    H147545   3.421   1.983   6.034 -2.3151 -2.6777 -1.5948
 8710TIP3    H247546   3.514   1.952   5.919  1.6083  2.0625 -0.0786
 8711TIP3   OH247547   5.309   2.014   3.685 -0.1027 -0.0568  0.3565
 8711TIP3    H147548   5.306   1.918   3.691 -0.6136 -0.1459 -1.0908
 8711TIP3    H247549   5.360   2.032   3.606 -0.6360  0.8592  0.2059
 8712TIP3   OH247550   3.477   3.152   2.051  0.3972 -0.6495 -0.2828
 8712TIP3    H147551   3.555   3.185   2.096 -0.4507 -0.2576  0.9708
 8712TIP3    H247552   3.410   3.150   2.119 -0.7284 -0.8442 -1.3704
 8713TIP3   OH247553   5.518   5.599  14.877 -0.5996 -0.5364  0.0529
 8713TIP3    H147554   5.507   5.558  14.963  0.4351 -0.1208  0.4001
 8713TIP3    H247555   5.445   5.565  14.825 -1.7285 -0.1393  1.3250
 8714TIP3   OH247556   2.591   1.171  12.019 -0.4033  0.6854  0.2063
 8714TIP3    H147557   2.577   1.136  11.931  0.9074  0.0660  0.2167
 8714TIP3    H247558   2.657   1.113  12.058 -1.2609  0.6881  1.7586
 8715TIP3   OH247559   6.589   2.399   1.998  0.3430 -0.2224 -0.4740
 8715TIP3    H147560   6.677   2.433   1.984  0.4313  0.8232  2.1897
 8715TIP3    H247561   6.540   2.472   2.034 -0.8945 -1.5000  0.5484
 8716TIP3   OH247562   6.075   5.538  15.091 -0.2099 -0.0484  0.4265
 8716TIP3    H147563   6.054   5.449  15.062 -1.6682 -0.6026  2.8622
 8716TIP3    H247564   6.146   5.526  15.155 -0.0706  0.5920  0.4008
 8717TIP3   OH247565   4.033   2.320  14.832  0.5229 -0.4712 -0.0705
 8717TIP3    H147566   4.052   2.376  14.756  1.5737 -0.5837  0.1005
 8717TIP3    H247567   4.044   2.378  14.907  0.3848 -0.5934  0.0438
 8718TIP3   OH247568   3.703   4.069   0.850 -0.2576  0.3414  0.3790
 8718TIP3    H147569   3.690   4.021   0.768 -0.5995 -1.8875  1.6445
 8718TIP3    H247570   3.753   4.146   0.825 -0.1644 -0.3753 -1.8942
 8719TIP3   OH247571   0.793   6.138  13.706  0.4004  0.1398 -0.0080
 8719TIP3    H147572   0.717   6.081  13.697  0.2363  0.5339 -1.2686
 8719TIP3    H247573   0.769   6.218  13.660  0.9155  0.9506  1.0973
 8720TIP3   OH247574   0.084   0.137  12.320  0.2794  0.3207  0.3243
 8720TIP3    H147575   0.046   0.078  12.255  2.1241 -0.2088 -0.3463
 8720TIP3    H247576   0.045   0.222  12.302  1.2510  0.3390 -1.9791
 8721TIP3   OH247577   3.441   1.570   2.990 -0.2666 -0.5824  0.5882
 8721TIP3    H147578   3.431   1.478   2.964 -0.2891  0.1022 -2.0938
 8721TIP3    H247579   3.536   1.584   2.990 -0.2826 -0.4689  0.4191
 8722TIP3   OH247580   1.066   0.971   2.545  0.2133  0.0698 -0.3955
 8722TIP3    H147581   1.082   1.038   2.478  1.0241 -1.5233 -1.8577
 8722TIP3    H247582   1.146   0.919   2.546 -0.3455 -0.8062  0.8340
 8723TIP3   OH247583   6.561   5.334   1.579 -0.0499  0.1187 -0.0932
 8723TIP3    H147584   6.522   5.345   1.666  0.0093  0.5024 -0.1140
 8723TIP3    H247585   6.493   5.365   1.519 -0.2960 -0.6401 -0.2183
 8724TIP3   OH247586   2.872   5.385  12.268 -0.6769 -0.1251 -0.2628
 8724TIP3    H147587   2.831   5.464  12.233  0.5492  1.9862  2.6065
 8724TIP3    H247588   2.937   5.360  12.202 -2.2567  0.1793 -2.0103
 8725TIP3   OH247589   2.724   1.698  16.396  0.2332 -1.2454 -0.0402
 8725TIP3    H147590   2.680   1.709  16.480 -1.0193 -1.9910 -0.5635
 8725TIP3    H247591   2.815   1.722  16.412 -0.1380 -0.7348  1.3562
 8726TIP3   OH247592   3.364   4.219  12.649  0.0619 -0.0248 -0.4286
 8726TIP3    H147593   3.413   4.207  12.730 -1.0202 -2.3543 -0.0226
 8726TIP3    H247594   3.424   4.191  12.579  0.5357  0.6847 -0.3112
 8727TIP3   OH247595   1.619   4.028   4.387  0.4094  0.0327 -0.2409
 8727TIP3    H147596   1.643   3.940   4.416  1.0758  0.2818 -0.0346
 8727TIP3    H247597   1.654   4.087   4.454 -0.8326  0.4091  0.1124
 8728TIP3   OH247598   1.198   6.785   6.210 -0.4653  0.7029 -0.0802
 8728TIP3    H147599   1.193   6.877   6.236 -0.0327  0.8712 -0.5751
 8728TIP3    H247600   1.234   6.787   6.122 -0.4841  0.0573 -0.1081
 8729TIP3   OH247601   2.324   6.046  15.386 -0.1575  0.3198  0.1535
 8729TIP3    H147602   2.318   6.128  15.337  2.2850  0.6894  0.3805
 8729TIP3    H247603   2.415   6.040  15.414 -0.2088 -2.5376  0.0573
 8730TIP3   OH247604   5.154   2.796  10.965 -0.8174  0.2004 -0.1840
 8730TIP3    H147605   5.070   2.803  11.011 -0.5677  1.2044  0.1290
 8730TIP3    H247606   5.173   2.702  10.965 -2.2675 -0.1302 -0.8666
 8731TIP3   OH247607   6.228   6.501  14.492  0.7047  0.1446 -0.3622
 8731TIP3    H147608   6.173   6.497  14.414 -1.1505 -0.9364  0.9075
 8731TIP3    H247609   6.216   6.591  14.524 -1.4917 -0.3959  0.5849
 8732TIP3   OH247610   2.136   5.392   0.346  0.2788  0.0294 -0.3990
 8732TIP3    H147611   2.126   5.388   0.251 -1.2877 -0.5751 -0.2370
 8732TIP3    H247612   2.085   5.318   0.379  0.8905  0.1625  0.9141
 8733TIP3   OH247613   2.588   0.418   3.217  0.1159  0.8676  0.2032
 8733TIP3    H147614   2.667   0.384   3.259  1.2274 -0.1154 -2.5013
 8733TIP3    H247615   2.536   0.340   3.197 -0.0616  1.2402 -0.8251
 8734TIP3   OH247616   3.291   1.423   5.900 -0.4598  0.2870 -0.4716
 8734TIP3    H147617   3.373   1.471   5.899 -0.8368  1.0434  1.1412
 8734TIP3    H247618   3.231   1.477   5.848 -0.6995  1.2654  0.7765
 8735TIP3   OH247619   4.283   1.489  11.781 -0.6857  0.6071  0.2076
 8735TIP3    H147620   4.281   1.423  11.712 -1.9776  0.1253  0.6622
 8735TIP3    H247621   4.260   1.571  11.737  1.2535  0.8694 -0.4246
 8736TIP3   OH247622   3.422   3.505   4.024 -0.0966 -0.2228  0.5207
 8736TIP3    H147623   3.424   3.540   4.113 -0.1276  0.4196  0.2780
 8736TIP3    H247624   3.349   3.551   3.982  1.1989  1.0725 -0.4439
 8737TIP3   OH247625   5.282   5.535  13.987 -0.4909 -0.4304 -0.0400
 8737TIP3    H147626   5.206   5.575  13.944 -1.2121 -2.2176 -0.5429
 8737TIP3    H247627   5.264   5.544  14.080 -1.1839 -0.5435 -0.1523
 8738TIP3   OH247628   0.427   2.626  11.275 -0.4843 -0.4360 -0.0765
 8738TIP3    H147629   0.391   2.545  11.312 -0.4221  0.2146  1.5114
 8738TIP3    H247630   0.488   2.658  11.342 -0.4891  0.8972 -0.6758
 8739TIP3   OH247631   2.108   1.968  15.611 -0.2577  0.5294 -0.7241
 8739TIP3    H147632   2.178   2.033  15.614 -0.8356  1.1479 -0.3287
 8739TIP3    H247633   2.070   1.969  15.699 -0.3199 -0.2981 -0.7318
 8740TIP3   OH247634   3.720   1.697   3.136 -0.3715 -0.3638 -0.3142
 8740TIP3    H147635   3.807   1.735   3.129 -0.2248 -0.4476  0.7998
 8740TIP3    H247636   3.663   1.771   3.155 -0.3634 -0.4549  0.0729
 8741TIP3   OH247637   4.564   3.322  13.134 -0.2953 -0.7842  0.2729
 8741TIP3    H147638   4.609   3.399  13.168  0.6792 -0.6753 -1.1527
 8741TIP3    H247639   4.475   3.328  13.168  0.0125  0.5097  0.8832
 8742TIP3   OH247640   1.154   2.815  10.805  0.3861 -0.4036 -0.1198
 8742TIP3    H147641   1.246   2.791  10.794  0.7309 -0.4472  2.3031
 8742TIP3    H247642   1.155   2.910  10.815  0.5222 -0.5900  2.2104
 8743TIP3   OH247643   1.060   2.674  16.377 -0.1994  0.6227  0.1947
 8743TIP3    H147644   1.107   2.601  16.417 -1.2560 -0.3855 -0.3900
 8743TIP3    H247645   1.002   2.706  16.446 -0.1699  0.5455  0.2550
 8744TIP3   OH247646   5.525   2.915  16.409 -0.8116  0.1268  0.4206
 8744TIP3    H147647   5.556   2.824  16.408 -3.4981 -0.8921  0.6794
 8744TIP3    H247648   5.464   2.920  16.335 -0.8673  1.6697  0.5402
 8745TIP3   OH247649   4.758   6.164   3.639 -0.2368  0.2548  0.2135
 8745TIP3    H147650   4.706   6.234   3.600  2.3165  1.6996 -0.8206
 8745TIP3    H247651   4.737   6.169   3.733  0.6423  3.2183  0.3592
 8746TIP3   OH247652   3.466   4.614   5.354 -0.1429  0.3217 -0.6568
 8746TIP3    H147653   3.437   4.594   5.444  0.4252 -0.0863 -0.5598
 8746TIP3    H247654   3.390   4.592   5.300 -0.4752  0.5269 -0.2854
 8747TIP3   OH247655   6.730   4.507   4.868  0.3483 -0.3101 -0.2593
 8747TIP3    H147656   6.656   4.567   4.864  0.5736  0.0059  0.2376
 8747TIP3    H247657   6.695   4.423   4.837  0.1944  0.2292 -1.5964
 8748TIP3   OH247658   0.816   5.360   5.552 -0.1609 -0.2419 -0.1027
 8748TIP3    H147659   0.793   5.419   5.623  0.8112 -1.0229  0.8995
 8748TIP3    H247660   0.912   5.359   5.552 -0.1564 -1.3563 -0.4881
 8749TIP3   OH247661   4.018   4.308  13.331  0.1410 -0.0971  0.8141
 8749TIP3    H147662   4.048   4.330  13.419  0.4185  2.3141  0.2088
 8749TIP3    H247663   4.098   4.303  13.279 -0.1118  3.4549 -0.2115
 8750TIP3   OH247664   3.731   5.621  10.543  0.5886  0.0736  0.4320
 8750TIP3    H147665   3.643   5.622  10.580  0.4753 -0.1257  0.1693
 8750TIP3    H247666   3.719   5.636  10.449  0.7255 -1.1592  0.1941
 8751TIP3   OH247667   2.114   5.551  14.567  0.3118 -0.7658 -0.1993
 8751TIP3    H147668   2.156   5.620  14.618 -1.4439 -0.4228  0.8595
 8751TIP3    H247669   2.141   5.470  14.609  0.9561 -0.6451 -0.3588
 8752TIP3   OH247670   5.111   3.890   5.415  0.3782 -0.2222 -0.1176
 8752TIP3    H147671   5.119   3.808   5.465  0.1065  0.8769  1.8270
 8752TIP3    H247672   5.199   3.908   5.384  0.4174 -1.3004 -0.6943
 8753TIP3   OH247673   0.384   3.429   4.582 -0.2341  0.1703 -0.2217
 8753TIP3    H147674   0.309   3.451   4.528  0.3076  3.2889  0.0855
 8753TIP3    H247675   0.441   3.377   4.525 -1.0848  0.6985 -1.5963
 8754TIP3   OH247676   2.932   0.986  13.471  0.0465 -0.2944 -0.1902
 8754TIP3    H147677   2.882   1.063  13.497 -0.4420 -0.5980 -0.2135
 8754TIP3    H247678   2.980   1.014  13.393  0.2099  0.1160  0.0577
 8755TIP3   OH247679   2.924   2.145   0.240  0.2558  0.2745  0.0427
 8755TIP3    H147680   2.934   2.057   0.204 -0.7591  0.1265  0.0913
 8755TIP3    H247681   2.995   2.196   0.200  0.4806 -0.4162 -0.4467
 8756TIP3   OH247682   2.350   2.466  14.425  0.2209  0.1325  0.0020
 8756TIP3    H147683   2.403   2.544  14.407  0.3449 -0.5171 -2.9112
 8756TIP3    H247684   2.399   2.394  14.386 -0.1048 -1.4207  2.2428
 8757TIP3   OH247685   2.958   5.330  14.816  0.0524  0.2326 -0.2786
 8757TIP3    H147686   2.948   5.374  14.899  0.1944  0.2409 -0.2646
 8757TIP3    H247687   2.870   5.302  14.792 -0.2173  1.5089 -0.8355
 8758TIP3   OH247688   4.359   3.986  11.418  0.0707  0.2244  0.1148
 8758TIP3    H147689   4.388   4.039  11.493  0.9791 -0.4075  0.2269
 8758TIP3    H247690   4.432   3.926  11.402  0.3773  1.0830 -2.0027
 8759TIP3   OH247691   4.378   5.705   1.097  0.5247 -0.1840  0.0862
 8759TIP3    H147692   4.398   5.739   1.010 -1.6831  0.3628 -0.2613
 8759TIP3    H247693   4.388   5.781   1.155  0.1201 -0.0572 -0.0028
 8760TIP3   OH247694   3.858   2.838  10.738  0.1061  0.3219 -0.0069
 8760TIP3    H147695   3.779   2.883  10.708 -0.6949 -1.5836 -0.9277
 8760TIP3    H247696   3.922   2.851  10.668 -0.0011  0.2849 -0.1104
 8761TIP3   OH247697   3.798   5.262  12.777 -0.1771  0.4266  0.1654
 8761TIP3    H147698   3.818   5.180  12.733 -1.0035  0.2586  0.0818
 8761TIP3    H247699   3.882   5.294  12.810 -0.0930 -1.4542  1.9601
 8762TIP3   OH247700   1.590   1.001  16.076 -0.4258 -0.0980 -0.1481
 8762TIP3    H147701   1.529   0.994  16.002 -1.0344 -3.1257  0.5086
 8762TIP3    H247702   1.677   0.991  16.037 -0.6581 -0.4152 -0.5864
 8763TIP3   OH247703   4.979   6.016   2.018 -0.4306 -0.2234  0.1485
 8763TIP3    H147704   5.001   6.083   2.084 -0.3801  0.1067 -0.2003
 8763TIP3    H247705   5.059   5.964   2.009 -0.2268  0.1316 -0.1228
 8764TIP3   OH247706   6.208   0.618   4.497 -0.1866  0.1514 -0.4117
 8764TIP3    H147707   6.152   0.682   4.541  1.1396 -0.2391  1.9967
 8764TIP3    H247708   6.271   0.592   4.563  1.1679 -1.4502 -2.2329
 8765TIP3   OH247709   0.146   2.064  15.525 -0.9068  0.4468  0.1407
 8765TIP3    H147710   0.061   2.059  15.481 -0.5923  0.5586 -0.4894
 8765TIP3    H247711   0.139   2.003  15.598 -0.9772 -0.7680 -0.8434
 8766TIP3   OH247712   0.807   3.220   4.314  0.1771  0.2245  0.2541
 8766TIP3    H147713   0.884   3.243   4.262  0.6995 -2.0641 -0.1142
 8766TIP3    H247714   0.795   3.126   4.298 -0.5209 -0.2692  3.1330
 8767TIP3   OH247715   1.955   1.710   4.858  0.2399  0.0859 -0.6815
 8767TIP3    H147716   1.890   1.668   4.914  0.1222  0.6565 -0.3861
 8767TIP3    H247717   1.942   1.670   4.772  0.6346 -1.0311 -0.2443
 8768TIP3   OH247718   2.354   2.971  14.872 -0.0281  0.0177  0.1918
 8768TIP3    H147719   2.296   2.902  14.905 -0.3504 -0.0730 -0.5429
 8768TIP3    H247720   2.440   2.929  14.867 -0.4628 -0.7723 -1.5098
 8769TIP3   OH247721   2.637   5.659   3.315  0.2823  0.0462 -0.1516
 8769TIP3    H147722   2.716   5.713   3.318  0.2366  0.0715  0.6911
 8769TIP3    H247723   2.624   5.642   3.221  0.7303  0.8452 -0.3677
 8770TIP3   OH247724   3.065   6.255   3.138 -0.2051 -0.1438 -0.2924
 8770TIP3    H147725   3.090   6.162   3.140  0.4272  0.0420  1.0998
 8770TIP3    H247726   3.044   6.276   3.228 -0.8352  0.9555 -0.6840
 8771TIP3   OH247727   2.388   1.465   5.273 -0.2474  0.6089  0.0396
 8771TIP3    H147728   2.397   1.465   5.178 -1.5761  0.3380 -0.1014
 8771TIP3    H247729   2.477   1.483   5.305  1.2565 -3.4291 -1.1386
 8772TIP3   OH247730   1.829   2.986   0.086 -0.4316 -0.4546  0.5318
 8772TIP3    H147731   1.849   2.902   0.129 -0.1388 -0.7835 -0.2341
 8772TIP3    H247732   1.766   2.964   0.018 -1.9480  0.2814  1.6314
 8773TIP3   OH247733   0.281   0.325  12.254  0.2145 -0.1981  0.6492
 8773TIP3    H147734   0.254   0.243  12.296 -1.3652 -0.3591 -0.5796
 8773TIP3    H247735   0.259   0.393  12.317 -0.0253 -0.5942  0.9997
 8774TIP3   OH247736   3.886   5.709  11.868  0.2345 -0.9469  0.0463
 8774TIP3    H147737   3.801   5.751  11.883 -0.0679 -2.0132  1.6253
 8774TIP3    H247738   3.933   5.720  11.951  1.9353  0.2073 -1.0107
 8775TIP3   OH247739   3.579   0.041  12.698 -0.1504  0.2542 -0.5382
 8775TIP3    H147740   3.517   0.021  12.628 -0.4420  1.3027 -0.5963
 8775TIP3    H247741   3.661   0.061  12.652 -0.0199 -0.2221 -0.5131
 8776TIP3   OH247742   3.991   1.222  16.188  0.5153 -0.2032 -0.0598
 8776TIP3    H147743   4.039   1.285  16.134  0.1314 -1.8290 -2.4466
 8776TIP3    H247744   3.912   1.269  16.216  0.9544  0.8246 -0.5084
 8777TIP3   OH247745   4.784   5.969   3.978 -0.3261  0.1863 -0.0903
 8777TIP3    H147746   4.839   6.026   4.030 -0.0525 -0.1273 -0.0344
 8777TIP3    H247747   4.703   5.960   4.029 -0.3727  0.5205 -0.1026
 8778TIP3   OH247748   3.190   3.649  14.270 -0.5056  0.8354  0.4543
 8778TIP3    H147749   3.252   3.586  14.305 -0.2898  0.1768 -1.0106
 8778TIP3    H247750   3.105   3.622  14.304 -0.4337 -0.3611 -0.2484
 8779TIP3   OH247751   3.360   3.421  11.371  0.1167 -0.0222 -0.0953
 8779TIP3    H147752   3.407   3.504  11.364 -2.5118  1.5839 -0.0460
 8779TIP3    H247753   3.346   3.393  11.280  0.2249  0.0476 -0.1334
 8780TIP3   OH247754   0.395   5.103   3.481 -0.1375 -0.3766 -0.2643
 8780TIP3    H147755   0.371   5.043   3.552  0.7193 -1.9003 -1.2165
 8780TIP3    H247756   0.316   5.155   3.467 -0.8584 -1.1484  0.7271
 8781TIP3   OH247757   3.544   3.005   5.327 -0.1606 -0.1569  0.2478
 8781TIP3    H147758   3.600   3.064   5.379 -2.1384  0.4797  1.7671
 8781TIP3    H247759   3.606   2.952   5.277  1.7839  1.0371  1.2528
 8782TIP3   OH247760   0.925   5.226  15.292 -0.1396  0.1155 -0.3676
 8782TIP3    H147761   0.941   5.264  15.206  1.1542  0.3519 -0.0423
 8782TIP3    H247762   0.914   5.133  15.276  2.3344 -0.1834 -0.5736
 8783TIP3   OH247763   2.841   6.423   2.138  0.2185  0.8805  0.5032
 8783TIP3    H147764   2.822   6.341   2.094  0.8966  0.7895  0.3687
 8783TIP3    H247765   2.755   6.457   2.164 -0.1689  0.7621 -0.5652
 8784TIP3   OH247766   6.184   2.513  14.576  0.4877  0.5706  0.2520
 8784TIP3    H147767   6.194   2.425  14.540  0.5021  1.0157 -0.8930
 8784TIP3    H247768   6.256   2.523  14.637 -0.1051 -0.5733  1.1833
 8785TIP3   OH247769   5.668   0.597  13.695  0.2197 -0.2525  0.0171
 8785TIP3    H147770   5.606   0.524  13.691  0.2354 -0.2502 -0.3297
 8785TIP3    H247771   5.747   0.563  13.652 -0.4383  0.6037 -2.0076
 8786TIP3   OH247772   4.168   3.629   5.005  0.3105 -0.3089 -0.4008
 8786TIP3    H147773   4.139   3.648   5.094 -0.0642 -0.8966 -0.3980
 8786TIP3    H247774   4.131   3.544   4.985  1.0872 -0.5567 -0.8148
 8787TIP3   OH247775   6.438   1.603  14.660  0.2118  0.2903  0.8337
 8787TIP3    H147776   6.363   1.550  14.634 -0.5710  0.6803  2.2114
 8787TIP3    H247777   6.467   1.564  14.742  2.6278 -0.9237 -0.4741
 8788TIP3   OH247778   0.224   4.622  12.235 -0.1090 -0.4994 -0.2790
 8788TIP3    H147779   0.259   4.574  12.310 -1.3732 -2.4597 -0.8497
 8788TIP3    H247780   0.296   4.676  12.205  1.1653 -1.4717  0.9140
 8789TIP3   OH247781   4.500   1.406  12.056 -0.0544  0.2184  0.3142
 8789TIP3    H147782   4.432   1.361  12.005  0.9552  2.1927 -3.1214
 8789TIP3    H247783   4.572   1.343  12.060 -0.2640 -0.0903 -0.5332
 8790TIP3   OH247784   4.535   1.223   6.024  0.1755 -0.6651 -0.1243
 8790TIP3    H147785   4.565   1.147   5.974  0.6098  0.5611 -1.8093
 8790TIP3    H247786   4.458   1.255   5.976  0.7212  0.6663 -0.1518
 8791TIP3   OH247787   3.974   0.439  16.222  0.1467  0.8860 -0.5937
 8791TIP3    H147788   4.023   0.512  16.184  0.2746  0.9429 -0.3223
 8791TIP3    H247789   3.980   0.369  16.157  0.9728  0.7397 -0.3655
 8792TIP3   OH247790   6.017   5.586   5.721 -0.0124  0.2856  0.2185
 8792TIP3    H147791   5.986   5.540   5.799 -0.1747 -0.2770 -0.1716
 8792TIP3    H247792   6.007   5.523   5.650  1.3975  0.3337 -0.0405
 8793TIP3   OH247793   2.513   6.256  13.836  0.3335 -0.1423  0.1728
 8793TIP3    H147794   2.557   6.318  13.894  0.0271  0.2013  0.0381
 8793TIP3    H247795   2.493   6.306  13.757 -2.1258  0.2995  0.9882
 8794TIP3   OH247796   5.413   5.597  12.219  0.1791  0.0146 -0.1726
 8794TIP3    H147797   5.401   5.526  12.283  0.6581 -1.0673 -1.2345
 8794TIP3    H247798   5.324   5.621  12.192 -0.0524 -2.9603 -2.6770
 8795TIP3   OH247799   3.134   2.306   2.565 -0.0585 -0.2019  0.3595
 8795TIP3    H147800   3.096   2.247   2.630  2.6861 -1.4188  1.0256
 8795TIP3    H247801   3.061   2.360   2.535 -1.5797  0.1099  4.0982
 8796TIP3   OH247802   6.090   1.678  14.881  0.3460 -0.6416  0.0440
 8796TIP3    H147803   5.994   1.685  14.876  0.4508  0.2011 -1.5171
 8796TIP3    H247804   6.116   1.753  14.935  0.1210 -0.8815  0.4870
 8797TIP3   OH247805   6.173   3.384  15.209 -0.3353 -0.6013  0.0416
 8797TIP3    H147806   6.083   3.400  15.180 -0.3105 -0.4965  0.0202
 8797TIP3    H247807   6.194   3.459  15.266 -0.4925 -0.9694  0.5871
 8798TIP3   OH247808   4.901   0.723  12.828  0.2162  0.1213  0.0808
 8798TIP3    H147809   4.918   0.768  12.745  1.6946  0.1659  0.3781
 8798TIP3    H247810   4.871   0.792  12.887  1.5709  0.5666  0.2696
 8799TIP3   OH247811   2.068   3.213   6.284  0.0459 -0.3840  0.0646
 8799TIP3    H147812   2.108   3.138   6.240 -0.5511 -0.9038  0.3910
 8799TIP3    H247813   2.028   3.264   6.214 -0.5450 -0.9876 -0.0392
 8800TIP3   OH247814   5.503   1.514  11.004 -0.0842 -0.4071  0.2743
 8800TIP3    H147815   5.464   1.526  10.918 -1.0259  2.2962  0.9623
 8800TIP3    H247816   5.595   1.538  10.993  0.6169 -3.1581 -0.5615
 8801TIP3   OH247817   5.152   2.300  13.825  0.1852  0.0586 -0.1166
 8801TIP3    H147818   5.208   2.352  13.882 -0.0279  1.8835 -1.5093
 8801TIP3    H247819   5.145   2.216  13.871  1.1202  0.9667  1.8545
 8802TIP3   OH247820   6.710   5.995   3.622 -0.6002 -0.4043 -0.1261
 8802TIP3    H147821   6.780   5.957   3.569 -0.1846 -1.2858  1.0136
 8802TIP3    H247822   6.631   5.978   3.572 -0.0579  0.4155 -1.3331
 8803TIP3   OH247823   1.359   0.573   4.684 -0.4542  0.3545  0.3710
 8803TIP3    H147824   1.417   0.612   4.750  0.1052 -0.8490  0.6354
 8803TIP3    H247825   1.324   0.495   4.727 -0.7852  0.0361 -0.4527
 8804TIP3   OH247826   2.413   4.378   0.701 -0.0998  0.0030  0.1213
 8804TIP3    H147827   2.470   4.412   0.632  0.5958  1.4968  1.3600
 8804TIP3    H247828   2.460   4.397   0.782 -0.9718 -1.5357  1.0318
 8805TIP3   OH247829   0.747   0.660   2.187 -0.3904 -0.2279  0.3426
 8805TIP3    H147830   0.758   0.751   2.215 -0.1849 -0.4186  0.9075
 8805TIP3    H247831   0.728   0.665   2.094  0.0870  0.3681  0.2756
 8806TIP3   OH247832   6.749   6.414   6.531 -0.2656 -0.5895  0.1393
 8806TIP3    H147833   6.830   6.431   6.580  0.0873 -1.8323  0.0015
 8806TIP3    H247834   6.734   6.495   6.482 -0.1824  0.3863  1.6446
 8807TIP3   OH247835   6.213   2.189  16.051 -0.5007  0.0323 -0.5342
 8807TIP3    H147836   6.144   2.129  16.080 -0.2145 -0.4387 -0.8348
 8807TIP3    H247837   6.173   2.239  15.980 -0.3056 -0.7476 -1.2069
 8808TIP3   OH247838   5.973   3.740  11.566  0.1518 -0.4201  0.1646
 8808TIP3    H147839   6.008   3.780  11.646  0.7778  0.5553 -0.5779
 8808TIP3    H247840   6.019   3.657  11.559  0.3479 -0.3545  0.6398
 8809TIP3   OH247841   1.635   0.263   3.655  0.0836 -0.1790  0.1912
 8809TIP3    H147842   1.588   0.249   3.737  1.2196  0.6160  1.0064
 8809TIP3    H247843   1.712   0.207   3.662  1.4959  1.7337  0.8134
 8810TIP3   OH247844   6.575   1.659  15.292 -0.6737  0.4704 -0.1574
 8810TIP3    H147845   6.500   1.618  15.335 -1.1483  1.1303 -0.3301
 8810TIP3    H247846   6.536   1.718  15.228  0.0253 -0.1306 -1.1480
 8811TIP3   OH247847   1.437   3.940  13.564  0.2223  0.0261 -0.1025
 8811TIP3    H147848   1.461   3.951  13.472  0.9900  1.4008  0.2217
 8811TIP3    H247849   1.355   3.989  13.573  0.2256  0.0176 -0.0239
 8812TIP3   OH247850   0.670   4.639   4.837 -0.1532 -0.1736  0.2389
 8812TIP3    H147851   0.613   4.696   4.889  0.6084  0.2918  0.5758
 8812TIP3    H247852   0.751   4.633   4.888 -0.1489 -1.4162  0.1212
 8813TIP3   OH247853   4.718   6.155   0.119 -0.3024 -0.3173  0.1435
 8813TIP3    H147854   4.732   6.231   0.062  0.8753  0.1172  0.9797
 8813TIP3    H247855   4.779   6.168   0.191  0.2673 -2.3228  0.0652
 8814TIP3   OH247856   4.793   5.806   6.325 -0.1577  0.4136  0.7404
 8814TIP3    H147857   4.868   5.774   6.375 -2.3169 -0.2767  3.8329
 8814TIP3    H247858   4.766   5.730   6.272 -1.6759 -1.1530  3.5619
 8815TIP3   OH247859   4.545   6.669  15.138  0.4189 -0.2591 -0.1497
 8815TIP3    H147860   4.610   6.639  15.074 -1.6461 -0.4599 -2.3129
 8815TIP3    H247861   4.516   6.590  15.183  0.6840 -0.3733 -0.1821
 8816TIP3   OH247862   0.841   1.021  16.026 -1.1360 -0.3872  0.1983
 8816TIP3    H147863   0.830   1.103  15.978 -0.8470 -0.8059 -0.6036
 8816TIP3    H247864   0.808   0.954  15.966  0.4289 -1.0496  0.0419
 8817TIP3   OH247865   4.727   1.478   5.083 -0.5809 -0.5360 -0.6233
 8817TIP3    H147866   4.661   1.409   5.075 -0.3531 -0.8272 -0.0105
 8817TIP3    H247867   4.809   1.432   5.097  0.6451 -0.4398 -5.7249
 8818TIP3   OH247868   5.275   1.759  13.513 -0.8034  0.5429  0.2407
 8818TIP3    H147869   5.216   1.801  13.575  0.2685  1.1699  0.8707
 8818TIP3    H247870   5.336   1.710  13.568 -1.6180 -1.3279 -0.4540
 8819TIP3   OH247871   6.791   6.275  11.933  0.4164  0.4209  0.6773
 8819TIP3    H147872   6.819   6.251  11.845  0.6224 -0.4993  0.9782
 8819TIP3    H247873   6.776   6.369  11.929  1.1874  0.5214 -0.1285
 8820TIP3   OH247874   6.169   5.320   1.139 -0.9655  0.1887  0.2507
 8820TIP3    H147875   6.186   5.245   1.083 -0.8191 -0.3266  0.9772
 8820TIP3    H247876   6.190   5.396   1.084  2.8381 -0.3328  0.7513
 8821TIP3   OH247877   3.337   2.798   4.479  0.3587 -0.4883  0.3869
 8821TIP3    H147878   3.343   2.822   4.572  0.5802 -1.8963  0.7566
 8821TIP3    H247879   3.248   2.762   4.470 -0.4381  1.5646 -0.4481
 8822TIP3   OH247880   3.618   6.556   3.718  0.0039 -0.2040  0.1022
 8822TIP3    H147881   3.606   6.598   3.803  0.6758 -0.1165  0.1586
 8822TIP3    H247882   3.694   6.600   3.680  0.2345 -0.8285 -0.1777
 8823TIP3   OH247883   6.384   1.921  15.467  0.4725  0.6127  0.0041
 8823TIP3    H147884   6.451   1.888  15.527  1.6296  3.1543  0.2612
 8823TIP3    H247885   6.399   1.872  15.386  3.1918  1.5780 -0.1760
 8824TIP3   OH247886   2.268   2.128  12.432  0.6689  1.1001 -0.2449
 8824TIP3    H147887   2.343   2.077  12.403 -1.1996 -1.9958 -0.0182
 8824TIP3    H247888   2.203   2.117  12.363 -1.4420 -0.8634  1.8777
 8825TIP3   OH247889   1.389   5.762  13.614 -0.3487 -0.0811  0.3133
 8825TIP3    H147890   1.411   5.675  13.648  3.7792  0.8256  0.4430
 8825TIP3    H247891   1.391   5.819  13.691 -1.3471  0.4378 -0.0230
 8826TIP3   OH247892   3.353   0.417   2.883 -0.0619 -0.5447  0.2816
 8826TIP3    H147893   3.307   0.444   2.962  0.3667  2.4081 -0.3831
 8826TIP3    H247894   3.297   0.446   2.811  0.2449 -1.9024 -0.5502
 8827TIP3   OH247895   5.018   6.392   2.898  0.4613 -0.9992 -0.1169
 8827TIP3    H147896   5.069   6.404   2.818  1.0759 -1.2496  0.2343
 8827TIP3    H247897   4.943   6.451   2.888  0.1731 -1.5222 -1.1806
 8828TIP3   OH247898   4.753   2.212  12.794 -0.4437 -0.0759 -0.3935
 8828TIP3    H147899   4.676   2.208  12.850 -0.8978 -2.5482 -1.0885
 8828TIP3    H247900   4.719   2.238  12.708 -0.3969 -0.4684 -0.5317
 8829TIP3   OH247901   5.230   5.120  16.084  0.1076 -0.7732  0.0103
 8829TIP3    H147902   5.259   5.173  16.010  0.3227  0.2122  0.7783
 8829TIP3    H247903   5.144   5.156  16.107  2.2480  2.7238  3.6536
 8830TIP3   OH247904   0.345   4.273   2.296 -0.0424  0.1878  0.0385
 8830TIP3    H147905   0.387   4.270   2.382  0.3320 -1.6091 -0.1489
 8830TIP3    H247906   0.303   4.187   2.288  2.1821 -0.7790 -2.6232
 8831TIP3   OH247907   0.765   6.077   3.566 -0.3019  0.5944 -0.2595
 8831TIP3    H147908   0.861   6.083   3.570 -0.4110  2.0476  1.1860
 8831TIP3    H247909   0.745   5.995   3.612  0.2500  0.0161 -1.0164
 8832TIP3   OH247910   2.945   0.054  12.237  0.1219 -0.4098 -0.6009
 8832TIP3    H147911   2.947   0.114  12.312  0.6410  0.0966 -1.0128
 8832TIP3    H247912   2.900   0.104  12.168  0.8714 -0.3430 -1.0587
 8833TIP3   OH247913   5.535   3.806   4.359 -0.5706  0.4304  0.3568
 8833TIP3    H147914   5.594   3.830   4.288  2.0133 -2.1631  1.4065
 8833TIP3    H247915   5.549   3.873   4.426  1.1549 -0.0305  0.5084
 8834TIP3   OH247916   2.351   1.962   4.481  0.2769 -0.1028  0.0639
 8834TIP3    H147917   2.340   1.878   4.526 -0.3766  0.2266  0.5287
 8834TIP3    H247918   2.309   1.949   4.396  1.1990 -0.6116 -0.3258
 8835TIP3   OH247919   3.264   2.239  11.737 -0.2292 -0.2090  0.3743
 8835TIP3    H147920   3.287   2.146  11.743  1.5332  0.2110  0.5157
 8835TIP3    H247921   3.341   2.281  11.700 -2.0495  0.8090 -2.7095
 8836TIP3   OH247922   1.026   3.121  11.282  0.2419 -0.4648  0.1910
 8836TIP3    H147923   1.109   3.084  11.251  0.0514 -0.4885 -0.3033
 8836TIP3    H247924   0.986   3.158  11.204  0.2713  0.5025  0.6201
 8837TIP3   OH247925   2.185   1.789   1.449 -0.0451  0.6133 -0.3881
 8837TIP3    H147926   2.146   1.716   1.497  1.3433  0.3412  0.3860
 8837TIP3    H247927   2.172   1.767   1.357 -0.1383 -0.3400 -0.1540
 8838TIP3   OH247928   1.364   3.483   1.584  0.4441  0.2679  0.1916
 8838TIP3    H147929   1.302   3.552   1.607  0.5802  0.9341 -1.3187
 8838TIP3    H247930   1.448   3.514   1.616  0.4235  0.5904 -0.0633
 8839TIP3   OH247931   0.635   6.176   2.304  0.5707  0.0064 -0.0785
 8839TIP3    H147932   0.620   6.217   2.389  3.0437 -1.0144  0.9286
 8839TIP3    H247933   0.715   6.217   2.272  1.1989 -1.5900 -0.6185
 8840TIP3   OH247934   0.746   2.560  15.485 -0.2540  0.7537  0.1385
 8840TIP3    H147935   0.839   2.581  15.476 -0.1316  0.7064  1.1488
 8840TIP3    H247936   0.700   2.637  15.451  0.1662  1.0866  0.3124
 8841TIP3   OH247937   4.284   3.710   4.338  0.3667  0.8886  0.6793
 8841TIP3    H147938   4.269   3.763   4.259 -2.8956  0.9534  1.1682
 8841TIP3    H247939   4.276   3.772   4.410  1.5587  0.5328  1.1274
 8842TIP3   OH247940   6.408   1.972  16.256 -0.7553 -0.1912  0.8601
 8842TIP3    H147941   6.319   1.996  16.229 -0.0870  1.4692 -0.0121
 8842TIP3    H247942   6.446   1.929  16.180 -0.1746  0.9154  0.5033
 8843TIP3   OH247943   2.334   0.644  14.065  0.0780  0.2038 -0.1578
 8843TIP3    H147944   2.264   0.591  14.028 -0.0084 -0.3466  0.7688
 8843TIP3    H247945   2.413   0.590  14.056 -0.0974 -0.3337  1.2499
 8844TIP3   OH247946   3.124   6.732  11.477  0.1178 -0.0014 -0.0662
 8844TIP3    H147947   3.107   6.718  11.384  2.8790 -0.0002 -0.6769
 8844TIP3    H247948   3.149   6.645  11.509  0.6376  0.2766  0.2955
 8845TIP3   OH247949   3.198   6.391  11.984  0.5515  0.0209  0.1167
 8845TIP3    H147950   3.277   6.337  11.981  0.7006  0.2171  0.5325
 8845TIP3    H247951   3.189   6.416  12.075  2.5728  3.7874 -0.5169
 8846TIP3   OH247952   5.601   6.188  11.479 -0.3101 -0.3200  0.2264
 8846TIP3    H147953   5.687   6.229  11.473  0.5582 -2.2651 -2.0217
 8846TIP3    H247954   5.542   6.248  11.433 -0.6006  1.7565  3.0101
 8847TIP3   OH247955   6.037   1.822   3.159  0.1095 -0.2096 -0.3008
 8847TIP3    H147956   6.055   1.742   3.208 -1.7169 -0.6025 -0.1859
 8847TIP3    H247957   6.008   1.791   3.072 -1.0129  0.2693 -0.1206
 8848TIP3   OH247958   4.481   4.419  13.898  0.1305  0.3603 -0.4859
 8848TIP3    H147959   4.417   4.462  13.955  0.4087 -0.1199  0.2089
 8848TIP3    H247960   4.557   4.405  13.954  0.0756 -0.9683 -0.6979
 8849TIP3   OH247961   4.531   0.178   4.282 -0.4390 -0.1458 -0.1647
 8849TIP3    H147962   4.439   0.195   4.263 -0.1203  2.3635  0.2338
 8849TIP3    H247963   4.530   0.109   4.349 -1.9731 -0.6411 -0.6711
 8850TIP3   OH247964   0.551   1.159   4.292  0.2069  0.0463 -0.8740
 8850TIP3    H147965   0.530   1.065   4.292  0.6676 -0.0821  0.4246
 8850TIP3    H247966   0.642   1.163   4.321  0.1351  0.9077 -0.7480
 8851TIP3   OH247967   5.879   4.017  14.447 -1.2149  0.5411  0.1928
 8851TIP3    H147968   5.946   3.986  14.386  0.1959  1.3470  1.2469
 8851TIP3    H247969   5.835   4.087  14.400 -1.6829 -0.3281 -0.7043
 8852TIP3   OH247970   3.240   1.169  13.778 -0.2495  0.1383  0.7352
 8852TIP3    H147971   3.169   1.104  13.776  0.1395 -0.2885 -0.3751
 8852TIP3    H247972   3.196   1.253  13.763 -0.7242  0.1117  1.9051
 8853TIP3   OH247973   5.489   1.706  16.139 -0.4188 -0.4901  0.0523
 8853TIP3    H147974   5.578   1.674  16.151 -0.3563 -0.4904 -0.4088
 8853TIP3    H247975   5.433   1.637  16.174 -0.2411 -0.5172  0.2834
 8854TIP3   OH247976   0.382   1.507   0.872 -0.0116  0.5881  0.1952
 8854TIP3    H147977   0.446   1.495   0.942  0.4044  1.2274 -0.0661
 8854TIP3    H247978   0.305   1.458   0.901  0.9894 -1.1945 -0.0444
 8855TIP3   OH247979   4.919   2.070  14.924 -0.1768 -0.1865 -0.1731
 8855TIP3    H147980   4.885   2.044  14.838  1.5267 -0.2921 -0.8505
 8855TIP3    H247981   4.923   2.166  14.920  1.0627 -0.2470 -0.6980
 8856TIP3   OH247982   6.394   5.653  12.344  0.0008 -0.4033 -0.5814
 8856TIP3    H147983   6.363   5.719  12.282 -3.2545 -0.3811  0.8701
 8856TIP3    H247984   6.348   5.674  12.426  3.4834 -0.9018  1.7124
 8857TIP3   OH247985   2.209   2.847  12.171 -0.1201  0.0304  0.5235
 8857TIP3    H147986   2.247   2.921  12.217  0.4585 -0.7434  1.3308
 8857TIP3    H247987   2.272   2.776  12.183 -2.3527 -1.6909  3.0923
 8858TIP3   OH247988   0.508   1.526   4.402 -0.8229  0.3401 -0.5980
 8858TIP3    H147989   0.459   1.467   4.344 -0.7773 -0.1655 -0.1367
 8858TIP3    H247990   0.565   1.575   4.344 -1.0598  0.1184 -1.0243
 8859TIP3   OH247991   2.807   5.208  16.808  0.3815 -0.0518 -0.1985
 8859TIP3    H147992   2.839   5.298  16.809  3.7091 -1.0917  0.8313
 8859TIP3    H247993   2.767   5.196  16.895 -0.7750  0.6028 -0.6215
 8860TIP3   OH247994   5.764   5.121   3.528 -0.2758 -0.1445 -0.1073
 8860TIP3    H147995   5.847   5.130   3.481 -0.2681 -0.0876 -0.0839
 8860TIP3    H247996   5.770   5.185   3.599 -0.5709  0.2574 -0.4383
 8861TIP3   OH247997   6.667   5.633  12.775 -0.0977 -0.0689 -0.3010
 8861TIP3    H147998   6.701   5.580  12.703  0.3921 -0.7204  0.4021
 8861TIP3    H247999   6.734   5.630  12.842 -0.9532 -0.2661  0.5743
 8862TIP3   OH248000   3.278   2.284   5.862  0.1959 -0.4258  0.0005
 8862TIP3    H148001   3.278   2.198   5.905 -0.5268 -0.0340  0.8152
 8862TIP3    H248002   3.210   2.333   5.907  0.4023  0.4864 -0.6571
 8863TIP3   OH248003   5.916   4.334   2.100  0.0131 -0.0849  0.1258
 8863TIP3    H148004   6.005   4.303   2.083 -0.0494 -0.3099  0.1979
 8863TIP3    H248005   5.921   4.429   2.091  0.2957 -0.0838  0.2817
 8864TIP3   OH248006   0.543   5.567  14.761 -0.4574 -0.3366 -0.1012
 8864TIP3    H148007   0.610   5.634  14.749 -0.4176 -0.2174  0.7016
 8864TIP3    H248008   0.574   5.492  14.711  0.4442 -0.3985  0.5254
 8865TIP3   OH248009   2.709   6.168  16.472  0.4870  0.3026  0.2261
 8865TIP3    H148010   2.752   6.140  16.553 -1.7847  0.3272  1.5504
 8865TIP3    H248011   2.742   6.109  16.405  1.0752 -0.9324  1.5550
 8866TIP3   OH248012   5.344   3.106   1.032 -0.0411  0.2999 -0.5994
 8866TIP3    H148013   5.362   3.041   1.100 -0.9085  1.0593  0.3965
 8866TIP3    H248014   5.422   3.106   0.976  0.2476 -1.0877 -0.2160
 8867TIP3   OH248015   0.449   4.237  10.706 -0.6010  0.7012  0.1006
 8867TIP3    H148016   0.527   4.287  10.680 -0.3786  1.0885  1.4539
 8867TIP3    H248017   0.470   4.146  10.683 -0.3668  1.0046 -0.9204
 8868TIP3   OH248018   0.533   0.782  12.014 -0.0057  0.1368 -0.0509
 8868TIP3    H148019   0.481   0.702  12.017  0.7506 -0.4328 -1.3145
 8868TIP3    H248020   0.616   0.758  12.056  0.0699  0.3998 -0.0448
 8869TIP3   OH248021   3.515   4.823  10.901  0.5169 -0.4558  1.0251
 8869TIP3    H148022   3.464   4.899  10.929  2.9125  0.7659  2.4132
 8869TIP3    H248023   3.584   4.860  10.846  2.0068 -1.5177  2.1094
 8870TIP3   OH248024   1.281   3.413  15.533 -0.0582 -0.2041  0.5591
 8870TIP3    H148025   1.367   3.398  15.572  1.4791  0.4455 -2.3219
 8870TIP3    H248026   1.281   3.506  15.508 -2.4087  0.3321  2.1841
 8871TIP3   OH248027   5.886   5.167  10.303  0.0570  0.0946  0.7018
 8871TIP3    H148028   5.846   5.080  10.305  0.5328 -0.1184  1.6595
 8871TIP3    H248029   5.868   5.203  10.390 -0.2452  1.0111  0.2739
 8872TIP3   OH248030   2.976   0.222   2.464  0.0398  0.2913  0.3492
 8872TIP3    H148031   2.890   0.256   2.485 -0.0389  0.8889 -0.8564
 8872TIP3    H248032   3.027   0.299   2.438  0.7172 -0.1432  0.3585
 8873TIP3   OH248033   4.981   2.268  14.424  0.3162 -0.4867  0.3940
 8873TIP3    H148034   4.908   2.278  14.364 -0.2905 -1.5313  0.9222
 8873TIP3    H248035   5.011   2.178  14.411  1.5937 -0.0499  0.1107
 8874TIP3   OH248036   4.200   0.711  14.330  0.0867 -0.2524  0.0904
 8874TIP3    H148037   4.163   0.678  14.249  0.4490 -0.0275 -0.1716
 8874TIP3    H248038   4.196   0.637  14.390 -0.7804 -0.2285  0.0746
 8875TIP3   OH248039   2.030   5.933   5.760  0.2676 -0.0653 -0.1930
 8875TIP3    H148040   2.119   5.935   5.727  0.3800 -0.2212  0.0950
 8875TIP3    H248041   2.027   6.004   5.825  0.9941 -1.7488  1.8100
 8876TIP3   OH248042   0.373   6.529  14.523 -0.2781  0.1219 -0.4604
 8876TIP3    H148043   0.375   6.467  14.450  0.4468 -1.5558  0.8880
 8876TIP3    H248044   0.412   6.609  14.488  0.8103 -0.8991 -1.6954
 8877TIP3   OH248045   3.335   1.966   2.201 -0.0048 -0.3532 -0.1455
 8877TIP3    H148046   3.252   2.013   2.204 -0.2920 -0.8323 -0.3609
 8877TIP3    H248047   3.372   1.988   2.115 -1.6368 -2.9590 -1.6571
 8878TIP3   OH248048   3.943   2.113   4.087 -0.3339 -0.3194 -0.2889
 8878TIP3    H148049   4.028   2.089   4.049 -0.0478  0.4613 -0.1472
 8878TIP3    H248050   3.883   2.045   4.055  0.3312 -0.8467 -0.4310
 8879TIP3   OH248051   4.797   5.506   3.649 -0.6077  0.5452 -0.0230
 8879TIP3    H148052   4.740   5.504   3.572 -0.2202  2.2912 -0.3858
 8879TIP3    H248053   4.752   5.563   3.712 -0.9020 -0.8192  1.0643
 8880TIP3   OH248054   6.090   3.311   1.924  0.2554  0.0914 -0.3696
 8880TIP3    H148055   5.995   3.307   1.916  0.1856 -0.1626  0.5112
 8880TIP3    H248056   6.122   3.237   1.873  0.0393  0.6492 -1.3558
 8881TIP3   OH248057   0.808   0.500  14.722 -0.2572 -0.2816 -0.5866
 8881TIP3    H148058   0.773   0.561  14.657 -2.7550 -0.3574  0.5619
 8881TIP3    H248059   0.793   0.413  14.685  0.7724 -0.2743 -1.0375
 8882TIP3   OH248060   0.557   2.305  14.150 -0.5573  0.4808 -0.3036
 8882TIP3    H148061   0.516   2.220  14.132 -2.2934  1.6069 -2.1046
 8882TIP3    H248062   0.645   2.298  14.114 -0.1926 -0.9827  0.8088
 8883TIP3   OH248063   4.282   1.047  16.912  0.1797 -0.0794 -0.2700
 8883TIP3    H148064   4.304   1.053  16.819  1.1806  1.4302  0.0352
 8883TIP3    H248065   4.325   0.966  16.941  1.3117  0.3165 -0.7662
 8884TIP3   OH248066   6.288   2.080  12.480  0.1293 -0.0633 -0.0656
 8884TIP3    H148067   6.382   2.061  12.474  0.2197 -0.8188  2.4711
 8884TIP3    H248068   6.246   2.010  12.430  0.8956  0.4225 -1.4298
 8885TIP3   OH248069   4.851   5.162  11.427 -0.2065  0.1659  0.6193
 8885TIP3    H148070   4.863   5.201  11.340 -1.0835  2.2434  1.3718
 8885TIP3    H248071   4.938   5.127  11.449  0.5891  1.5059 -0.2167
 8886TIP3   OH248072   2.541   1.482  13.546 -0.6138 -0.1049 -0.1156
 8886TIP3    H148073   2.476   1.512  13.609 -1.9973 -0.8115 -1.1534
 8886TIP3    H248074   2.591   1.560  13.522 -0.7009  0.3373  1.1075
 8887TIP3   OH248075   1.267   4.191   3.646 -0.3545  0.3103 -0.4443
 8887TIP3    H148076   1.272   4.100   3.677  1.2570  0.4577 -0.1996
 8887TIP3    H248077   1.351   4.229   3.670 -0.1372  1.2530 -2.5155
 8888TIP3   OH248078   6.459   2.699  14.919 -0.2397 -0.4343  0.0948
 8888TIP3    H148079   6.490   2.784  14.950  0.3590 -1.6590  3.2069
 8888TIP3    H248080   6.399   2.720  14.847 -0.7474  2.6568  1.2757
 8889TIP3   OH248081   3.039   5.015   2.659 -0.0916 -0.1766  0.4453
 8889TIP3    H148082   2.967   5.077   2.646  0.0975 -0.1039 -0.3228
 8889TIP3    H248083   3.019   4.943   2.600  0.7989  0.1520 -0.2818
 8890TIP3   OH248084   5.977   0.100  14.265 -0.3035  0.5345 -0.4328
 8890TIP3    H148085   5.904   0.113  14.205 -0.4529 -0.8999 -0.5974
 8890TIP3    H248086   5.938   0.110  14.352 -0.3896  1.1570 -0.5350
 8891TIP3   OH248087   5.404   5.683   3.475  0.3524 -0.2535  0.2795
 8891TIP3    H148088   5.474   5.620   3.461  1.8546  1.2104  0.8100
 8891TIP3    H248089   5.358   5.652   3.554  1.4003 -0.4019  0.8443
 8892TIP3   OH248090   2.731   4.576  13.541  0.1138  0.3357  0.6253
 8892TIP3    H148091   2.721   4.505  13.604 -0.4689 -0.4225 -0.2934
 8892TIP3    H248092   2.653   4.571  13.486  1.9392 -1.0099 -2.0839
 8893TIP3   OH248093   0.244   2.722  11.080 -0.0439 -0.3088 -0.3795
 8893TIP3    H148094   0.237   2.646  11.022 -1.4545 -1.0380  0.6793
 8893TIP3    H248095   0.311   2.697  11.144 -2.5355 -2.0328  1.7768
 8894TIP3   OH248096   3.090   2.399   2.108  0.8997 -0.3048 -0.1007
 8894TIP3    H148097   3.019   2.399   2.044  0.3952 -0.7433  0.4428
 8894TIP3    H248098   3.150   2.332   2.077  0.9165 -0.1561 -0.3918
 8895TIP3   OH248099   1.581   6.710  14.106  0.5882  0.1056  0.0080
 8895TIP3    H148100   1.622   6.674  14.028 -0.4559  1.5525 -1.2688
 8895TIP3    H248101   1.557   6.799  14.082  0.8981  0.8612  2.2389
 8896TIP3   OH248102   4.009   0.753   0.483  0.4997 -0.4025 -0.7776
 8896TIP3    H148103   4.042   0.727   0.570 -0.7104 -0.4227 -0.3064
 8896TIP3    H248104   4.085   0.789   0.439  1.4190 -1.5019 -0.1453
 8897TIP3   OH248105   6.193   4.832  11.448 -0.1906  0.5215  0.4146
 8897TIP3    H148106   6.139   4.857  11.523 -0.1764 -1.3519  1.1014
 8897TIP3    H248107   6.200   4.737  11.454  1.8858  0.5589 -0.5595
 8898TIP3   OH248108   3.765   1.807  15.953 -0.2265  0.0550  0.4032
 8898TIP3    H148109   3.743   1.770  16.039 -0.7868  0.8246  0.5973
 8898TIP3    H248110   3.683   1.799  15.903  0.2875 -1.0481 -0.3128
 8899TIP3   OH248111   5.481   5.799  11.764  0.3948  0.7424 -0.3294
 8899TIP3    H148112   5.424   5.747  11.820  1.2359 -0.4077 -0.5075
 8899TIP3    H248113   5.429   5.876  11.741 -0.6256  0.3161  0.5004
 8900TIP3   OH248114   3.043   1.012  11.639 -0.0384  0.2049 -0.4082
 8900TIP3    H148115   3.119   1.071  11.643 -0.0648  0.4222 -2.1714
 8900TIP3    H248116   2.967   1.070  11.650 -0.1818  0.9730 -4.1756
 8901TIP3   OH248117   0.145   1.047  10.597 -0.2707 -0.0148  0.0870
 8901TIP3    H148118   0.234   1.082  10.609 -0.2507  0.7879 -1.9350
 8901TIP3    H248119   0.093   1.090  10.666  0.7620  0.0589  0.8422
 8902TIP3   OH248120   4.969   1.114  14.574 -0.6938 -0.3605  0.2595
 8902TIP3    H148121   4.879   1.088  14.553 -1.0713  1.2343 -0.2250
 8902TIP3    H248122   5.019   1.092  14.495 -0.6474 -1.2224  0.5182
 8903TIP3   OH248123   0.705   4.750  15.751 -0.0504  0.6205  0.5246
 8903TIP3    H148124   0.669   4.683  15.810  1.1099 -2.8346 -2.3536
 8903TIP3    H248125   0.799   4.750  15.768 -0.2218  3.2808  1.9863
 8904TIP3   OH248126   1.920   4.479   5.789  0.6947  0.5707 -0.3143
 8904TIP3    H148127   1.946   4.389   5.766 -0.6944  0.2789 -0.8645
 8904TIP3    H248128   1.985   4.507   5.852  0.4675 -1.3156  0.8492
 8905TIP3   OH248129   4.933   0.331  15.022  0.1978  0.1743 -0.8287
 8905TIP3    H148130   4.871   0.404  15.024 -1.1156 -0.9153 -0.3397
 8905TIP3    H248131   5.013   0.368  14.985  0.1053  2.2775  0.8651
 8906TIP3   OH248132   6.221   3.093  11.169 -0.1604  1.0110  0.4546
 8906TIP3    H148133   6.296   3.035  11.183 -1.0319  0.3276  2.6265
 8906TIP3    H248134   6.258   3.167  11.121  2.0062  0.8382  1.6956
 8907TIP3   OH248135   6.353   2.065  15.873  0.1383  0.0322  0.0391
 8907TIP3    H148136   6.315   2.112  15.948  1.4087  1.8938 -0.3924
 8907TIP3    H248137   6.423   2.013  15.911  0.6020  0.7591  0.2071
 8908TIP3   OH248138   6.300   6.718  14.090 -0.0391  0.3997  0.4378
 8908TIP3    H148139   6.236   6.676  14.148  0.2770 -3.4262 -1.6635
 8908TIP3    H248140   6.251   6.789  14.048 -1.6036  0.2836  1.9584
 8909TIP3   OH248141   0.876   5.604   0.402  0.3315  0.0551 -0.1472
 8909TIP3    H148142   0.812   5.669   0.373  0.1276 -0.6044 -1.2201
 8909TIP3    H248143   0.871   5.606   0.497 -1.7338 -0.3971 -0.2037
 8910TIP3   OH248144   5.267   4.843  12.860  0.2164 -0.2701  0.3646
 8910TIP3    H148145   5.236   4.932  12.879 -0.7844 -0.4675 -0.2944
 8910TIP3    H248146   5.357   4.855  12.829  0.2653  0.4627  0.7677
 8911TIP3   OH248147   2.616   2.925  11.453  0.1603 -1.1004 -0.5472
 8911TIP3    H148148   2.626   2.854  11.517  0.3948 -0.2658  0.3704
 8911TIP3    H248149   2.536   2.903  11.405 -1.4541 -0.4822  1.7083
 8912TIP3   OH248150   5.991   2.711   5.686 -0.5722 -0.7483 -0.4692
 8912TIP3    H148151   5.970   2.728   5.778  0.4508 -1.5872 -0.0608
 8912TIP3    H248152   5.984   2.616   5.678  1.9119 -0.9936 -0.5639
 8913TIP3   OH248153   1.324   6.158  15.858 -0.0433 -0.2348  0.0725
 8913TIP3    H148154   1.343   6.208  15.778 -1.1888  0.6335  0.3133
 8913TIP3    H248155   1.410   6.138  15.895  0.4749  0.3199 -0.7887
 8914TIP3   OH248156   5.228   4.493  12.028 -0.2210  0.1984 -0.2482
 8914TIP3    H148157   5.263   4.486  11.939 -1.2442 -3.6409 -0.5253
 8914TIP3    H248158   5.304   4.479  12.084 -0.1506 -1.2357 -0.6648
 8915TIP3   OH248159   2.985   1.227  13.318 -0.7216  0.1027  0.1403
 8915TIP3    H148160   2.963   1.238  13.410  0.2328 -0.8329  0.4928
 8915TIP3    H248161   2.924   1.285  13.272 -0.1975  1.7646  1.4483
 8916TIP3   OH248162   6.663   3.158   1.095  0.0579 -0.3478 -0.1433
 8916TIP3    H148163   6.675   3.167   1.000 -0.0293 -0.4955 -0.1698
 8916TIP3    H248164   6.751   3.145   1.129  0.5770  3.1435  0.2187
 8917TIP3   OH248165   2.919   6.009  15.519  0.1515  0.2711 -0.1341
 8917TIP3    H148166   2.943   6.054  15.600 -3.0965  0.6791  0.7454
 8917TIP3    H248167   2.887   6.079  15.462  0.5514 -0.2590 -1.0333
 8918TIP3   OH248168   4.646   3.081  16.336  0.3473  0.8780 -0.5641
 8918TIP3    H148169   4.605   3.053  16.418 -4.8608  2.5840 -2.2221
 8918TIP3    H248170   4.649   3.002  16.282  0.5591  0.4690  0.0263
 8919TIP3   OH248171   4.167   3.438   5.758  0.0025 -0.1666  0.3132
 8919TIP3    H148172   4.238   3.374   5.751  0.2341  0.2540 -2.6111
 8919TIP3    H248173   4.188   3.489   5.836  1.7456 -1.4159  0.7270
 8920TIP3   OH248174   6.425   5.881   0.953  0.8822 -0.2145  0.1531
 8920TIP3    H148175   6.445   5.838   1.036 -0.4911 -0.6684  0.2848
 8920TIP3    H248176   6.345   5.931   0.970 -0.6323 -1.9558 -1.3593
 8921TIP3   OH248177   2.950   1.972   1.330  0.8461  0.0471 -0.2672
 8921TIP3    H148178   2.982   1.958   1.241  1.7390  0.3098 -0.0013
 8921TIP3    H248179   2.962   2.066   1.345 -0.3028  0.1966 -0.2419
 8922TIP3   OH248180   2.553   5.094   4.517 -0.1103 -0.3732  0.3819
 8922TIP3    H148181   2.563   5.045   4.436  2.2134 -0.2478  0.5230
 8922TIP3    H248182   2.584   5.182   4.496 -1.7301  0.3422  0.8284
 8923TIP3   OH248183   5.275   4.239  13.329  0.3832  0.4203 -0.0624
 8923TIP3    H148184   5.271   4.143  13.331  0.8112  0.3901 -0.5642
 8923TIP3    H248185   5.251   4.262  13.239  0.9736  0.7491 -0.1405
 8924TIP3   OH248186   0.088   5.366   1.887 -0.0338 -0.3431  0.1452
 8924TIP3    H148187   0.159   5.381   1.949  0.8866  0.8895 -1.1481
 8924TIP3    H248188   0.059   5.277   1.905  1.4471 -0.6650  1.1079
 8925TIP3   OH248189   1.549   3.889   2.352 -0.2634  0.3411  0.2657
 8925TIP3    H148190   1.489   3.910   2.424  0.3721 -0.6278  1.1080
 8925TIP3    H248191   1.636   3.911   2.387  0.1334 -0.9291  0.1063
 8926TIP3   OH248192   0.564   3.279  13.072 -0.0666  0.5617  0.0435
 8926TIP3    H148193   0.586   3.259  12.981 -2.1238 -0.5537 -0.2502
 8926TIP3    H248194   0.572   3.375  13.077 -0.1651  0.6729 -1.3744
 8927TIP3   OH248195   1.503   5.440  15.290 -0.4994  0.1775 -0.4035
 8927TIP3    H148196   1.487   5.532  15.314 -1.3338 -0.4207  1.5142
 8927TIP3    H248197   1.594   5.439  15.260  0.1977  1.3228  1.4359
 8928TIP3   OH248198   1.222   0.142   3.792  0.1045 -0.3160 -0.4700
 8928TIP3    H148199   1.176   0.082   3.851 -0.0544  1.3451  1.1618
 8928TIP3    H248200   1.241   0.219   3.845  2.9616 -0.0827 -1.6594
 8929TIP3   OH248201   2.696   3.248   0.285  0.4356 -0.1735  0.3609
 8929TIP3    H148202   2.662   3.183   0.347 -0.7863  1.6422  1.7159
 8929TIP3    H248203   2.782   3.271   0.319  1.3718 -1.8002 -0.7535
 8930TIP3   OH248204   3.224   0.185   6.056 -0.0687  0.0028  0.7165
 8930TIP3    H148205   3.300   0.225   6.014  0.6198  0.3858  2.2572
 8930TIP3    H248206   3.176   0.259   6.094 -0.1871 -0.4064  1.3681
 8931TIP3   OH248207   3.208   2.330   5.168  0.1788  0.6496 -0.1867
 8931TIP3    H148208   3.186   2.397   5.104  0.7833  2.0934  1.0601
 8931TIP3    H248209   3.303   2.317   5.157  0.1629  0.3973 -0.0327
 8932TIP3   OH248210   3.580   4.973   2.648 -0.0034 -0.5227  0.3256
 8932TIP3    H148211   3.601   4.904   2.584  0.3646  1.1274 -1.4161
 8932TIP3    H248212   3.624   5.051   2.615 -3.2014  1.4512  0.3059
 8933TIP3   OH248213   0.402   0.612  15.178 -0.1746  0.0981  0.2631
 8933TIP3    H148214   0.371   0.627  15.267  2.0561 -0.2839  1.1661
 8933TIP3    H248215   0.414   0.517  15.173  1.6663  0.2987  0.3010
 8934TIP3   OH248216   6.322   4.340  16.719  0.1391  0.0912  0.2874
 8934TIP3    H148217   6.371   4.296  16.650 -0.2610  0.4185 -0.2105
 8934TIP3    H248218   6.259   4.275  16.749  1.7480 -0.8310  1.9048
 8935TIP3   OH248219   0.421   0.853  16.830  0.3001 -0.5581  0.6121
 8935TIP3    H148220   0.452   0.903  16.754  1.3420 -1.1234  0.6418
 8935TIP3    H248221   0.384   0.919  16.889 -0.5284 -0.1150 -0.3823
 8936TIP3   OH248222   0.279   5.445  14.703  0.0648 -0.2117  0.3062
 8936TIP3    H148223   0.367   5.477  14.724 -0.1348 -0.8051  2.2290
 8936TIP3    H248224   0.239   5.516  14.652  1.5244  0.2004 -0.3112
 8937TIP3   OH248225   4.562   3.136   3.978  0.1246  0.9197 -0.1803
 8937TIP3    H148226   4.577   3.144   3.884 -0.8149  0.9660 -0.3395
 8937TIP3    H248227   4.467   3.143   3.987  0.2058  0.8618  0.7684
 8938TIP3   OH248228   0.393   2.481  17.124  0.3321  0.5974 -0.2135
 8938TIP3    H148229   0.400   2.470  17.219 -0.7509 -3.0225 -0.4138
 8938TIP3    H248230   0.443   2.408  17.088 -0.2180  1.2552 -2.4342
 8939TIP3   OH248231   1.945   6.264  16.139  0.4122  0.4610  0.0091
 8939TIP3    H148232   1.890   6.210  16.083  0.6537 -0.6809  0.8265
 8939TIP3    H248233   1.887   6.332  16.173  0.2673  1.1674 -1.5868
 8940TIP3   OH248234   6.502   5.977   5.004 -0.9337 -0.2857  0.4293
 8940TIP3    H148235   6.417   6.008   4.972 -1.3564 -1.2914  0.5625
 8940TIP3    H248236   6.498   5.987   5.099 -0.0395  1.7829  0.3013
 8941TIP3   OH248237   3.329   1.225   4.271 -0.0923 -0.7079 -0.1971
 8941TIP3    H148238   3.343   1.212   4.365 -0.7305 -0.6602 -0.0925
 8941TIP3    H248239   3.338   1.137   4.234  4.2007 -0.2966 -0.6882
 8942TIP3   OH248240   1.889   2.679   3.823 -0.1506 -0.1951  0.2416
 8942TIP3    H148241   1.939   2.683   3.905  0.1853 -0.3641  0.0465
 8942TIP3    H248242   1.916   2.597   3.783  0.5828  0.4437 -0.6083
 8943TIP3   OH248243   0.449   3.079  12.276 -0.0429 -0.3680 -0.2216
 8943TIP3    H148244   0.457   3.172  12.295 -1.3246 -0.6582  2.0603
 8943TIP3    H248245   0.531   3.041  12.306 -0.9856 -0.4376  2.4692
 8944TIP3   OH248246   2.726   6.216  12.374  0.3716  0.1019 -0.4141
 8944TIP3    H148247   2.732   6.263  12.458 -1.6304 -0.3316  0.0298
 8944TIP3    H248248   2.638   6.237  12.341  0.0364 -1.9894 -0.9985
 8945TIP3   OH248249   3.984   0.945  14.401 -0.2363  0.2476 -0.5087
 8945TIP3    H148250   3.977   0.988  14.486 -1.9496 -0.6158 -0.1731
 8945TIP3    H248251   3.969   1.015  14.337 -0.6156  0.5911 -0.0487
 8946TIP3   OH248252   0.523   5.725   1.125  0.0588 -0.0378 -0.3298
 8946TIP3    H148253   0.496   5.817   1.125 -2.1337 -0.6297 -0.9896
 8946TIP3    H248254   0.457   5.680   1.178  0.5288 -1.3938 -0.8330
 8947TIP3   OH248255   4.421   0.797  10.511 -0.1556  0.1343 -0.0295
 8947TIP3    H148256   4.337   0.842  10.511  0.7632  2.0581  1.7354
 8947TIP3    H248257   4.464   0.825  10.431 -0.0321  1.6396  0.5305
 8948TIP3   OH248258   1.556   5.183   6.393  0.3500  0.1235 -1.0749
 8948TIP3    H148259   1.498   5.154   6.323 -1.4139 -1.5769  0.9240
 8948TIP3    H248260   1.528   5.272   6.412 -0.0240  0.1408 -1.6861
 8949TIP3   OH248261   5.631   1.530   1.713  0.1728 -0.4276 -0.5133
 8949TIP3    H148262   5.647   1.450   1.662  1.2112 -0.6756  0.1613
 8949TIP3    H248263   5.626   1.600   1.648 -2.1327 -1.2018 -1.2366
 8950TIP3   OH248264   1.177   0.941  16.812 -0.3249 -0.7637 -0.2619
 8950TIP3    H148265   1.260   0.946  16.859 -1.8651  2.2287  2.5293
 8950TIP3    H248266   1.127   0.874  16.860 -0.4766 -0.6073 -0.2021
 8951TIP3   OH248267   4.145   2.595   1.123 -0.1656 -0.2958  0.1801
 8951TIP3    H148268   4.103   2.650   1.190 -2.2944  1.3371 -2.2960
 8951TIP3    H248269   4.220   2.647   1.095  0.2287 -0.5917  0.6626
 8952TIP3   OH248270   2.191   2.037  11.582 -0.2182  0.1009 -0.0738
 8952TIP3    H148271   2.250   2.090  11.528 -1.2129  0.2668 -1.0116
 8952TIP3    H248272   2.248   1.968  11.618  0.6484  0.5386 -0.5692
 8953TIP3   OH248273   3.256   4.951   1.568 -0.0339  0.5131  0.2612
 8953TIP3    H148274   3.280   5.039   1.536 -0.9576  1.0532  1.0115
 8953TIP3    H248275   3.170   4.935   1.530 -0.1947  0.2456  0.7390
 8954TIP3   OH248276   5.314   0.711   4.746 -0.1400  0.1396 -0.1884
 8954TIP3    H148277   5.410   0.705   4.752 -0.1586  0.8987  1.2434
 8954TIP3    H248278   5.292   0.789   4.796 -1.5681 -0.3815  0.0284
 8955TIP3   OH248279   6.595   6.572  12.848  0.5732 -0.4387 -0.0634
 8955TIP3    H148280   6.658   6.586  12.778  0.1812  0.3670 -0.2744
 8955TIP3    H248281   6.636   6.610  12.925 -1.1200  3.8085 -0.9288
 8956TIP3   OH248282   0.982   2.396  13.916 -0.0631  0.3723 -0.5681
 8956TIP3    H148283   0.910   2.457  13.904 -0.7382 -0.5776 -1.5555
 8956TIP3    H248284   0.941   2.319  13.957  0.6716  0.3680  0.1820
 8957TIP3   OH248285   5.365   0.072  16.674  0.2116  0.1085 -0.8090
 8957TIP3    H148286   5.425   0.144  16.657 -1.8154  1.7743 -1.2532
 8957TIP3    H248287   5.349   0.075  16.768  1.0083 -0.5334 -0.6387
 8958TIP3   OH248288   1.095   0.139   4.605 -0.0312  0.1624 -0.6346
 8958TIP3    H148289   1.080   0.149   4.511 -3.0139 -0.4316 -0.3386
 8958TIP3    H248290   1.131   0.051   4.614 -0.7330 -0.1910 -1.1737
 8959TIP3   OH248291   2.733   0.788   3.471  0.3116 -0.1467  0.0662
 8959TIP3    H148292   2.660   0.747   3.518  0.9374  1.0341  2.1961
 8959TIP3    H248293   2.807   0.783   3.532  1.8890 -0.7832 -1.8009
 8960TIP3   OH248294   2.287   1.963  10.818  0.0830 -0.6587 -0.6828
 8960TIP3    H148295   2.231   2.021  10.766 -0.6095 -0.5862  0.1252
 8960TIP3    H248296   2.246   1.877  10.812 -0.8533 -0.3662  0.9118
 8961TIP3   OH248297   3.047   6.009  14.808  0.2070  1.0772  0.2239
 8961TIP3    H148298   3.086   6.030  14.892 -0.2384  1.5362  0.3214
 8961TIP3    H248299   3.120   6.013  14.746  0.6396  0.1677  0.6719
 8962TIP3   OH248300   6.220   5.894  12.335 -0.0456  0.0393 -0.2459
 8962TIP3    H148301   6.135   5.933  12.353 -0.3069  0.0154 -1.3461
 8962TIP3    H248302   6.270   5.907  12.416 -0.6799  1.1479 -0.0074
 8963TIP3   OH248303   2.708   2.514  10.876  0.4793 -0.3199 -0.5118
 8963TIP3    H148304   2.798   2.482  10.867  0.6422  0.0170 -0.0995
 8963TIP3    H248305   2.717   2.606  10.901  0.0276 -0.4424  0.1415
 8964TIP3   OH248306   1.451   3.302  14.646 -0.6889  0.1868  0.1522
 8964TIP3    H148307   1.476   3.330  14.558 -1.7648  0.8926  0.0618
 8964TIP3    H248308   1.372   3.352  14.667 -1.1137 -0.8170  1.0670
 8965TIP3   OH248309   0.415   4.802  11.422 -0.5227 -0.0639 -0.0448
 8965TIP3    H148310   0.359   4.877  11.442 -1.3249 -0.6951  0.1337
 8965TIP3    H248311   0.442   4.767  11.507  1.8938  1.4500 -0.0797
 8966TIP3   OH248312   0.681   5.439   0.726 -0.0308 -0.3484 -0.5617
 8966TIP3    H148313   0.629   5.512   0.760 -0.4363 -0.2337 -1.4194
 8966TIP3    H248314   0.620   5.389   0.672  0.7921 -0.0844 -1.7689
 8967TIP3   OH248315   0.881   5.525   3.111 -0.3647  0.3142  0.7299
 8967TIP3    H148316   0.931   5.599   3.075  0.7030 -0.1241  1.2533
 8967TIP3    H248317   0.935   5.493   3.183 -0.1308 -1.8298 -0.3321
 8968TIP3   OH248318   4.801   1.393  11.609 -0.0814 -0.9255 -0.1541
 8968TIP3    H148319   4.720   1.389  11.658  0.5075  0.8206  1.0444
 8968TIP3    H248320   4.790   1.329  11.538 -2.5666 -0.5445 -0.1750
 8969TIP3   OH248321   1.429   0.729  11.555  1.0500 -0.0079  0.1751
 8969TIP3    H148322   1.469   0.693  11.476 -1.2876 -0.2916 -0.9662
 8969TIP3    H248323   1.413   0.821  11.534 -0.2455 -0.2567  0.0058
 8970TIP3   OH248324   2.553   5.018   3.657  0.2534  0.1397 -0.1346
 8970TIP3    H148325   2.645   5.020   3.681  0.4002  0.7226 -0.7360
 8970TIP3    H248326   2.545   4.943   3.598  0.6674  1.0227 -1.3419
 8971TIP3   OH248327   0.033   4.076   0.256 -0.0698  0.2620  0.1120
 8971TIP3    H148328   0.044   4.163   0.216  2.8822 -0.0986 -0.0955
 8971TIP3    H248329  -0.019   4.092   0.334 -0.7764  1.9843 -0.6510
 8972TIP3   OH248330   0.407   0.894   6.179 -0.2818  0.0626 -0.3728
 8972TIP3    H148331   0.421   0.847   6.261 -0.4635 -2.6525 -1.7881
 8972TIP3    H248332   0.335   0.848   6.137 -1.7589  2.8274 -1.1150
 8973TIP3   OH248333   6.137   5.862   2.224  0.3829 -0.7667  0.5566
 8973TIP3    H148334   6.204   5.805   2.261  0.4355 -0.6433  0.6525
 8973TIP3    H248335   6.168   5.882   2.135 -0.2575 -1.9157  0.0487
 8974TIP3   OH248336   4.078   2.741   4.851  0.3326  0.0812  0.1773
 8974TIP3    H148337   4.162   2.707   4.883  0.1422  0.6752  1.3708
 8974TIP3    H248338   4.085   2.836   4.863 -0.2940  0.1852 -0.2566
 8975TIP3   OH248339   2.647   0.774  11.293  0.1113  0.5564 -0.0664
 8975TIP3    H148340   2.569   0.805  11.338  0.7119 -0.7212  1.9814
 8975TIP3    H248341   2.717   0.784  11.357  0.6895 -3.1012  0.0988
 8976TIP3   OH248342   1.800   6.254  15.431  0.0746  0.0806  0.7867
 8976TIP3    H148343   1.705   6.270  15.433 -0.0355  0.1655 -1.8188
 8976TIP3    H248344   1.836   6.318  15.493 -1.3623  2.1119 -0.3435
 8977TIP3   OH248345   6.030   6.651   1.293  0.8246 -0.4460  0.2454
 8977TIP3    H148346   6.098   6.591   1.259  2.0304  0.7041  0.5417
 8977TIP3    H248347   6.013   6.620   1.381  1.0630 -0.6820  0.2118
 8978TIP3   OH248348   4.081   2.095  14.672 -0.4815  0.3019  0.1955
 8978TIP3    H148349   4.176   2.092  14.661 -0.6932 -0.1277 -1.6783
 8978TIP3    H248350   4.067   2.169  14.733  1.0484  0.0862  0.8583
 8979TIP3   OH248351   4.733   3.155  12.692  0.0295  0.2324 -0.2896
 8979TIP3    H148352   4.795   3.205  12.639 -1.1341  1.9144 -0.1429
 8979TIP3    H248353   4.767   3.161  12.781  0.7797 -0.6812 -0.5016
 8980TIP3   OH248354   4.905   3.841  10.543  0.2474 -0.4234 -0.1241
 8980TIP3    H148355   4.955   3.922  10.536 -3.8843  2.4681 -0.4817
 8980TIP3    H248356   4.897   3.810  10.452 -1.1907  1.0489 -0.5661
 8981TIP3   OH248357   4.295   6.745  16.879  0.6736  0.1884  0.2439
 8981TIP3    H148358   4.318   6.662  16.837 -2.3354 -1.7629  2.1374
 8981TIP3    H248359   4.230   6.784  16.821  0.2043 -0.0263  0.6297
 8982TIP3   OH248360   1.956   1.454  16.759  0.2318  0.3706 -0.3130
 8982TIP3    H148361   1.902   1.398  16.703  0.0582 -1.5399  1.6498
 8982TIP3    H248362   2.044   1.447  16.721  0.5295 -2.4822  0.6687
 8983TIP3   OH248363   2.791   2.707  13.690 -0.5573  0.3554  0.1658
 8983TIP3    H148364   2.758   2.621  13.663  0.1736 -0.1662  0.9093
 8983TIP3    H248365   2.793   2.757  13.608 -1.1152 -0.2831 -0.2594
 8984TIP3   OH248366   5.335   1.426  13.867 -0.1316  0.5058 -0.3615
 8984TIP3    H148367   5.301   1.431  13.956  2.5846  1.5099  0.7387
 8984TIP3    H248368   5.275   1.479  13.815 -1.2026  0.7595  1.0780
 8985TIP3   OH248369   2.236   4.097  11.304 -0.0321  0.0236 -0.4572
 8985TIP3    H148370   2.266   4.074  11.392 -0.4349  0.2925 -0.2509
 8985TIP3    H248371   2.317   4.111  11.255  0.2334 -1.6970 -0.5600
 8986TIP3   OH248372   0.361   1.118  13.666  0.2625  0.0004 -0.0191
 8986TIP3    H148373   0.375   1.186  13.732  1.0965  0.0474 -0.2417
 8986TIP3    H248374   0.406   1.041  13.701  0.4193 -0.0713 -0.3778
 8987TIP3   OH248375   5.460   0.318   5.975  0.2668 -0.4361  0.2879
 8987TIP3    H148376   5.402   0.372   6.029 -0.4631 -0.2502 -0.6793
 8987TIP3    H248377   5.548   0.347   6.000 -0.1087  1.0886 -0.0925
 8988TIP3   OH248378   3.087   0.089   0.306 -0.5387  0.6289 -0.1068
 8988TIP3    H148379   3.029   0.118   0.376  0.9381  0.2128  1.3342
 8988TIP3    H248380   3.175   0.092   0.344  0.4042  1.1098 -2.1826
 8989TIP3   OH248381   4.537   0.092   5.650  0.0082 -0.2649 -0.2642
 8989TIP3    H148382   4.603   0.075   5.583  1.3548 -1.3126  1.2467
 8989TIP3    H248383   4.457   0.053   5.616  0.5741 -0.4403 -1.4288
 8990TIP3   OH248384   1.018   1.015  14.869 -0.1119 -0.6618  1.3898
 8990TIP3    H148385   0.932   0.975  14.853  0.0820 -0.3016 -0.8910
 8990TIP3    H248386   1.067   0.999  14.789  0.7420  2.2188  1.2263
 8991TIP3   OH248387   0.424   0.936   5.615  0.5075 -0.0959 -0.2464
 8991TIP3    H148388   0.422   0.869   5.546  1.7425  0.1852 -0.5773
 8991TIP3    H248389   0.432   0.886   5.696  1.0883 -0.3725 -0.4669
 8992TIP3   OH248390   2.307   4.690   5.531  0.3440  0.2794 -0.1769
 8992TIP3    H148391   2.363   4.721   5.602 -0.0196 -0.5709  0.4871
 8992TIP3    H248392   2.242   4.759   5.520 -0.2300 -0.0390  1.0323
 8993TIP3   OH248393   2.142   2.900  13.185 -0.1709 -0.2572 -0.1618
 8993TIP3    H148394   2.130   2.849  13.105 -0.8149 -0.2434 -0.0741
 8993TIP3    H248395   2.182   2.838  13.246  2.1787  0.2493 -1.0805
 8994TIP3   OH248396   1.525   2.364  11.951 -0.1559  0.2087  0.1838
 8994TIP3    H148397   1.513   2.457  11.933 -0.1264  0.5224  1.7339
 8994TIP3    H248398   1.613   2.345  11.918 -0.7818  0.3103 -1.6681
 8995TIP3   OH248399   4.254   1.468   1.017 -0.4854 -0.4237  0.3992
 8995TIP3    H148400   4.190   1.401   0.990  0.3192 -0.9425 -0.2557
 8995TIP3    H248401   4.203   1.528   1.072 -1.1457 -1.7867  1.3548
 8996TIP3   OH248402   1.873   6.264   5.757 -0.4451  0.2452  0.2787
 8996TIP3    H148403   1.811   6.326   5.795 -1.3515 -0.1235 -0.5355
 8996TIP3    H248404   1.889   6.200   5.826 -0.9999  0.3341  0.4972
 8997TIP3   OH248405   3.419   4.422   0.756  0.1249  0.4508 -0.4082
 8997TIP3    H148406   3.470   4.416   0.837  0.7524  4.2597 -0.3181
 8997TIP3    H248407   3.478   4.467   0.695 -1.9656  2.0887 -1.3439
 8998TIP3   OH248408   2.506   0.339   6.002 -0.0700  0.0909 -0.1717
 8998TIP3    H148409   2.431   0.398   5.994 -0.6628 -0.5592  0.4104
 8998TIP3    H248410   2.582   0.394   5.988 -0.3414  1.9003  3.9535
 8999TIP3   OH248411   0.275   4.152  15.411 -0.1564  0.2786 -0.1580
 8999TIP3    H148412   0.298   4.171  15.321  1.7251 -5.0152 -1.1424
 8999TIP3    H248413   0.347   4.188  15.463  1.8394 -1.5669 -1.4957
 9000TIP3   OH248414   6.559   1.384   3.896 -0.2463  0.1488  0.2905
 9000TIP3    H148415   6.606   1.334   3.963 -0.0062 -0.7122 -0.5051
 9000TIP3    H248416   6.624   1.447   3.863 -0.5699  1.0616  1.3412
 9001TIP3   OH248417   1.275   6.311  11.994 -0.1364 -0.1866 -1.0617
 9001TIP3    H148418   1.363   6.340  11.971  0.1614  1.1424  1.3978
 9001TIP3    H248419   1.288   6.230  12.043 -0.1650  0.4368  0.0116
 9002TIP3   OH248420   0.892   4.918  13.254 -0.0087 -0.2866 -0.3948
 9002TIP3    H148421   0.848   4.945  13.174 -3.3353  0.4532  1.4856
 9002TIP3    H248422   0.966   4.977  13.263 -1.3395  1.6285 -1.4443
 9003TIP3   OH248423   3.546   6.457  13.627  0.0413 -0.4279 -0.3639
 9003TIP3    H148424   3.457   6.453  13.593  0.5009 -1.0979 -1.5975
 9003TIP3    H248425   3.545   6.402  13.705 -1.1313  1.4245  1.0145
 9004TIP3   OH248426   4.440   5.540  16.510 -0.1643  0.2982 -0.1292
 9004TIP3    H148427   4.386   5.617  16.526 -0.7579  0.1436 -1.3432
 9004TIP3    H248428   4.379   5.467  16.508 -0.1328  0.2544 -2.6646
 9005TIP3   OH248429   2.545   1.197  13.044  0.2677  0.3341  0.1057
 9005TIP3    H148430   2.639   1.199  13.065  0.3911 -0.2196 -0.3879
 9005TIP3    H248431   2.530   1.277  12.994  0.5814  0.1763 -0.2451
 9006TIP3   OH248432   3.726   5.513   2.817 -0.1021 -0.3791  0.0862
 9006TIP3    H148433   3.643   5.561   2.809  0.4841  0.3809 -2.1264
 9006TIP3    H248434   3.716   5.461   2.897 -1.8880  1.2557  1.0030
 9007TIP3   OH248435   0.008   4.449   2.298  0.1337 -0.1320  0.0149
 9007TIP3    H148436  -0.034   4.464   2.383  1.0577  1.9868  0.1753
 9007TIP3    H248437   0.079   4.388   2.318  0.8384  0.9400  0.9902
 9008TIP3   OH248438   2.247   3.052  11.489 -0.6395  0.1255 -0.1611
 9008TIP3    H148439   2.193   2.991  11.539 -0.9739 -2.1278 -2.9538
 9008TIP3    H248440   2.185   3.097  11.431  0.1451 -0.7827 -1.7697
 9009TIP3   OH248441   4.213   2.137   6.252 -0.0170 -0.0769 -0.0538
 9009TIP3    H148442   4.126   2.108   6.280 -0.0880 -0.0601 -0.2550
 9009TIP3    H248443   4.254   2.170   6.331 -0.1337 -0.2392  0.0751
 9010TIP3   OH248444   0.515   5.054   1.368  0.5625 -0.6237  0.2976
 9010TIP3    H148445   0.563   5.089   1.294 -1.3933 -0.3270 -0.8891
 9010TIP3    H248446   0.434   5.105   1.372  0.8643 -0.1784  3.0659
 9011TIP3   OH248447   1.215   2.489   5.821  0.0420  0.1372  0.0474
 9011TIP3    H148448   1.166   2.477   5.740  0.6233  0.6180 -0.3875
 9011TIP3    H248449   1.180   2.423   5.881  0.6917 -1.3015 -1.0986
 9012TIP3   OH248450   3.678   3.447  16.897  0.3690 -0.1383  0.5952
 9012TIP3    H148451   3.772   3.465  16.884  0.5145 -1.2671 -0.0686
 9012TIP3    H248452   3.672   3.351  16.897 -1.0048 -0.1098 -1.2514
 9013TIP3   OH248453   2.637   3.815   0.611 -0.3153 -0.0851 -0.6926
 9013TIP3    H148454   2.646   3.853   0.698 -0.6442  0.6650 -0.9743
 9013TIP3    H248455   2.621   3.722   0.626  0.5380 -0.1226  0.0131
 9014TIP3   OH248456   5.924   2.271   5.397  0.3624  0.1448 -0.2086
 9014TIP3    H148457   5.882   2.351   5.363 -0.5570 -0.4416 -0.5069
 9014TIP3    H248458   5.859   2.202   5.381  1.1601 -0.6699  0.0117
 9015TIP3   OH248459   5.560   2.044   4.867  0.0984 -0.1889 -0.2665
 9015TIP3    H148460   5.636   1.986   4.866 -0.2054 -0.5981 -1.3652
 9015TIP3    H248461   5.493   1.996   4.818  0.3492  1.7557 -2.7168
 9016TIP3   OH248462   2.043   3.996  14.905 -0.1307  0.2764 -0.1477
 9016TIP3    H148463   2.070   4.047  14.981  1.7005 -1.0250  0.1483
 9016TIP3    H248464   2.110   4.014  14.838 -0.6303 -0.1029 -0.7595
 9017TIP3   OH248465   2.714   1.040   0.231 -0.1328 -0.5834 -0.3942
 9017TIP3    H148466   2.769   1.067   0.157  1.1102  0.4437  0.8479
 9017TIP3    H248467   2.775   0.998   0.292 -1.5207 -3.4875 -0.8903
 9018TIP3   OH248468   3.929   0.066   1.250  0.4515 -0.3622 -0.1861
 9018TIP3    H148469   3.977   0.084   1.331 -0.1677 -0.7710  0.2794
 9018TIP3    H248470   3.997   0.063   1.182  1.0329 -0.5011  0.3913
 9019TIP3   OH248471   6.575   6.663   0.839  0.1067 -0.5889 -0.1373
 9019TIP3    H148472   6.494   6.699   0.876 -1.9324 -2.4072 -2.4662
 9019TIP3    H248473   6.581   6.576   0.879 -0.2525 -1.2292 -1.4111
 9020TIP3   OH248474   4.373   3.783   1.920 -0.1360 -0.1238  0.6955
 9020TIP3    H148475   4.342   3.841   1.851  0.6087 -0.0796  0.3996
 9020TIP3    H248476   4.316   3.706   1.914 -1.3496  0.6863  1.3065
 9021TIP3   OH248477   1.844   5.449   0.203 -0.1482  0.2309  0.3762
 9021TIP3    H148478   1.873   5.416   0.118 -1.7212  0.5108 -0.2954
 9021TIP3    H248479   1.872   5.382   0.265 -0.4049 -0.7871 -0.5743
 9022TIP3   OH248480   0.235   1.941  12.261 -0.5592 -0.0365  0.2316
 9022TIP3    H148481   0.264   1.945  12.352  0.3789 -2.0944  0.0853
 9022TIP3    H248482   0.306   1.894  12.216 -0.0829  2.5229 -1.9782
 9023TIP3   OH248483   3.160   1.353   3.143  0.0041  0.4064 -0.1138
 9023TIP3    H148484   3.241   1.361   3.194  0.4812  1.1488 -0.9485
 9023TIP3    H248485   3.187   1.309   3.062 -0.9237 -1.6579  0.6195
 9024TIP3   OH248486   2.204   0.021   4.014  0.2297  0.1197 -0.4301
 9024TIP3    H148487   2.221   0.097   3.958 -0.5757 -0.2477 -1.2071
 9024TIP3    H248488   2.256  -0.049   3.974  0.2590  0.0439 -0.2589
 9025TIP3   OH248489   1.218   5.271  15.756 -0.1687  0.2445  0.0530
 9025TIP3    H148490   1.262   5.239  15.835 -2.5845 -0.4822  1.1931
 9025TIP3    H248491   1.287   5.315  15.707  1.8675 -1.0735  1.5694
 9026TIP3   OH248492   0.537   2.557   3.340 -0.7686  0.5529 -0.6453
 9026TIP3    H148493   0.533   2.475   3.291 -0.2946  0.9464 -1.3627
 9026TIP3    H248494   0.618   2.551   3.390 -1.8964 -0.4189  1.1695
 9027TIP3   OH248495   4.766   6.644   3.201  0.0082 -0.0925  0.2657
 9027TIP3    H148496   4.786   6.735   3.177 -1.4777 -0.1079 -1.2654
 9027TIP3    H248497   4.835   6.593   3.160  0.1862  0.2731  0.1071
 9028TIP3   OH248498   4.460   5.058   3.414 -0.0321  0.5522  0.1949
 9028TIP3    H148499   4.475   5.119   3.486  0.4988  2.6074 -1.5687
 9028TIP3    H248500   4.520   4.985   3.432  0.1032  1.0191  1.7895
 9029TIP3   OH248501   2.125   6.276   4.776 -0.2639 -0.4030  0.0268
 9029TIP3    H148502   2.039   6.313   4.796 -0.8323 -0.9815 -1.1964
 9029TIP3    H248503   2.111   6.181   4.776  0.5430 -0.5331  0.4906
 9030TIP3   OH248504   0.140   4.547   4.428  0.1167  0.0904  0.0326
 9030TIP3    H148505   0.185   4.593   4.498  3.2284  1.2848 -2.5070
 9030TIP3    H248506   0.181   4.460   4.426 -0.0948 -0.0062 -0.2016
 9031TIP3   OH248507   1.005   4.956  15.903  0.2423  0.1071  0.0273
 9031TIP3    H148508   0.916   4.976  15.872 -0.0736  1.9891  1.9182
 9031TIP3    H248509   0.995   4.877  15.956 -0.1820 -0.0611 -0.2949
 9032TIP3   OH248510   1.480   5.699   3.280 -0.6242 -0.0489 -0.0774
 9032TIP3    H148511   1.407   5.637   3.278 -0.7755  0.1329 -1.0120
 9032TIP3    H248512   1.558   5.644   3.277 -0.7470 -0.2190 -0.2183
 9033TIP3   OH248513   6.771   1.535   0.108  0.0792 -0.0325 -0.7158
 9033TIP3    H148514   6.777   1.442   0.090 -0.0655 -0.1476 -0.1961
 9033TIP3    H248515   6.856   1.571   0.082  0.0297 -0.2605 -1.1863
 9034TIP3   OH248516   0.430   0.193   4.378  0.6487  0.1778 -0.0255
 9034TIP3    H148517   0.403   0.233   4.296  0.5564  1.7353  0.7375
 9034TIP3    H248518   0.348   0.178   4.426  0.8330  1.1924  0.6285
 9035TIP3   OH248519   3.171   5.020  12.481  0.2097  0.7449 -0.8518
 9035TIP3    H148520   3.134   5.081  12.544 -0.3527 -0.3845 -0.0498
 9035TIP3    H248521   3.118   4.941  12.490  0.7250  0.2309 -2.0694
 9036TIP3   OH248522   2.250   3.411   3.461 -0.3369  0.4600 -0.1258
 9036TIP3    H148523   2.270   3.503   3.481 -2.0210  0.3834  2.5103
 9036TIP3    H248524   2.161   3.399   3.494  0.1571 -2.3514  0.4222
 9037TIP3   OH248525   1.487   5.345   3.454  0.5294 -0.2285 -0.1542
 9037TIP3    H148526   1.508   5.258   3.420  0.3990 -0.6376  0.7627
 9037TIP3    H248527   1.571   5.391   3.457  1.0432 -1.1976  1.6904
 9038TIP3   OH248528   6.008   4.938   4.569  0.2200 -0.4601  0.5574
 9038TIP3    H148529   6.038   5.026   4.589 -0.1440  0.0528 -1.0160
 9038TIP3    H248530   5.912   4.944   4.572  0.1982 -0.9585  1.0390
 9039TIP3   OH248531   2.092   4.969   1.826 -0.6910 -0.2338 -0.1909
 9039TIP3    H148532   2.062   4.902   1.888 -0.6176 -1.4761 -1.4390
 9039TIP3    H248533   2.012   5.017   1.803 -0.6395  0.5479  1.1907
 9040TIP3   OH248534   1.228   2.172  14.908 -0.0937 -0.0841 -0.0751
 9040TIP3    H148535   1.266   2.163  14.995  0.4996 -0.9912 -0.4025
 9040TIP3    H248536   1.203   2.264  14.901 -1.5782 -0.3179  1.6074
 9041TIP3   OH248537   0.091   1.006   0.916 -0.4266 -0.4821  0.4361
 9041TIP3    H148538   0.177   0.984   0.881 -0.5597 -0.9155  0.3728
 9041TIP3    H248539   0.086   0.959   1.000 -0.6583 -0.5802  0.3690
 9042TIP3   OH248540   2.614   5.586   4.451 -0.2980 -0.5539  0.1886
 9042TIP3    H148541   2.603   5.614   4.541  0.3953 -0.9284  0.3991
 9042TIP3    H248542   2.585   5.660   4.398 -0.4936 -0.2498  0.7200
 9043TIP3   OH248543   2.924   0.491  11.304 -0.1124 -0.2646  0.5354
 9043TIP3    H148544   2.951   0.540  11.226 -0.2117  0.2627  0.8272
 9043TIP3    H248545   2.959   0.403  11.291  1.2928  0.2537  0.6432
 9044TIP3   OH248546   6.240   0.638   1.581 -0.0023  0.8440 -0.4719
 9044TIP3    H148547   6.153   0.653   1.618  0.9453  3.1241  1.1091
 9044TIP3    H248548   6.270   0.557   1.622 -0.9146  0.7169 -0.0294
 9045TIP3   OH248549   5.016   6.735  13.575  0.2166  0.1449  0.5979
 9045TIP3    H148550   5.090   6.730  13.637  1.0780  1.0265 -0.3201
 9045TIP3    H248551   5.024   6.656  13.522  1.9426  1.2951 -1.0006
 9046TIP3   OH248552   0.500   5.825   3.882 -1.0053  0.0508 -0.1999
 9046TIP3    H148553   0.437   5.878   3.833 -1.0181 -1.9409 -2.5567
 9046TIP3    H248554   0.469   5.735   3.871 -0.4183 -0.6093  2.7646
 9047TIP3   OH248555   5.574   3.278   5.187 -0.1671  0.2073  0.4070
 9047TIP3    H148556   5.492   3.321   5.164 -0.6918 -1.9163 -2.1273
 9047TIP3    H248557   5.563   3.256   5.280 -2.3053  0.3445  0.2442
 9048TIP3   OH248558   1.495   0.077   5.618 -0.4156 -0.1815 -0.3519
 9048TIP3    H148559   1.436   0.144   5.654  1.9674  1.0449  1.6336
 9048TIP3    H248560   1.493   0.091   5.524 -1.4180  1.4513 -0.1298
 9049TIP3   OH248561   1.685   0.205   2.522  0.0300 -0.1318  0.4353
 9049TIP3    H148562   1.626   0.228   2.595 -1.4262 -0.2403 -0.6639
 9049TIP3    H248563   1.678   0.279   2.462  0.8336 -0.2699  0.1622
 9050TIP3   OH248564   5.449   6.460  14.088 -0.4807  0.3794 -0.1222
 9050TIP3    H148565   5.438   6.386  14.148 -1.1948 -1.6722 -2.6083
 9050TIP3    H248566   5.364   6.468  14.045 -0.6389  3.1652  0.5418
 9051TIP3   OH248567   4.847   0.783  12.564 -0.4933  0.0402  0.5174
 9051TIP3    H148568   4.818   0.874  12.563 -0.9028 -0.0884 -0.7611
 9051TIP3    H248569   4.783   0.736  12.510  1.3989 -0.4554 -1.4351
 9052TIP3   OH248570   6.630   1.212   5.610 -0.2349 -0.1356 -0.2216
 9052TIP3    H148571   6.565   1.143   5.597 -0.4025  0.3649 -2.2284
 9052TIP3    H248572   6.654   1.241   5.522  1.7698  0.5861  0.4937
 9053TIP3   OH248573   2.843   1.131  15.996  0.0570 -0.0617  0.1428
 9053TIP3    H148574   2.922   1.173  16.031 -0.0728 -1.4126  2.2744
 9053TIP3    H248575   2.870   1.041  15.979 -0.7951 -0.3009  0.0227
 9054TIP3   OH248576   0.765   5.567   1.084 -0.0150  0.1666 -0.6242
 9054TIP3    H148577   0.752   5.503   1.014 -1.5330  1.1516 -1.2953
 9054TIP3    H248578   0.677   5.585   1.117  0.6565 -0.2157  1.5341
 9055TIP3   OH248579   3.064   3.414   1.782 -0.2300 -0.2498  0.4007
 9055TIP3    H148580   2.983   3.436   1.737  0.9953  1.6400 -1.0344
 9055TIP3    H248581   3.124   3.386   1.713  0.4918 -1.2837  1.3853
 9056TIP3   OH248582   0.915   5.172  16.149  0.2274 -0.7406  0.7190
 9056TIP3    H148583   0.873   5.157  16.064 -0.5019  1.0292  0.7253
 9056TIP3    H248584   1.004   5.137  16.138  0.7000  0.8857 -1.3473
 9057TIP3   OH248585   6.115   4.273  11.864  0.0998 -0.5784 -0.5544
 9057TIP3    H148586   6.127   4.266  11.959 -0.6066 -0.7587 -0.4712
 9057TIP3    H248587   6.174   4.343  11.838 -1.1199  0.8375  0.3290
 9058TIP3   OH248588   6.649   4.150   1.753  0.4444  0.7020  0.3557
 9058TIP3    H148589   6.668   4.240   1.781 -0.0408  1.2726 -1.0896
 9058TIP3    H248590   6.731   4.119   1.713  0.4625  0.6613  0.4233
 9059TIP3   OH248591   5.145   6.121  16.435 -0.7383  0.3888 -0.5570
 9059TIP3    H148592   5.186   6.159  16.513  0.1948  0.9005 -1.2813
 9059TIP3    H248593   5.172   6.178  16.363 -0.6281 -0.7386 -1.4308
 9060TIP3   OH248594   5.519   6.301  12.217 -0.0981 -0.5835 -0.2740
 9060TIP3    H148595   5.581   6.297  12.144 -0.3166 -1.3166 -0.4284
 9060TIP3    H248596   5.573   6.321  12.294  0.3734 -1.5175 -0.3562
 9061TIP3   OH248597   4.328   2.298  11.590  0.4913  0.2069  0.2713
 9061TIP3    H148598   4.297   2.352  11.517  0.8381 -0.7861 -0.6353
 9061TIP3    H248599   4.248   2.276  11.639 -0.1305 -1.2718 -1.3092
 9062TIP3   OH248600   0.981   5.186   6.487 -0.4052 -0.1750  0.4366
 9062TIP3    H148601   0.941   5.271   6.472 -1.5256 -0.3780  2.0841
 9062TIP3    H248602   1.056   5.204   6.544 -1.0594 -0.3568  1.3682
 9063TIP3   OH248603   5.470   5.963  11.137  0.0658  0.1203 -0.5154
 9063TIP3    H148604   5.521   6.039  11.110  0.0944 -0.4253 -2.0898
 9063TIP3    H248605   5.512   5.889  11.093 -0.6564 -0.6527  0.0717
 9064TIP3   OH248606   5.552   1.971  15.161  0.0033  0.0138 -0.3016
 9064TIP3    H148607   5.590   2.040  15.215  1.1092 -1.3628  0.7613
 9064TIP3    H248608   5.461   1.963  15.191  0.8360 -1.3453  2.0862
 9065TIP3   OH248609   3.507   5.645  16.032  0.1729  0.4385  0.7875
 9065TIP3    H148610   3.450   5.624  16.106 -1.7408  0.8551 -0.5001
 9065TIP3    H248611   3.485   5.735  16.008  0.3039  0.1271 -0.6456
 9066TIP3   OH248612   5.387   6.035   5.383  0.2583  0.3418  0.0349
 9066TIP3    H148613   5.379   6.006   5.474  2.7692  1.1723  0.6039
 9066TIP3    H248614   5.460   5.984   5.348  0.8411  1.6683 -0.7628
 9067TIP3   OH248615   5.479   0.894   0.330 -0.3141  0.2152  0.3949
 9067TIP3    H148616   5.407   0.956   0.333 -1.4481 -1.0697  1.0640
 9067TIP3    H248617   5.439   0.810   0.356  1.0756 -0.8573 -0.7711
 9068TIP3   OH248618   5.655   6.653   2.203  0.4626  0.7114  0.0495
 9068TIP3    H148619   5.722   6.608   2.151 -0.2774  0.7546 -0.9800
 9068TIP3    H248620   5.704   6.700   2.270  1.3043 -1.3471  0.9714
 9069TIP3   OH248621   5.424   4.980   1.427  0.5251 -0.0427  0.5507
 9069TIP3    H148622   5.376   5.008   1.349  0.8126 -2.6168 -0.6565
 9069TIP3    H248623   5.510   5.022   1.419 -0.3264  1.8821  0.9677
 9070TIP3   OH248624   6.580   5.873   3.859 -0.5890 -0.1405 -0.7513
 9070TIP3    H148625   6.585   5.954   3.910  2.8593 -0.3030 -0.5784
 9070TIP3    H248626   6.583   5.902   3.768  0.3323 -0.0240 -0.6942
 9071TIP3   OH248627   2.487   2.178  16.060  0.5474 -0.2291 -0.3893
 9071TIP3    H148628   2.447   2.127  15.990 -0.7091  0.3356 -0.1090
 9071TIP3    H248629   2.420   2.241  16.086  1.0573 -0.2854  1.1926
 9072TIP3   OH248630   6.093   5.819   4.660  0.2591  0.1620  0.2164
 9072TIP3    H148631   6.000   5.797   4.649  0.8385 -2.0389 -0.7138
 9072TIP3    H248632   6.122   5.845   4.573  1.1575 -2.0205 -0.1897
 9073TIP3   OH248633   0.958   3.796  16.255 -0.4447 -0.1245 -0.2608
 9073TIP3    H148634   0.959   3.817  16.162  0.2033  0.9733 -0.0296
 9073TIP3    H248635   1.024   3.729  16.266  2.3271  2.4405 -0.0591
 9074TIP3   OH248636   5.047   0.979   2.037  0.0336 -0.2710 -0.1854
 9074TIP3    H148637   5.003   0.929   1.969 -0.1351 -0.1091 -0.1978
 9074TIP3    H248638   4.980   0.992   2.104 -0.0391  0.2681 -0.3577
 9075TIP3   OH248639   3.412   2.145   4.384 -0.1045  0.0960  0.0406
 9075TIP3    H148640   3.484   2.130   4.323 -0.6519 -0.9113 -0.3737
 9075TIP3    H248641   3.395   2.059   4.423 -1.5272  0.1632 -0.3682
 9076TIP3   OH248642   3.780   2.080  13.006 -0.8882 -0.3010  0.2913
 9076TIP3    H148643   3.705   2.130  13.038 -1.5976 -1.3200  0.2670
 9076TIP3    H248644   3.767   2.076  12.911  0.6496  1.8042 -0.0960
 9077TIP3   OH248645   1.361   6.328  12.637 -0.7260 -0.0834  0.7126
 9077TIP3    H148646   1.377   6.347  12.545  2.4755  0.3008  1.2380
 9077TIP3    H248647   1.277   6.281  12.638 -1.5011  1.0343 -2.1980
 9078TIP3   OH248648   1.898   4.732   5.410 -0.2242  0.1995 -0.1140
 9078TIP3    H148649   1.871   4.683   5.487 -0.5757  1.7118  0.7755
 9078TIP3    H248650   1.827   4.795   5.396 -0.0726  0.0754 -1.5692
 9079TIP3   OH248651   0.793   1.243  11.417  0.2665 -0.2629  0.3758
 9079TIP3    H148652   0.842   1.271  11.340  0.5653  0.7801  0.9319
 9079TIP3    H248653   0.789   1.148  11.409  0.8439 -0.2220 -0.5947
 9080TIP3   OH248654   6.239   5.202   0.570  0.0079  0.4145  0.2608
 9080TIP3    H148655   6.269   5.293   0.573  2.3748 -0.3038  0.5079
 9080TIP3    H248656   6.287   5.158   0.640 -1.7839 -0.8788  0.7641
 9081TIP3   OH248657   5.337   6.433   2.917 -0.0364 -0.2268  0.1768
 9081TIP3    H148658   5.376   6.517   2.941  0.6473 -0.6673  0.6243
 9081TIP3    H248659   5.373   6.370   2.980  0.4471 -1.0905 -0.9303
 9082TIP3   OH248660   4.570   4.356   5.800  0.3307 -0.0275  0.2078
 9082TIP3    H148661   4.499   4.366   5.737  0.1110  1.5709  0.6645
 9082TIP3    H248662   4.585   4.262   5.804 -1.0692 -0.3199 -0.6556
 9083TIP3   OH248663   4.629   3.786  14.130  0.2211 -0.5595  0.5737
 9083TIP3    H148664   4.595   3.766  14.218 -2.5430  0.5064 -0.1503
 9083TIP3    H248665   4.553   3.777  14.073  2.1550 -2.2636 -1.9677
 9084TIP3   OH248666   2.664   6.540  16.641 -0.4954 -0.0281 -0.0452
 9084TIP3    H148667   2.756   6.554  16.666 -0.4013 -0.4840 -0.1346
 9084TIP3    H248668   2.669   6.486  16.562 -0.8492 -0.1995  0.0515
 9085TIP3   OH248669   0.972   2.333  12.257  0.5833  0.4839  0.3880
 9085TIP3    H148670   0.973   2.429  12.256  1.2835  0.4792 -0.5450
 9085TIP3    H248671   0.879   2.311  12.267  0.5055  1.2482  1.5753
 9086TIP3   OH248672   1.470   6.394  11.067 -0.3523  0.4355 -0.4519
 9086TIP3    H148673   1.393   6.402  11.010 -0.0192 -0.1779 -0.9949
 9086TIP3    H248674   1.540   6.366  11.009  0.6301  2.2472 -0.2201
 9087TIP3   OH248675   6.624   4.074   3.693  0.1438  0.2615  0.3186
 9087TIP3    H148676   6.673   4.130   3.753 -1.4444  1.0362  0.9474
 9087TIP3    H248677   6.533   4.081   3.721 -0.5321 -0.1256 -1.5794
 9088TIP3   OH248678   3.247   0.065   1.143  0.3982 -0.2288  0.1266
 9088TIP3    H148679   3.276  -0.017   1.183 -0.5737 -0.7362 -0.2023
 9088TIP3    H248680   3.276   0.132   1.205 -0.0321 -0.9222  1.1124
 9089TIP3   OH248681   4.879   3.042   1.627  0.2975  0.2178  0.1076
 9089TIP3    H148682   4.948   3.106   1.611  0.5927  0.3138  1.6124
 9089TIP3    H248683   4.803   3.094   1.653 -0.6438  0.1710 -2.3238
 9090TIP3   OH248684   5.281   4.197  16.724  0.2251  0.2280 -0.4067
 9090TIP3    H148685   5.354   4.152  16.767 -0.3419 -0.1688  0.1626
 9090TIP3    H248686   5.242   4.251  16.792 -0.4782 -0.1509 -0.4996
 9091TIP3   OH248687   4.434   4.085  14.057 -0.7507  0.6439  0.3462
 9091TIP3    H148688   4.468   4.091  13.968  0.2939  3.1581  0.8424
 9091TIP3    H248689   4.345   4.052  14.047 -0.5694  0.6576 -1.5978
 9092TIP3   OH248690   0.207   4.472   1.665  0.0856 -0.0733  0.0387
 9092TIP3    H148691   0.260   4.392   1.658  0.5260  0.0600  1.4268
 9092TIP3    H248692   0.126   4.452   1.619  0.0859 -1.4193  0.5812
 9093TIP3   OH248693   3.976   6.574  16.046  0.8633 -0.1345 -0.6985
 9093TIP3    H148694   3.966   6.536  15.958 -0.1801 -0.3171 -0.5125
 9093TIP3    H248695   3.928   6.657  16.041  0.1602 -0.5007 -0.0859
 9094TIP3   OH248696   4.556   2.765   0.418  0.1342 -0.4073 -0.2190
 9094TIP3    H148697   4.591   2.715   0.492 -1.2746 -1.4209 -0.2064
 9094TIP3    H248698   4.580   2.713   0.341  0.8920  0.2380 -0.4385
 9095TIP3   OH248699   1.575   1.830   1.092 -0.1889  0.0603  0.3572
 9095TIP3    H148700   1.514   1.883   1.144 -0.6531 -0.1050 -0.0055
 9095TIP3    H248701   1.636   1.893   1.055  1.0518  0.0491  2.2511
 9096TIP3   OH248702   0.901   5.982  15.755 -0.7763  0.3449  0.4472
 9096TIP3    H148703   0.915   6.051  15.690  1.8231 -0.0846  0.4289
 9096TIP3    H248704   0.841   6.020  15.818 -1.2161  1.7698 -0.7766
 9097TIP3   OH248705   1.547   1.238   4.369 -0.3041 -0.0502 -0.3936
 9097TIP3    H148706   1.492   1.286   4.432 -0.6053  0.9505 -1.3784
 9097TIP3    H248707   1.598   1.306   4.326  0.4017 -0.7980 -0.7554
 9098TIP3   OH248708   1.337   5.087   0.546  0.4825  0.1688 -0.6511
 9098TIP3    H148709   1.332   5.053   0.635  0.6584 -1.8584 -1.3638
 9098TIP3    H248710   1.248   5.117   0.526 -0.5391 -2.8358 -1.0365
 9099TIP3   OH248711   4.244   5.305   5.589  0.6071 -0.2391 -0.1508
 9099TIP3    H148712   4.287   5.386   5.616  0.8129 -0.3091 -0.2720
 9099TIP3    H248713   4.315   5.248   5.559  0.5983 -0.9193  1.0585
 9100TIP3   OH248714   1.193   1.789   3.889  0.2886  0.3252  0.1216
 9100TIP3    H148715   1.114   1.843   3.893  0.3204  0.3886 -0.0731
 9100TIP3    H248716   1.210   1.780   3.795  0.8690  0.8247  0.1771
 9101TIP3   OH248717   1.249   2.290  13.367 -0.4778 -0.2170  0.4955
 9101TIP3    H148718   1.216   2.380  13.362  0.1348  0.0597  1.1914
 9101TIP3    H248719   1.246   2.258  13.277  1.2239  1.2144 -0.1314
 9102TIP3   OH248720   4.051   5.402  12.064  0.1578 -0.0898  0.5493
 9102TIP3    H148721   4.131   5.376  12.111  0.9069 -0.8504 -1.0639
 9102TIP3    H248722   4.078   5.405  11.972 -1.8101 -0.9183 -0.0987
 9103TIP3   OH248723   5.817   6.542   1.996  0.1793  0.1501 -0.0037
 9103TIP3    H148724   5.747   6.552   1.931  0.0890  1.8489  0.3258
 9103TIP3    H248725   5.869   6.622   1.988  0.8900 -0.1793  1.1672
 9104TIP3   OH248726   3.002   6.763   0.073 -0.3778 -0.0369 -0.7848
 9104TIP3    H148727   2.914   6.800   0.062 -1.1513 -1.5857 -0.1724
 9104TIP3    H248728   3.033   6.798   0.156 -0.5809  0.1875 -0.8020
 9105TIP3   OH248729   0.714   1.100   5.405  0.2060 -0.1488  0.5179
 9105TIP3    H148730   0.638   1.113   5.348 -0.1436  1.4242  1.2876
 9105TIP3    H248731   0.681   1.117   5.494  1.1633 -0.7285  1.0033
 9106TIP3   OH248732   0.670   4.984  11.326 -0.1335  0.1109 -0.3320
 9106TIP3    H148733   0.583   4.959  11.359 -1.1270 -0.1535 -2.8993
 9106TIP3    H248734   0.682   5.074  11.358 -0.4582 -0.4804  1.6135
 9107TIP3   OH248735   3.715   6.510  16.369 -0.0066 -0.1280 -0.4408
 9107TIP3    H148736   3.745   6.600  16.380 -1.1097  0.2358 -0.2244
 9107TIP3    H248737   3.776   6.471  16.307  0.3007  0.8608 -0.7744
 9108TIP3   OH248738   5.907   1.820  11.446 -0.0956  0.2746  0.0880
 9108TIP3    H148739   5.951   1.894  11.407  1.2172 -0.9639 -0.8596
 9108TIP3    H248740   5.977   1.763  11.477 -1.0549 -0.7926  0.3913
 9109TIP3   OH248741   4.189   2.212   1.367  0.6537  0.3281  0.4526
 9109TIP3    H148742   4.248   2.170   1.429 -1.0150  1.8461  3.2822
 9109TIP3    H248743   4.200   2.306   1.383 -0.1803  0.7684 -1.2840
 9110TIP3   OH248744   1.671   2.343  13.764  0.7719 -0.2537 -0.0453
 9110TIP3    H148745   1.595   2.296  13.797 -0.6535  0.3115 -2.2903
 9110TIP3    H248746   1.647   2.436  13.774  0.4411 -0.0645 -2.1307
 9111TIP3   OH248747   1.776   3.076  13.084  0.3732 -0.5835 -0.2153
 9111TIP3    H148748   1.717   3.111  13.017 -0.3509 -1.6723 -0.1543
 9111TIP3    H248749   1.860   3.119  13.066 -0.1666  0.1934 -0.9467
 9112TIP3   OH248750   3.892   6.758   1.800  0.3336 -0.0946 -0.0912
 9112TIP3    H148751   3.943   6.792   1.874  0.2588  1.0658 -0.5406
 9112TIP3    H248752   3.845   6.683   1.836 -2.1532  2.2169  1.9763
 9113TIP3   OH248753   2.531   3.885  10.777 -0.6979  0.4559 -0.3124
 9113TIP3    H148754   2.451   3.849  10.814 -1.6724  1.6406 -1.1682
 9113TIP3    H248755   2.598   3.866  10.842 -1.9647  0.7533  1.1388
 9114TIP3   OH248756   4.073   6.476   2.151 -0.1587 -0.6231  0.7087
 9114TIP3    H148757   4.082   6.568   2.174  0.3426 -0.4160 -0.2571
 9114TIP3    H248758   4.090   6.429   2.233  2.0216  0.0761  0.7284
 9115TIP3   OH248759   4.194   1.556  12.275 -0.0357 -0.5034  0.1167
 9115TIP3    H148760   4.278   1.566  12.231  0.5610 -2.4333  0.7136
 9115TIP3    H248761   4.138   1.622  12.235  1.9119  1.2661  0.1378
 9116TIP3   OH248762   5.207   1.716  16.807 -0.0068 -0.4213  0.1818
 9116TIP3    H148763   5.254   1.707  16.724  1.4877  0.1383  0.9294
 9116TIP3    H248764   5.241   1.646  16.863  2.0608  1.5983  1.6452
 9117TIP3   OH248765   0.475   5.842  16.911 -0.4257 -0.0006  0.2345
 9117TIP3    H148766   0.547   5.851  16.849  0.2037 -3.1270  0.3378
 9117TIP3    H248767   0.406   5.797  16.862 -0.6986 -0.6779  1.1887
 9118TIP3   OH248768   5.634   3.453  10.660 -0.2012 -0.3255  0.1555
 9118TIP3    H148769   5.677   3.375  10.623 -1.4949 -0.6418 -0.7382
 9118TIP3    H248770   5.541   3.441  10.639 -0.3790  1.6549 -0.3627
 9119TIP3   OH248771   2.473   1.323  14.751  1.1004 -0.0281 -0.2935
 9119TIP3    H148772   2.436   1.236  14.765  1.5419 -0.0767  0.6608
 9119TIP3    H248773   2.486   1.329  14.656 -2.1007  0.3341 -0.8265
 9120TIP3   OH248774   5.819   0.022  16.269  0.0092 -0.4017 -0.5457
 9120TIP3    H148775   5.789   0.019  16.178 -0.8738 -1.6278 -0.2396
 9120TIP3    H248776   5.742   0.051  16.318  0.2854 -0.3855 -0.1182
 9121TIP3   OH248777   3.094   2.510   4.971  0.4717  0.6120 -0.1461
 9121TIP3    H148778   3.038   2.561   5.030  0.2770  0.3671 -0.1204
 9121TIP3    H248779   3.096   2.562   4.890 -0.2408  0.3504 -0.3383
 9122TIP3   OH248780   5.521   3.112  13.086 -0.6365 -0.4342 -0.0130
 9122TIP3    H148781   5.440   3.076  13.122 -0.1506 -1.6378 -0.0817
 9122TIP3    H248782   5.497   3.148  13.001 -0.6612 -3.1077 -1.2330
 9123TIP3   OH248783   1.562   1.521   1.615  0.3043 -0.7913 -0.1902
 9123TIP3    H148784   1.554   1.433   1.651 -0.3609 -1.0150 -0.8594
 9123TIP3    H248785   1.594   1.574   1.688  1.2995 -1.6932  0.0563
 9124TIP3   OH248786   2.709   3.419  13.398  0.1739  0.0836  0.6313
 9124TIP3    H148787   2.725   3.455  13.310 -0.6336  0.4751  0.6318
 9124TIP3    H248788   2.671   3.333  13.382  0.1927  0.0818  0.5962
 9125TIP3   OH248789   1.171   3.172   0.573  0.3973 -0.3244  0.4607
 9125TIP3    H148790   1.171   3.268   0.577 -0.7115 -0.3642  2.4089
 9125TIP3    H248791   1.169   3.152   0.479 -1.4779  1.5777  0.0294
 9126TIP3   OH248792   4.080   1.840  12.399 -0.3571 -0.2312  0.1746
 9126TIP3    H148793   4.162   1.832  12.350 -0.7408  2.0757 -1.0222
 9126TIP3    H248794   4.066   1.935  12.406 -3.5533 -0.4883 -0.8659
 9127TIP3   OH248795   3.742   1.498   2.946  0.2692 -0.3655  0.0695
 9127TIP3    H148796   3.836   1.483   2.937  0.1824 -1.2316  0.5321
 9127TIP3    H248797   3.736   1.567   3.013  0.6156  0.8020 -1.0644
 9128TIP3   OH248798   2.527   3.834  15.130 -0.4489  0.6126 -0.2803
 9128TIP3    H148799   2.464   3.788  15.076 -0.0162 -2.6046  1.6758
 9128TIP3    H248800   2.601   3.851  15.072 -0.7967 -0.8830 -1.2083
 9129TIP3   OH248801   4.407   2.439   3.464 -0.1373 -0.0828 -0.2180
 9129TIP3    H148802   4.454   2.417   3.544 -0.9415 -0.1304  0.2540
 9129TIP3    H248803   4.352   2.513   3.488  1.2253  1.3457 -1.3292
 9130TIP3   OH248804   0.111   5.147  15.067  0.0287 -0.5803  0.0622
 9130TIP3    H148805   0.099   5.058  15.099 -0.1299 -0.1800  1.1633
 9130TIP3    H248806   0.192   5.177  15.110  0.5463 -0.4808 -0.9604
 9131TIP3   OH248807   3.822   5.357  14.005 -0.3513 -0.9912  0.1626
 9131TIP3    H148808   3.756   5.354  13.937 -0.9701 -1.3222  0.7618
 9131TIP3    H248809   3.791   5.423  14.067  1.4767  1.2307 -1.1090
 9132TIP3   OH248810   6.305   3.113   1.515 -0.2105 -0.0973  0.5097
 9132TIP3    H148811   6.301   3.169   1.437 -0.8821  0.4880  0.9517
 9132TIP3    H248812   6.398   3.107   1.536 -0.1930  2.0071  1.2550
 9133TIP3   OH248813   6.401   3.112  13.007  0.2212 -0.6300  0.3752
 9133TIP3    H148814   6.387   3.037  13.064  0.5898 -0.4116  0.7640
 9133TIP3    H248815   6.494   3.133  13.018  0.1549 -0.2128  0.1546
 9134TIP3   OH248816   6.580   4.667  15.048 -0.2124 -0.1327 -0.5310
 9134TIP3    H148817   6.565   4.574  15.033  1.1184 -0.4271 -0.1362
 9134TIP3    H248818   6.597   4.704  14.961 -0.5716 -0.2801 -0.6658
 9135TIP3   OH248819   4.814   2.273  12.340 -0.3268  0.2860 -0.5681
 9135TIP3    H148820   4.747   2.284  12.273 -1.6071 -0.6050  0.4976
 9135TIP3    H248821   4.872   2.204  12.307 -0.7446  0.0973 -0.9058
 9136TIP3   OH248822   0.219   0.180  17.072 -0.0966 -0.3452 -0.1590
 9136TIP3    H148823   0.139   0.167  17.020 -0.0460  0.3958 -0.4269
 9136TIP3    H248824   0.267   0.248  17.026  0.2629 -0.1466  0.4969
 9137TIP3   OH248825   2.320   1.286   2.688  0.0438  0.3137 -0.0533
 9137TIP3    H148826   2.230   1.318   2.679 -0.2322 -0.2666  0.5664
 9137TIP3    H248827   2.311   1.201   2.731  0.7574 -0.6989 -1.8035
 9138TIP3   OH248828   5.539   2.168   3.178  0.0472  0.3735 -0.4630
 9138TIP3    H148829   5.539   2.254   3.221  1.0612  1.6483 -2.8091
 9138TIP3    H248830   5.626   2.133   3.194  1.2304  1.8221 -3.0454
 9139TIP3   OH248831   1.036   1.989  15.142 -0.0541  0.2743 -0.5668
 9139TIP3    H148832   1.033   1.921  15.074 -1.6362 -0.5087  0.2351
 9139TIP3    H248833   0.967   2.050  15.117 -0.0184  0.4805 -0.1641
 9140TIP3   OH248834   3.006   0.321  13.579  0.9297 -0.0311 -0.1941
 9140TIP3    H148835   2.985   0.395  13.522  0.6270  0.5591  0.6517
 9140TIP3    H248836   3.092   0.343  13.615  0.0627  0.8531  1.4732
 9141TIP3   OH248837   3.353   1.708  12.615 -0.0102 -0.3926  0.2410
 9141TIP3    H148838   3.394   1.644  12.556  0.9114  0.3110  0.0946
 9141TIP3    H248839   3.273   1.666  12.644 -0.0658 -1.0946 -0.8717
 9142TIP3   OH248840   1.682   6.310  11.294 -0.1500  0.1501  0.0290
 9142TIP3    H148841   1.647   6.290  11.207 -0.8174 -0.4854  0.4283
 9142TIP3    H248842   1.653   6.399  11.312 -1.4213 -0.2842  0.2574
 9143TIP3   OH248843   5.279   5.545  15.159  0.5779 -0.1795 -0.4667
 9143TIP3    H148844   5.266   5.532  15.253 -1.3490  2.6842 -0.1980
 9143TIP3    H248845   5.199   5.511  15.119  0.1728  1.0253 -0.7354
 9144TIP3   OH248846   6.312   3.309   1.310 -0.3092 -1.0184 -0.3085
 9144TIP3    H148847   6.380   3.344   1.252  0.1513 -0.2514  0.6669
 9144TIP3    H248848   6.230   3.329   1.266 -0.0167  0.5587 -0.2035
 9145TIP3   OH248849   2.371   6.060  12.131  0.3665 -0.8308  0.5088
 9145TIP3    H148850   2.316   6.016  12.066  0.5056 -0.0974 -0.1210
 9145TIP3    H248851   2.457   6.066  12.090  0.7430 -1.3115  1.1968
 9146TIP3   OH248852   0.742   0.692  12.178 -0.1857 -0.6273  0.1797
 9146TIP3    H148853   0.773   0.702  12.268 -0.8076 -2.5583  0.6585
 9146TIP3    H248854   0.819   0.709  12.123  0.0444  1.2502  0.9960
 9147TIP3   OH248855   3.449   2.835   5.804  0.3845 -0.1264  0.0619
 9147TIP3    H148856   3.372   2.811   5.855 -0.5760  0.1402 -1.2306
 9147TIP3    H248857   3.415   2.862   5.719  1.6759  2.4124  0.2367
 9148TIP3   OH248858   6.217   0.513   3.532  0.1759  0.1004 -0.2263
 9148TIP3    H148859   6.306   0.509   3.569  0.1147 -0.5226 -0.1301
 9148TIP3    H248860   6.170   0.443   3.577 -0.3983  0.5017 -0.1999
 9149TIP3   OH248861   2.563   2.144   4.695  0.0666 -0.2533  0.6086
 9149TIP3    H148862   2.470   2.162   4.683 -0.0976 -0.2000  1.8085
 9149TIP3    H248863   2.565   2.058   4.736  0.5458 -0.2139  0.6685
 9150TIP3   OH248864   3.350   2.720  13.654  0.1424  0.0779 -0.5035
 9150TIP3    H148865   3.314   2.718  13.565 -0.6824 -0.4140 -0.1732
 9150TIP3    H248866   3.274   2.738  13.710  0.0552 -2.5396  0.3569
 9151TIP3   OH248867   5.227   6.560  14.386  0.3179  0.3189  0.1426
 9151TIP3    H148868   5.178   6.627  14.433  0.4662  0.1415  0.5488
 9151TIP3    H248869   5.189   6.561  14.298 -0.3074  0.2907  0.4054
 9152TIP3   OH248870   1.485   4.405   2.084  0.2184  0.1216 -0.4568
 9152TIP3    H148871   1.446   4.379   2.167 -1.9761 -0.4851 -1.5924
 9152TIP3    H248872   1.524   4.491   2.102 -1.5365  0.7140  0.8571
 9153TIP3   OH248873   1.658   6.755  16.943  0.3392 -0.0730 -0.3041
 9153TIP3    H148874   1.622   6.683  16.994 -0.8202  0.4715 -0.3122
 9153TIP3    H248875   1.665   6.720  16.854 -2.6841  0.5067 -0.9064
 9154TIP3   OH248876   5.076   6.415   2.609 -0.6391 -0.4061 -0.1973
 9154TIP3    H148877   5.165   6.419   2.574 -0.2382 -0.6270  0.7893
 9154TIP3    H248878   5.063   6.500   2.651 -0.9247 -0.3527 -0.3848
 9155TIP3   OH248879   2.828   1.093   5.532  0.2171  0.4163 -0.5876
 9155TIP3    H148880   2.742   1.123   5.502  0.1224  1.2767  0.4754
 9155TIP3    H248881   2.810   1.016   5.586  0.0613  0.8758  0.0218
 9156TIP3   OH248882   3.149   6.699   3.163 -0.3539 -0.3006 -0.6598
 9156TIP3    H148883   3.109   6.653   3.089 -3.5128  0.1849  0.5762
 9156TIP3    H248884   3.099   6.669   3.239  0.6381  1.6252  0.8276
 9157TIP3   OH248885   1.208   6.252   0.596 -0.1105 -0.1323 -0.0052
 9157TIP3    H148886   1.241   6.311   0.528  1.3144 -1.6426 -0.7024
 9157TIP3    H248887   1.137   6.205   0.554 -0.1238 -0.1119 -0.0059
 9158TIP3   OH248888   2.926   6.736   1.010  0.2220  0.5232 -0.0559
 9158TIP3    H148889   3.000   6.696   0.964  1.0694  0.3770  1.3663
 9158TIP3    H248890   2.965   6.776   1.088 -0.7247  3.3273 -0.8923
 9159TIP3   OH248891   1.577   3.992  14.055 -0.1847  0.1727  0.3117
 9159TIP3    H148892   1.602   3.960  13.969 -0.0231  0.2037  0.3476
 9159TIP3    H248893   1.635   4.066  14.071  0.0390 -0.0674  0.6114
 9160TIP3   OH248894   1.221   4.037   0.553  0.6543 -0.0345  0.0458
 9160TIP3    H148895   1.212   3.950   0.594 -0.2221 -0.0164 -0.0865
 9160TIP3    H248896   1.133   4.059   0.524  0.8508  0.9510  0.1593
 9161TIP3   OH248897   3.925   2.646  13.583 -0.4704 -0.3467  0.2209
 9161TIP3    H148898   4.009   2.648  13.536 -0.6268 -1.3646 -0.1411
 9161TIP3    H248899   3.897   2.554  13.577 -0.5358 -0.5082  2.2462
 9162TIP3   OH248900   1.749   1.992  12.328 -0.0988  0.4897 -0.5902
 9162TIP3    H148901   1.706   2.009  12.411  0.4573 -2.5999  0.4631
 9162TIP3    H248902   1.725   1.902  12.306  4.2066 -0.8698 -0.7855
 9163TIP3   OH248903   1.558   5.906  15.734  0.7871  0.2187 -0.2441
 9163TIP3    H148904   1.482   5.856  15.704  0.0339 -0.7185  2.8283
 9163TIP3    H248905   1.547   5.992  15.694 -3.1586  0.8238  1.6317
 9164TIP3   OH248906   5.869   2.256  10.515 -0.0609 -0.3385  0.0521
 9164TIP3    H148907   5.917   2.186  10.559 -0.8350 -1.5389 -0.9497
 9164TIP3    H248908   5.914   2.268  10.432 -0.5052 -0.3325 -0.1941
 9165TIP3   OH248909   2.588   1.883   3.092 -0.7407 -0.0728  0.2846
 9165TIP3    H148910   2.562   1.808   3.038 -0.3583  0.4925 -0.7023
 9165TIP3    H248911   2.546   1.958   3.050 -0.2866  0.3973  0.6650
 9166TIP3   OH248912   3.610   2.420  13.540  0.2462  0.4475  0.0029
 9166TIP3    H148913   3.564   2.339  13.516 -0.4082  0.9894 -0.6612
 9166TIP3    H248914   3.694   2.391  13.574  0.3261 -0.4894 -0.9241
 9167TIP3   OH248915   3.744   0.626  15.174 -0.3210  0.2935  0.5905
 9167TIP3    H148916   3.695   0.551  15.141 -0.2008  0.6325 -0.3840
 9167TIP3    H248917   3.784   0.665  15.096  0.1760  0.9699  1.1695
 9168TIP3   OH248918   3.811   6.368   2.107  0.1795 -0.0939  0.2572
 9168TIP3    H148919   3.801   6.430   2.034  1.1313 -1.2150 -0.8736
 9168TIP3    H248920   3.894   6.393   2.148  0.7960 -0.8723 -0.4843
 9169TIP3   OH248921   3.133   2.768  16.518 -0.6035  0.2503  0.0651
 9169TIP3    H148922   3.136   2.730  16.430  0.3056  2.1237 -0.7765
 9169TIP3    H248923   3.043   2.799  16.528 -0.9317 -0.6825  0.1565
 9170TIP3   OH248924   0.220   0.862   1.517  0.2126 -0.5241  0.3462
 9170TIP3    H148925   0.258   0.823   1.438 -0.1091  0.2476 -0.1990
 9170TIP3    H248926   0.194   0.787   1.570 -2.8150 -1.1703 -1.7982
 9171TIP3   OH248927   1.455   1.548  15.479 -0.0817 -0.3624  0.8309
 9171TIP3    H148928   1.423   1.530  15.391 -1.1141  1.8820  0.6610
 9171TIP3    H248929   1.543   1.583  15.467  0.3174 -1.3485  0.8270
 9172TIP3   OH248930   1.966   0.515   3.498  0.1771 -0.3498  0.1306
 9172TIP3    H148931   1.884   0.560   3.516  0.5936  0.3082  0.4162
 9172TIP3    H248932   1.973   0.449   3.567 -0.7000 -1.2442 -0.6052
 9173TIP3   OH248933   5.191   2.613   3.066 -0.4317 -0.4230 -0.6505
 9173TIP3    H148934   5.255   2.577   3.127 -0.0114 -2.3334 -2.1334
 9173TIP3    H248935   5.245   2.654   2.998 -0.8948  1.8890  0.2760
 9174TIP3   OH248936   1.919   1.486   0.476 -0.0425  0.5011 -0.4950
 9174TIP3    H148937   1.952   1.574   0.458  0.3691  0.4531  0.0021
 9174TIP3    H248938   1.885   1.491   0.565  0.9706 -0.1191 -0.0605
 9175TIP3   OH248939   1.875   4.568  17.103  0.4205  0.3756  0.3190
 9175TIP3    H148940   1.892   4.479  17.134  0.4722  0.5528  0.8013
 9175TIP3    H248941   1.949   4.620  17.135  1.1692  0.3107 -1.2226
 9176TIP3   OH248942   2.091   3.762   2.643 -0.5562 -0.7501  0.1052
 9176TIP3    H148943   2.144   3.812   2.582 -2.5673  0.3901 -0.8123
 9176TIP3    H248944   2.152   3.735   2.712  0.9979  1.2330 -0.4114
 9177TIP3   OH248945   2.130   5.344  15.794  0.1542 -0.7605 -0.0464
 9177TIP3    H148946   2.107   5.437  15.802  0.1701 -0.7714  0.1144
 9177TIP3    H248947   2.144   5.332  15.700  0.7746 -0.4547  0.0007
 9178TIP3   OH248948   1.635   1.594  14.205 -0.4341  0.4852  0.3702
 9178TIP3    H148949   1.673   1.561  14.287  0.3911  1.2241  0.2965
 9178TIP3    H248950   1.541   1.583  14.217 -0.2258 -3.6585 -0.3893
 9179TIP3   OH248951   2.012   5.357   5.270 -0.1305 -0.3233  0.1100
 9179TIP3    H148952   1.940   5.297   5.288 -0.5731  0.2739  0.3608
 9179TIP3    H248953   2.000   5.428   5.332 -0.8868  1.1229 -1.6019
 9180TIP3   OH248954   6.621   4.157  16.793 -0.7243 -0.1774 -0.9823
 9180TIP3    H148955   6.572   4.148  16.712  0.6027  1.0289 -1.9752
 9180TIP3    H248956   6.625   4.252  16.808  1.1678 -0.2209 -0.9154
 9181TIP3   OH248957   0.469   3.857   2.433  0.4200 -0.2677 -0.1870
 9181TIP3    H148958   0.501   3.777   2.392  1.2284  0.7882 -1.7162
 9181TIP3    H248959   0.544   3.917   2.431 -1.2658  2.1088 -3.3977
 9182TIP3   OH248960   1.660   2.731   5.232  0.9274  0.0085  0.4223
 9182TIP3    H148961   1.595   2.748   5.164 -0.8266  0.2460  2.0526
 9182TIP3    H248962   1.674   2.637   5.230 -0.6325 -0.2788  0.9571
 9183TIP3   OH248963   5.803   6.385  16.741  0.2334 -0.1536 -0.6042
 9183TIP3    H148964   5.795   6.375  16.836  0.3012 -2.5780 -0.7795
 9183TIP3    H248965   5.876   6.446  16.729  2.4402 -2.2626  0.9781
 9184TIP3   OH248966   0.116   0.635   1.686  0.3612  0.5585  0.1813
 9184TIP3    H148967   0.030   0.675   1.682  1.1703  2.2678 -1.8208
 9184TIP3    H248968   0.099   0.540   1.688 -1.5177  0.8586  0.1349
 9185TIP3   OH248969   0.954   5.267  12.424 -0.8135  0.0261  0.0841
 9185TIP3    H148970   0.954   5.205  12.351 -0.8930  2.8595 -2.4877
 9185TIP3    H248971   0.875   5.246  12.473 -0.8972 -1.7808 -0.7294
 9186TIP3   OH248972   0.886   2.253   4.069  0.6076 -0.2685  0.0321
 9186TIP3    H148973   0.926   2.221   4.150 -0.9676 -0.3525  0.8118
 9186TIP3    H248974   0.949   2.231   4.000  0.2648 -3.7356  0.6909
 9187TIP3   OH248975   4.124   5.827   4.760  0.2149  0.5002 -0.6665
 9187TIP3    H148976   4.161   5.858   4.843  0.3794  1.1786 -0.9902
 9187TIP3    H248977   4.082   5.904   4.721  0.6631  0.3390 -1.4951
 9188TIP3   OH248978   2.538   2.153  13.325  0.0047 -0.1444  0.2031
 9188TIP3    H148979   2.504   2.068  13.296  1.5259 -2.0716  3.4043
 9188TIP3    H248980   2.576   2.192  13.246 -0.9155 -2.3391 -1.4360
 9189TIP3   OH248981   0.465   2.259  15.055 -0.6989  0.4683 -0.2159
 9189TIP3    H148982   0.396   2.267  15.120 -1.2451 -1.2456 -0.5233
 9189TIP3    H248983   0.541   2.227  15.103 -1.1711 -1.0330 -0.3887
 9190TIP3   OH248984   1.701   4.558  10.983 -0.0601 -0.5764 -0.0228
 9190TIP3    H148985   1.617   4.593  10.952  0.8307  0.4014 -1.4269
 9190TIP3    H248986   1.759   4.565  10.908  1.1762 -1.6603  0.7967
 9191TIP3   OH248987   3.892   1.214  13.171 -0.4167 -0.2372 -0.3143
 9191TIP3    H148988   3.851   1.173  13.247  2.0671 -0.4277  1.0283
 9191TIP3    H248989   3.857   1.167  13.096 -2.4012 -0.5393  0.7405
 9192TIP3   OH248990   4.846   2.131  14.152 -0.5233 -1.0214  0.1096
 9192TIP3    H148991   4.833   2.051  14.203 -2.3435  0.4810  2.2092
 9192TIP3    H248992   4.758   2.167  14.142  0.3013  0.9763 -0.3436
 9193TIP3   OH248993   0.283   1.964   6.147  0.3990 -0.0491  0.0029
 9193TIP3    H148994   0.357   2.025   6.153  0.0066  0.4414 -0.0607
 9193TIP3    H248995   0.238   1.972   6.231 -1.2653  1.8686 -0.9836
 9194TIP3   OH248996   1.286   0.845  15.131  0.0135  0.1898  0.1166
 9194TIP3    H148997   1.356   0.827  15.068  0.0392  0.1764  0.1486
 9194TIP3    H248998   1.331   0.860  15.213 -0.0553 -0.4927  0.2909
 9195TIP3   OH248999   2.229   5.444   4.217 -0.9611 -0.7261  0.2244
 9195TIP3    H149000   2.217   5.504   4.145 -0.1411 -0.8691 -0.0457
 9195TIP3    H249001   2.234   5.357   4.176 -0.1052 -0.7710  0.3934
 9196TIP3   OH249002   1.010   1.560   3.409 -0.2944 -0.0671  0.2304
 9196TIP3    H149003   1.073   1.513   3.355  1.5003  0.3194  1.9038
 9196TIP3    H249004   1.038   1.652   3.405 -1.4466  0.2957  0.0872
 9197TIP3   OH249005   1.966   1.078  12.777  0.2397  0.8825  0.2500
 9197TIP3    H149006   1.898   1.144  12.760  0.9784  1.7374  0.5130
 9197TIP3    H249007   2.046   1.118  12.743  0.4920 -0.4406 -0.7804
 9198TIP3   OH249008   3.996   5.773   5.228  0.2769  0.1645 -0.1793
 9198TIP3    H149009   3.964   5.799   5.315 -0.2914 -0.7725 -0.0989
 9198TIP3    H249010   3.968   5.844   5.170  0.7230  0.8309  0.4071
 9199TIP3   OH249011   6.042   5.548  13.716  0.1208 -0.3617 -0.4861
 9199TIP3    H149012   6.044   5.466  13.666  0.7500 -0.5418 -0.1706
 9199TIP3    H249013   6.038   5.617  13.650 -4.1048 -0.6570 -0.8343
 9200TIP3   OH249014   6.095   5.836  14.837 -0.2765 -0.1096 -0.0522
 9200TIP3    H149015   6.039   5.777  14.887 -1.2406  1.7844  1.2410
 9200TIP3    H249016   6.183   5.800  14.846 -1.2371 -4.0897 -3.4681
 9201TIP3   OH249017   2.958   2.818   0.589 -0.0104 -0.2543  0.2064
 9201TIP3    H149018   3.043   2.851   0.557 -1.4110  1.7088 -1.7914
 9201TIP3    H249019   2.969   2.723   0.593  2.6936  0.0170  1.3751
 9202TIP3   OH249020   4.562   3.268   5.063  1.1788  0.1186  0.0834
 9202TIP3    H149021   4.626   3.209   5.024  1.8364  0.3968  0.7099
 9202TIP3    H249022   4.532   3.222   5.142 -0.1467 -0.4483 -0.7187
 9203TIP3   OH249023   6.538   6.693  12.009  0.4348 -0.2283  0.4021
 9203TIP3    H149024   6.481   6.648  11.946  0.2183 -2.7016  2.2158
 9203TIP3    H249025   6.488   6.770  12.036  0.3297  0.6275 -1.9923
 9204TIP3   OH249026   1.739   4.800   2.596 -0.0278  0.2652 -0.1108
 9204TIP3    H149027   1.719   4.829   2.685  1.0253  0.1899  0.1570
 9204TIP3    H249028   1.806   4.733   2.607 -1.5494 -1.4728 -0.7964
 9205TIP3   OH249029   2.276   1.051  16.024 -0.9367  0.1927 -0.4351
 9205TIP3    H149030   2.300   0.977  16.079 -0.0589  0.0243 -1.0274
 9205TIP3    H249031   2.356   1.073  15.976 -1.4816  0.8104 -1.0989
 9206TIP3   OH249032   1.918   3.555  17.042 -0.6045  0.0199 -0.3188
 9206TIP3    H149033   1.939   3.599  16.959 -1.8110 -0.9573 -1.1965
 9206TIP3    H249034   1.861   3.483  17.016 -1.7378  0.2125  1.4763
 9207TIP3   OH249035   4.905   6.725   5.793 -0.7639 -0.4993 -0.5117
 9207TIP3    H149036   4.890   6.659   5.726 -0.6791 -1.1673  0.1141
 9207TIP3    H249037   5.000   6.729   5.802 -0.7058 -3.6470  2.6121
 9208TIP3   OH249038   6.217   3.960   2.376 -0.5110 -0.1930 -0.0414
 9208TIP3    H149039   6.173   3.879   2.349 -0.1466 -0.5672  0.4743
 9208TIP3    H249040   6.210   3.960   2.471  1.0048 -0.5026  0.0993
 9209TIP3   OH249041   3.827   0.582   5.278 -0.2176 -0.2286 -0.2659
 9209TIP3    H149042   3.751   0.543   5.234 -0.8438 -1.5700  1.8394
 9209TIP3    H249043   3.790   0.645   5.340  0.3319 -0.9037  0.7900
 9210TIP3   OH249044   1.739   1.639  12.733  0.1909  0.3914 -0.0004
 9210TIP3    H149045   1.793   1.580  12.785 -0.7851 -1.0422 -0.5675
 9210TIP3    H249046   1.783   1.642  12.648 -0.7557 -1.0379 -0.5681
 9211TIP3   OH249047   5.721   2.615   1.285  0.4534  0.4043  0.0094
 9211TIP3    H149048   5.775   2.536   1.287 -0.7430 -0.4444  1.8072
 9211TIP3    H249049   5.752   2.667   1.359 -1.3254 -0.2549  1.2840
 9212TIP3   OH249050   5.650   0.151   0.425  0.4284  0.0427  0.6936
 9212TIP3    H149051   5.648   0.056   0.438  0.4590 -0.0647 -0.0513
 9212TIP3    H249052   5.559   0.173   0.403  0.5582  0.0862  0.1994
 9213TIP3   OH249053   3.103   3.031   3.395 -0.7403  0.3985 -0.4844
 9213TIP3    H149054   3.106   3.119   3.359 -2.8987  0.8097  0.1803
 9213TIP3    H249055   3.160   3.034   3.472 -0.0079  0.9099 -1.0352
 9214TIP3   OH249056   4.854   6.713   1.355  0.5353 -0.4244 -0.4410
 9214TIP3    H149057   4.888   6.706   1.266 -0.2126 -0.2755 -0.7474
 9214TIP3    H249058   4.767   6.673   1.351  0.7259 -0.9543  0.3625
 9215TIP3   OH249059   4.019   0.088  15.385  0.4559  0.2501 -0.0961
 9215TIP3    H149060   4.075   0.034  15.330  0.1519 -0.6380  0.4322
 9215TIP3    H249061   3.965   0.025  15.434  0.3116  1.0195  0.7806
 9216TIP3   OH249062   2.421   4.952   4.265 -0.1319 -0.1722 -0.3013
 9216TIP3    H149063   2.458   4.864   4.274  0.7274  0.1825 -0.2295
 9216TIP3    H249064   2.488   5.001   4.217 -1.6415 -0.1954 -2.5655
 9217TIP3   OH249065   2.470   0.334   5.192 -0.0572 -0.0954 -1.0684
 9217TIP3    H149066   2.543   0.280   5.222  0.4099  0.9697 -0.2378
 9217TIP3    H249067   2.507   0.422   5.184 -0.6529  0.0228 -2.9586
 9218TIP3   OH249068   0.506   0.042  14.096 -0.1250 -0.0622  0.3115
 9218TIP3    H149069   0.591   0.026  14.055  0.0221 -0.5637  0.8012
 9218TIP3    H249070   0.442   0.015  14.031  0.0882  0.4097 -0.0988
 9219TIP3   OH249071   5.230   2.647   4.454  0.6874  0.0274  0.7813
 9219TIP3    H149072   5.264   2.559   4.433 -0.0335 -0.0111 -0.2958
 9219TIP3    H249073   5.151   2.630   4.505 -0.4917 -0.0305 -0.9877
 9220TIP3   OH249074   6.516   2.837   1.610 -0.2492  0.2638  0.0053
 9220TIP3    H149075   6.553   2.920   1.578 -0.1833 -0.0901 -0.8767
 9220TIP3    H249076   6.470   2.801   1.533  1.3201 -1.4353 -0.1879
 9221TIP3   OH249077   5.074   1.259  16.200  0.3330 -0.0128 -0.5917
 9221TIP3    H149078   4.993   1.289  16.242  0.2100  1.0451 -1.5144
 9221TIP3    H249079   5.137   1.250  16.271 -0.6000 -0.9007  0.1495
 9222TIP3   OH249080   5.653   6.070  13.718  0.1035  0.0216 -0.2824
 9222TIP3    H149081   5.739   6.049  13.683 -0.4462  0.5236 -2.0472
 9222TIP3    H249082   5.665   6.156  13.760  0.3014  0.5115 -1.2948
 9223TIP3   OH249083   4.605   0.951  15.083  0.1211 -0.1046  0.7197
 9223TIP3    H149084   4.602   1.009  15.159  2.1254  1.2603 -0.1468
 9223TIP3    H249085   4.695   0.959  15.050 -0.0065 -2.4769 -0.4264
 9224TIP3   OH249086   5.962   6.224   4.967  0.0039  0.1210 -0.1546
 9224TIP3    H149087   5.907   6.197   4.893 -0.1780  0.2133 -0.0529
 9224TIP3    H249088   5.917   6.192   5.044  0.8422 -1.1074 -0.1481
 9225TIP3   OH249089   5.716   2.439  13.938 -0.0481  0.8403  0.3911
 9225TIP3    H149090   5.708   2.522  13.984  0.4576 -0.0019  2.1159
 9225TIP3    H249091   5.629   2.399  13.944  0.4127 -0.0042  2.2115
 9226TIP3   OH249092   0.851   1.840  13.772  0.1505 -0.2157  0.7891
 9226TIP3    H149093   0.931   1.787  13.776  0.7113  0.6791  2.3450
 9226TIP3    H249094   0.801   1.803  13.699  2.6723  0.1817 -1.2870
 9227TIP3   OH249095   3.438   1.291  12.673 -0.0837 -0.1676 -0.3922
 9227TIP3    H149096   3.473   1.202  12.669 -1.3693 -0.7052 -0.0111
 9227TIP3    H249097   3.460   1.321  12.762  1.4859  0.4044 -0.9378
 9228TIP3   OH249098   6.778   2.586  11.380  0.4130  0.0879 -0.1026
 9228TIP3    H149099   6.803   2.538  11.458 -0.5137  1.5725  1.1655
 9228TIP3    H249100   6.682   2.579  11.377  0.4259  0.1677 -1.0342
 9229TIP3   OH249101   4.292   3.202   2.096  0.2118 -0.4325 -0.1396
 9229TIP3    H149102   4.256   3.233   2.179 -0.6688 -1.5792 -0.0773
 9229TIP3    H249103   4.387   3.207   2.109  0.0904 -0.4038  0.8590
 9230TIP3   OH249104   3.238   4.638  14.341  0.2792 -0.2203 -0.1351
 9230TIP3    H149105   3.154   4.592  14.339  0.2564 -0.1618 -1.0677
 9230TIP3    H249106   3.247   4.675  14.253  0.3906  1.3881  0.5263
 9231TIP3   OH249107   2.855   0.195  14.055  0.0720 -0.2004 -0.0495
 9231TIP3    H149108   2.814   0.148  14.127 -0.6746  1.7238  0.8396
 9231TIP3    H249109   2.803   0.172  13.978 -0.7605 -0.2055  0.5065
 9232TIP3   OH249110   3.782   2.668  17.077  0.0849 -0.2350 -0.9010
 9232TIP3    H149111   3.809   2.593  17.023  0.0020  0.4004 -1.8607
 9232TIP3    H249112   3.864   2.711  17.101  0.0807  0.2766 -1.7293
 9233TIP3   OH249113   1.876   0.875  13.280 -0.6880  0.2692 -0.2222
 9233TIP3    H149114   1.896   0.798  13.228 -0.3797  0.7480 -0.8199
 9233TIP3    H249115   1.782   0.867  13.300 -0.0910 -1.8411  2.3564
 9234TIP3   OH249116   0.003   2.026  11.460 -0.0024 -0.5320  0.0581
 9234TIP3    H149117   0.008   2.046  11.554 -1.7893 -0.1021  0.1122
 9234TIP3    H249118   0.088   1.991  11.438 -0.5800 -4.1065  2.6599
 9235TIP3   OH249119   6.407   4.002   4.925 -0.2216  1.1484 -0.3259
 9235TIP3    H149120   6.453   4.084   4.941  1.6449 -0.1779  1.7845
 9235TIP3    H249121   6.477   3.939   4.905 -1.5557 -0.0029 -1.5462
 9236TIP3   OH249122   6.748   0.468  16.585 -0.2142 -0.2628  0.1077
 9236TIP3    H149123   6.821   0.523  16.558  0.6396 -0.9292  0.9616
 9236TIP3    H249124   6.751   0.469  16.681 -1.9872  0.5313  0.1970
 9237TIP3   OH249125   4.163   2.058   5.721 -0.0768  0.3588 -0.1568
 9237TIP3    H149126   4.147   1.969   5.688  0.3148  0.7737 -1.5089
 9237TIP3    H249127   4.125   2.057   5.809  1.9402 -1.8546  0.8233
 9238TIP3   OH249128   3.544   3.761  12.217 -0.5629 -0.4500 -0.1301
 9238TIP3    H149129   3.618   3.780  12.274  1.3615 -0.4118 -2.5116
 9238TIP3    H249130   3.526   3.668  12.231 -0.3711 -0.3681  0.7447
 9239TIP3   OH249131   3.208   4.661   5.203 -0.1322  0.6549 -0.3200
 9239TIP3    H149132   3.251   4.611   5.134 -2.2102 -0.1491 -1.1288
 9239TIP3    H249133   3.229   4.752   5.185  1.9479  0.2776 -0.0959
 9240TIP3   OH249134   4.643   5.036  15.765 -0.4607 -0.0572 -0.0340
 9240TIP3    H149135   4.624   4.956  15.716 -1.1492  0.3869 -0.5010
 9240TIP3    H249136   4.629   5.012  15.856 -1.1205 -0.3418 -0.2090
 9241TIP3   OH249137   4.263   4.780  12.209  0.2287  0.2474 -0.4666
 9241TIP3    H149138   4.289   4.700  12.163  1.2469  0.3169 -0.0265
 9241TIP3    H249139   4.321   4.785  12.284 -0.6704  0.7384  0.2174
 9242TIP3   OH249140   4.159   0.611   4.500  0.0217  0.3671 -0.7695
 9242TIP3    H149141   4.111   0.561   4.433 -0.3288  0.1235 -0.3424
 9242TIP3    H249142   4.093   0.670   4.538  0.1008  0.1618 -0.3052
 9243TIP3   OH249143   5.530   1.422   4.830 -0.2679 -0.0547 -0.6585
 9243TIP3    H149144   5.489   1.476   4.897 -2.1887 -1.5195 -0.5978
 9243TIP3    H249145   5.515   1.332   4.858  2.2353 -0.6968 -1.1347
 9244TIP3   OH249146   5.174   4.848   4.576  0.1562  0.3341  0.1135
 9244TIP3    H149147   5.139   4.922   4.625 -0.8135 -0.8195  1.2658
 9244TIP3    H249148   5.167   4.774   4.637  1.3851 -0.6399 -0.8773
 9245TIP3   OH249149   1.929   4.816   4.224  0.1752 -0.2459 -0.3414
 9245TIP3    H149150   1.981   4.815   4.143  1.3855 -0.5861  0.4188
 9245TIP3    H249151   1.959   4.739   4.272 -1.6855 -0.9602 -0.2597
 9246TIP3   OH249152   6.442   1.530   3.653  0.5739  0.4885  0.0592
 9246TIP3    H149153   6.358   1.500   3.686 -0.1145  1.3601 -0.8383
 9246TIP3    H249154   6.497   1.452   3.650 -0.1041 -0.0258  0.9482
 9247TIP3   OH249155   4.264   0.644  10.697 -0.1467 -0.2881  0.1897
 9247TIP3    H149156   4.176   0.671  10.721  0.0509 -1.1083  2.0054
 9247TIP3    H249157   4.297   0.715  10.642 -2.8379 -1.1303 -2.8573
 9248TIP3   OH249158   1.724   6.737  13.348 -0.2068  0.8020 -0.4695
 9248TIP3    H149159   1.772   6.679  13.289 -2.8152  0.3445 -2.3287
 9248TIP3    H249160   1.744   6.705  13.436  1.2724 -0.5702 -1.2563
 9249TIP3   OH249161   4.573   1.188   1.702  0.1190 -0.0128 -0.0807
 9249TIP3    H149162   4.640   1.228   1.646 -1.3447  2.9816  0.0645
 9249TIP3    H249163   4.612   1.186   1.789  0.1295  1.5867 -0.0212
 9250TIP3   OH249164   2.372   0.640   6.231  0.0132  0.0024 -0.0772
 9250TIP3    H149165   2.350   0.716   6.284 -0.0866 -0.8542  1.1479
 9250TIP3    H249166   2.468   0.640   6.228  0.0177  0.0780  0.0614
 9251TIP3   OH249167   5.651   6.042   4.120 -0.1885 -0.4913  0.1166
 9251TIP3    H149168   5.714   6.021   4.051  1.2467  0.0669  1.2213
 9251TIP3    H249169   5.621   5.957   4.153 -1.3177 -0.7785 -1.5091
 9252TIP3   OH249170   0.881   1.542   0.996 -0.1732 -0.5017  0.0273
 9252TIP3    H149171   0.900   1.521   0.904 -0.7647  1.7454 -0.6814
 9252TIP3    H249172   0.949   1.605   1.021 -0.0545 -1.0504  1.1276
 9253TIP3   OH249173   3.991   0.261   5.639 -0.5622 -0.3356 -0.3048
 9253TIP3    H149174   3.952   0.212   5.711  0.4737 -0.6226  0.0694
 9253TIP3    H249175   3.917   0.307   5.599 -0.9280  1.2882  2.0484
 9254TIP3   OH249176   0.332   6.174   3.516 -0.3107 -0.2503 -0.0196
 9254TIP3    H149177   0.351   6.265   3.497  1.5016 -0.6859 -0.4828
 9254TIP3    H249178   0.255   6.176   3.572  0.5724  1.6303  1.1985
 9255TIP3   OH249179   6.471   0.092  14.930  0.7288  0.1395 -0.3006
 9255TIP3    H149180   6.467   0.109  14.836  1.8663 -0.4602 -0.4798
 9255TIP3    H249181   6.438   0.003  14.939  0.7319  0.1548 -0.1444
 9256TIP3   OH249182   2.873   6.425   1.401  0.1022  0.1730  0.5927
 9256TIP3    H149183   2.843   6.383   1.482 -0.4659  0.7459  0.6822
 9256TIP3    H249184   2.968   6.409   1.400  0.0771 -0.0476  1.2456
 9257TIP3   OH249185   0.733   6.597  13.402  0.0887 -0.8187 -0.8347
 9257TIP3    H149186   0.692   6.681  13.422  1.0252 -0.6004  0.3253
 9257TIP3    H249187   0.660   6.540  13.378 -0.6832  0.0426 -0.6055
 9258TIP3   OH249188   1.313   5.578   0.432  0.5086  0.6341  0.2426
 9258TIP3    H149189   1.332   5.641   0.363 -0.2546  0.6380  0.0218
 9258TIP3    H249190   1.396   5.532   0.447  0.3316 -0.4984 -1.8271
 9259TIP3   OH249191   1.738   5.528   3.537 -0.4426  0.1101  0.3246
 9259TIP3    H149192   1.783   5.484   3.609 -1.3838 -0.5930  0.5080
 9259TIP3    H249193   1.687   5.597   3.579 -1.3291 -0.5726  0.4096
 9260TIP3   OH249194   1.163   5.611  11.080  0.4960 -0.0941  0.0598
 9260TIP3    H149195   1.168   5.706  11.070  1.2704 -0.2044 -0.7477
 9260TIP3    H249196   1.244   5.578  11.040  0.8619 -1.0187  1.4856
 9261TIP3   OH249197   1.311   3.103   5.084 -0.1128 -0.5491 -0.2720
 9261TIP3    H149198   1.401   3.127   5.062  0.7740 -0.3852  3.0195
 9261TIP3    H249199   1.284   3.046   5.013  2.5250 -0.4785 -1.4658
 9262TIP3   OH249200   6.185   1.969  16.616  0.2122  0.0633 -0.1545
 9262TIP3    H149201   6.214   1.928  16.698 -2.6902 -1.0167  0.4540
 9262TIP3    H249202   6.123   2.036  16.644 -0.6273 -0.1462 -1.4375
 9263TIP3   OH249203   6.330   6.180  16.039  0.0779  0.4865  0.5505
 9263TIP3    H149204   6.367   6.238  16.105  1.1996 -0.2123  0.5805
 9263TIP3    H249205   6.278   6.236  15.982  0.5022  1.3787  1.0315
 9264TIP3   OH249206   0.852   2.186  10.930 -0.0615 -0.6088 -0.0987
 9264TIP3    H149207   0.892   2.157  10.847 -1.3520  0.8368 -1.2895
 9264TIP3    H249208   0.767   2.221  10.904  0.9601  3.4081  1.2528
 9265TIP3   OH249209   2.215   0.432  13.616  0.2655  0.2816 -0.0047
 9265TIP3    H149210   2.300   0.443  13.572 -0.7250  1.4054 -1.7349
 9265TIP3    H249211   2.158   0.393  13.550 -0.7061 -0.0382  0.9868
 9266TIP3   OH249212   0.838   4.371  14.215 -0.1594 -0.0042  0.1114
 9266TIP3    H149213   0.773   4.304  14.194 -0.4939  0.7095 -1.2575
 9266TIP3    H249214   0.792   4.454  14.200  1.2932  0.5259 -1.7314
 9267TIP3   OH249215   4.918   5.567   4.922 -0.1042  0.6419  0.4882
 9267TIP3    H149216   4.984   5.632   4.898 -0.0546 -0.1790 -1.8989
 9267TIP3    H249217   4.836   5.616   4.923  0.1293  1.0497  0.1894
 9268TIP3   OH249218   6.293   3.449   6.686  0.4718  0.5300 -0.3330
 9268TIP3    H149219   6.226   3.406   6.740 -1.0702  0.6387 -2.0328
 9268TIP3    H249220   6.367   3.388   6.687 -1.4391 -2.0534 -2.2287
 9269TIP3   OH249221   6.464   3.920   1.874  0.0522  0.1883  0.2826
 9269TIP3    H149222   6.370   3.926   1.890 -0.2595 -0.1226 -1.2866
 9269TIP3    H249223   6.492   4.011   1.862 -0.3946  0.1835 -0.9585
 9270TIP3   OH249224   6.467   0.817   2.527 -0.6048  0.3056  0.9057
 9270TIP3    H149225   6.561   0.798   2.520 -0.6776  0.5865 -1.6749
 9270TIP3    H249226   6.451   0.825   2.621  1.3887 -2.4658  1.6083
 9271TIP3   OH249227   3.930   2.115   1.598 -0.4121  0.1851 -0.3151
 9271TIP3    H149228   3.844   2.139   1.565 -1.2317 -0.2921  1.3467
 9271TIP3    H249229   3.992   2.160   1.541 -1.7661  0.7556 -1.3669
 9272TIP3   OH249230   4.634   5.552  10.226  0.2570 -0.2107 -0.2130
 9272TIP3    H149231   4.680   5.504  10.295 -0.5874 -1.3760 -0.4473
 9272TIP3    H249232   4.550   5.575  10.265  1.4394  3.2009  0.7422
 9273TIP3   OH249233   1.797   0.162   5.636 -0.2073 -0.2066  0.0647
 9273TIP3    H149234   1.809   0.201   5.550  0.6287 -0.6799 -0.0500
 9273TIP3    H249235   1.733   0.092   5.622 -0.8656  0.3921  0.0480
 9274TIP3   OH249236   6.377   3.167   3.151  0.4017  0.6385  0.1036
 9274TIP3    H149237   6.432   3.103   3.106  0.6232  0.9593 -0.0849
 9274TIP3    H249238   6.424   3.187   3.232  0.9898  1.5521 -0.4560
 9275TIP3   OH249239   2.209   0.701  11.755  0.2800  0.1418  0.2494
 9275TIP3    H149240   2.217   0.790  11.720  1.0320  0.5528  1.3907
 9275TIP3    H249241   2.281   0.694  11.819  0.1728 -1.2537  0.2480
 9276TIP3   OH249242   1.621   3.010  13.423  0.1783  0.0797  0.2264
 9276TIP3    H149243   1.559   2.972  13.361  0.1516 -0.7912  0.7715
 9276TIP3    H249244   1.692   2.946  13.430  0.4734  0.4402  0.6402
 9277TIP3   OH249245   3.065   2.087  15.176  0.2626  0.0383  0.5581
 9277TIP3    H149246   3.047   2.179  15.194 -4.9616 -0.6227  0.3295
 9277TIP3    H249247   3.062   2.081  15.080 -0.6999 -0.4630  0.6028
 9278TIP3   OH249248   5.985   6.376  11.018  0.0906 -0.2211 -0.0465
 9278TIP3    H149249   5.907   6.332  10.986  0.2616 -1.0256  0.6152
 9278TIP3    H249250   6.033   6.309  11.067  0.7478  0.4937  0.3230
 9279TIP3   OH249251   1.410   5.072  14.649 -1.5546 -0.1927 -0.0291
 9279TIP3    H149252   1.461   5.010  14.702 -1.4670  0.3999  0.5984
 9279TIP3    H249253   1.381   5.021  14.573  2.1739  0.0401 -1.8478
 9280TIP3   OH249254   3.412   0.996  14.038  0.3675 -0.3627 -0.3115
 9280TIP3    H149255   3.324   1.011  14.071  0.6517  0.3095  0.1748
 9280TIP3    H249256   3.425   1.064  13.973  0.0142 -1.3458 -1.4476
 9281TIP3   OH249257   5.350   1.348   0.067 -0.1392 -0.0909 -0.3404
 9281TIP3    H149258   5.335   1.285  -0.004 -1.8521  0.1456 -0.2416
 9281TIP3    H249259   5.408   1.414   0.029  0.2630 -0.8082 -0.9998
 9282TIP3   OH249260   2.639   3.933   2.093 -0.1562 -0.0482 -0.0111
 9282TIP3    H149261   2.543   3.933   2.093 -0.1840  1.4472  0.9754
 9282TIP3    H249262   2.663   3.996   2.025  0.2417 -2.4372 -2.2782
 9283TIP3   OH249263   4.774   4.102  15.234  0.4645 -0.1664 -0.0388
 9283TIP3    H149264   4.725   4.179  15.261  0.8333  0.2502 -0.5466
 9283TIP3    H249265   4.795   4.058  15.317 -2.0840 -1.2182  0.1184
 9284TIP3   OH249266   0.491   0.480  12.165 -0.2682 -0.1168 -0.4241
 9284TIP3    H149267   0.431   0.416  12.202 -0.4083 -0.4164 -1.1511
 9284TIP3    H249268   0.460   0.493  12.075 -0.0540  0.7341 -0.3785
 9285TIP3   OH249269   3.123   1.096   0.818  0.0215 -0.6436  0.4774
 9285TIP3    H149270   3.186   1.096   0.747 -0.3958  2.4830 -0.0684
 9285TIP3    H249271   3.060   1.028   0.795 -0.2880  0.4752 -2.3790
 9286TIP3   OH249272   3.053   1.277   6.025  0.0492  0.4728  0.7938
 9286TIP3    H149273   3.078   1.191   6.058 -2.1843 -0.6155 -0.1164
 9286TIP3    H249274   3.134   1.312   5.986  0.7764 -1.7276  0.1474
 9287TIP3   OH249275   5.324   1.801  11.840  0.2358 -0.2370 -0.2560
 9287TIP3    H149276   5.373   1.835  11.765  0.6470 -0.0827  0.0821
 9287TIP3    H249277   5.232   1.815  11.817  0.3690  0.0758 -0.6030
 9288TIP3   OH249278   1.499   5.192   1.269  0.6322  0.3867 -0.8869
 9288TIP3    H149279   1.533   5.184   1.358  0.0840 -1.1075 -0.7796
 9288TIP3    H249280   1.434   5.122   1.262  0.5650  0.5701 -2.4250
 9289TIP3   OH249281   4.850   2.374  15.421 -0.4429  0.5947 -0.2179
 9289TIP3    H149282   4.904   2.436  15.371 -0.7845  0.1370 -1.1889
 9289TIP3    H249283   4.788   2.340  15.357 -1.4775  0.6350  0.7339
 9290TIP3   OH249284   0.892   2.112  13.638  0.2844  0.5984 -0.3641
 9290TIP3    H149285   0.984   2.136  13.652  1.1442 -2.2727 -0.5229
 9290TIP3    H249286   0.883   2.027  13.682 -2.8983  1.7313  1.4754
 9291TIP3   OH249287   6.269   6.709   5.705  0.4143 -0.2599 -0.6739
 9291TIP3    H149288   6.309   6.726   5.790 -0.5349 -0.1872 -0.2318
 9291TIP3    H249289   6.315   6.632   5.672  2.1811  0.8660 -1.0224
 9292TIP3   OH249290   1.144   4.586   1.393  0.4208 -0.3653  0.2178
 9292TIP3    H149291   1.193   4.523   1.340  1.2484 -1.2642  1.9714
 9292TIP3    H249292   1.200   4.663   1.395  0.0778 -0.0780 -0.7325
 9293TIP3   OH249293   5.672   0.517  16.447  0.1127  0.2513 -0.7615
 9293TIP3    H149294   5.751   0.473  16.479  0.7125  1.5233 -0.4079
 9293TIP3    H249295   5.618   0.530  16.525 -1.7974 -3.0708 -1.3621
 9294TIP3   OH249296   5.893   0.481  13.147 -0.8553  0.3083  0.0747
 9294TIP3    H149297   5.856   0.393  13.142  0.8853 -0.4775  0.0442
 9294TIP3    H249298   5.835   0.535  13.094 -2.1833 -0.7391  0.4227
 9295TIP3   OH249299   4.676   1.574  11.292  0.4533  0.2366  0.3030
 9295TIP3    H149300   4.627   1.629  11.230 -0.4709 -1.2332 -0.3285
 9295TIP3    H249301   4.708   1.635  11.358 -3.6713  1.1983  1.7429
 9296TIP3   OH249302   0.188   2.695  12.071  0.3378  0.2130  0.4464
 9296TIP3    H149303   0.122   2.759  12.045 -1.0648 -0.7905  1.4352
 9296TIP3    H249304   0.245   2.687  11.994 -1.1947  0.4574 -0.7523
 9297TIP3   OH249305   4.587   0.466   0.687 -0.6482  0.4517  0.2132
 9297TIP3    H149306   4.650   0.484   0.757  0.6826 -4.1335  0.5337
 9297TIP3    H249307   4.641   0.442   0.612 -1.8107 -2.9205  0.2854
 9298TIP3   OH249308   3.068   6.339  16.880 -0.1411  0.0744  0.3259
 9298TIP3    H149309   3.095   6.375  16.964 -2.8699  1.5908  0.6734
 9298TIP3    H249310   2.988   6.291  16.899 -0.6124  0.1317 -1.3377
 9299TIP3   OH249311   1.674   2.153  13.159 -0.0133  0.3351  0.4075
 9299TIP3    H149312   1.721   2.169  13.241  2.2117 -0.7521 -0.5722
 9299TIP3    H249313   1.655   2.059  13.160 -0.3172  0.3894 -0.1496
 9300TIP3   OH249314   1.190   6.173  13.845 -0.3621 -0.4465 -0.1644
 9300TIP3    H149315   1.144   6.254  13.822  1.1864  0.3233 -0.6545
 9300TIP3    H249316   1.188   6.170  13.941 -1.5094 -0.4974 -0.1738
 9301TIP3   OH249317   2.578   4.902  12.864  0.2401 -0.4483  0.2881
 9301TIP3    H149318   2.513   4.878  12.929  0.3412 -0.1070  0.5172
 9301TIP3    H249319   2.538   4.975  12.816 -0.3147 -1.4221 -0.7933
 9302TIP3   OH249320   2.672   4.951  16.487  0.3155  0.1750  0.3651
 9302TIP3    H149321   2.618   4.918  16.558  1.1490  2.1129  2.0067
 9302TIP3    H249322   2.702   5.037  16.518 -0.6081  1.8835 -2.9835
 9303TIP3   OH249323   6.510   2.757  12.147  0.5193  0.3097  1.1233
 9303TIP3    H149324   6.492   2.693  12.216 -0.4099  0.3865  0.9577
 9303TIP3    H249325   6.582   2.810  12.181  0.0638  0.3521  2.0286
 9304TIP3   OH249326   1.376   5.203  11.500  0.6308 -0.2074 -0.0790
 9304TIP3    H149327   1.329   5.137  11.449  1.5907 -0.9226 -0.0769
 9304TIP3    H249328   1.466   5.171  11.502  0.5783 -0.3307  2.2891
 9305TIP3   OH249329   3.955   1.016  16.992 -0.2841 -0.3635 -0.0442
 9305TIP3    H149330   3.920   1.067  16.919  0.2842 -0.3837 -0.3419
 9305TIP3    H249331   4.032   1.066  17.021  0.7356 -1.3993 -0.8363
 9306TIP3   OH249332   1.455   2.907  12.322  0.2526 -0.5519  0.6025
 9306TIP3    H149333   1.438   3.001  12.316  1.5032 -0.3366  0.1668
 9306TIP3    H249334   1.500   2.896  12.405  0.9481 -0.6212  0.2221
 9307TIP3   OH249335   4.084   1.988  16.948  0.1568  0.0286  0.0682
 9307TIP3    H149336   4.087   1.973  16.854  1.6150  0.6129 -0.0034
 9307TIP3    H249337   4.172   2.017  16.971 -1.0298  3.3840  1.0173
 9308TIP3   OH249338   0.805   2.980  14.346  0.4450 -0.3504 -0.5497
 9308TIP3    H149339   0.714   2.977  14.315  0.0680  0.7633  0.3963
 9308TIP3    H249340   0.850   3.038  14.283  0.0016  0.7751  0.1367
 9309TIP3   OH249341   5.535   0.826   5.023  0.1314  0.6487  0.2745
 9309TIP3    H149342   5.572   0.909   4.995  0.2612  0.5630  0.1881
 9309TIP3    H249343   5.549   0.767   4.949  1.4094  0.1397  0.8829
 9310TIP3   OH249344   5.844   0.905  14.516  0.0273  0.8437 -0.3930
 9310TIP3    H149345   5.898   0.844  14.566  1.3679  0.1418 -2.5477
 9310TIP3    H249346   5.784   0.849  14.467 -0.6731  1.4456 -0.2333
 9311TIP3   OH249347   0.830   0.545   2.475  0.0547  0.2880 -0.4669
 9311TIP3    H149348   0.891   0.606   2.515 -1.4391  0.9430  0.9384
 9311TIP3    H249349   0.821   0.575   2.384  0.6369  1.1051 -0.2585
 9312TIP3   OH249350   5.476   2.650  12.206 -0.2214  0.0536 -0.2508
 9312TIP3    H149351   5.464   2.578  12.268 -0.7206  0.3961  0.0607
 9312TIP3    H249352   5.433   2.725  12.248 -0.3903  0.3390 -0.9171
 9313TIP3   OH249353   3.105   4.823   3.921  0.4149 -0.1094 -0.4058
 9313TIP3    H149354   3.146   4.813   3.835  2.4601 -0.8318  0.5862
 9313TIP3    H249355   3.062   4.739   3.936  1.3707 -0.5614 -0.1052
 9314TIP3   OH249356   1.615   5.895  16.434  0.1845  0.3888 -0.1277
 9314TIP3    H149357   1.569   5.861  16.510 -0.3018 -0.5735 -0.8318
 9314TIP3    H249358   1.554   5.882  16.361  0.7348  1.0670 -0.7248
 9315TIP3   OH249359   5.342   0.938  15.186 -0.4004  0.0618  0.3900
 9315TIP3    H149360   5.400   1.007  15.217 -0.7448  0.1281  0.9014
 9315TIP3    H249361   5.366   0.926  15.094  2.0380 -1.5541  1.1376
 9316TIP3   OH249362   3.972   4.760  14.303 -0.1949 -0.2195  0.2691
 9316TIP3    H149363   4.017   4.838  14.269  0.7177 -0.7237  0.2836
 9316TIP3    H249364   3.884   4.765  14.265  0.3018  0.0561 -0.9227
 9317TIP3   OH249365   3.490   3.502  12.301 -0.4387 -0.3228 -0.6750
 9317TIP3    H149366   3.403   3.466  12.317 -0.1647 -0.7786 -0.1617
 9317TIP3    H249367   3.536   3.490  12.384  0.4775 -1.1418 -1.2784
 9318TIP3   OH249368   2.185   0.085   2.604 -0.7669 -0.1044 -0.3242
 9318TIP3    H149369   2.098   0.045   2.614 -0.3623 -0.4858  2.0655
 9318TIP3    H249370   2.173   0.177   2.627 -0.2885 -0.4649  1.4608
 9319TIP3   OH249371   1.426   1.002  16.896  0.2004  0.4081  0.3344
 9319TIP3    H149372   1.443   1.090  16.863  0.4396  0.7068  1.2344
 9319TIP3    H249373   1.508   0.975  16.937  0.3464 -0.5157 -0.5306
 9320TIP3   OH249374   4.713   1.905   5.828  0.0923  0.1434 -0.8371
 9320TIP3    H149375   4.713   1.902   5.924  1.8011 -0.3096 -0.8218
 9320TIP3    H249376   4.652   1.975   5.807 -1.6863 -0.9054  0.5150
 9321TIP3   OH249377   5.581   5.642  15.317 -0.0430  0.4979  0.6063
 9321TIP3    H149378   5.653   5.674  15.263 -0.0835  1.4680  1.0989
 9321TIP3    H249379   5.534   5.580  15.261  0.5736  0.6294 -0.0687
 9322TIP3   OH249380   3.715   5.030  11.085 -0.0020 -0.0901  0.1793
 9322TIP3    H149381   3.641   5.017  11.026  0.4809 -0.3479 -0.3865
 9322TIP3    H249382   3.676   5.039  11.172 -0.6638 -0.6287 -0.0566
 9323TIP3   OH249383   1.167   1.458  14.364  0.1056 -0.3765 -0.2282
 9323TIP3    H149384   1.200   1.369  14.371 -2.4028 -1.3958 -0.3998
 9323TIP3    H249385   1.150   1.484  14.455  0.3996 -0.2420 -0.2106
 9324TIP3   OH249386   0.125   3.985   1.405  0.1096  0.2996  0.0134
 9324TIP3    H149387   0.200   3.967   1.350 -0.4627  1.7393 -1.3190
 9324TIP3    H249388   0.052   3.994   1.344 -1.4040 -2.0018  1.3269
 9325TIP3   OH249389   6.758   1.960   1.015  0.7009 -0.0604  0.2806
 9325TIP3    H149390   6.716   1.877   1.037  0.2876 -0.1607 -0.8323
 9325TIP3    H249391   6.805   1.985   1.095 -0.3926 -0.6031  1.1197
 9326TIP3   OH249392   3.958   3.300   1.040  0.2313  0.2121 -0.2316
 9326TIP3    H149393   3.894   3.241   1.001 -0.3959  1.0769 -0.5520
 9326TIP3    H249394   4.039   3.250   1.042 -0.0875 -0.3667 -1.2582
 9327TIP3   OH249395   1.718   0.578   1.670 -0.7917 -0.2671  0.9497
 9327TIP3    H149396   1.664   0.515   1.623  0.9341 -1.1940  0.0897
 9327TIP3    H249397   1.798   0.530   1.691 -0.4141  0.9481  2.4518
 9328TIP3   OH249398   2.998   0.843   0.796  0.0784 -0.1041 -0.4724
 9328TIP3    H149399   3.041   0.807   0.873 -0.9359  0.0980  0.2044
 9328TIP3    H249400   2.923   0.786   0.781 -0.2109  0.3547 -0.7975
 9329TIP3   OH249401   0.049   1.439   6.464  0.2975 -0.3549  0.3401
 9329TIP3    H149402  -0.005   1.514   6.442  0.1772 -0.0720  1.5148
 9329TIP3    H249403   0.131   1.477   6.496  1.4465 -0.7742 -1.8833
 9330TIP3   OH249404   0.577   1.286   1.818 -0.4004  0.2061 -0.0332
 9330TIP3    H149405   0.526   1.367   1.830 -0.6416  0.0501  0.0134
 9330TIP3    H249406   0.576   1.271   1.723 -1.2184 -0.2811  0.0358
 9331TIP3   OH249407   4.535   6.319   5.139  0.0899  0.4299 -0.3671
 9331TIP3    H149408   4.571   6.376   5.071  2.2341 -0.5911 -0.1520
 9331TIP3    H249409   4.538   6.372   5.219  0.0713  0.7210 -0.5557
 9332TIP3   OH249410   1.778   2.840   5.455  0.6396 -0.0105 -0.2783
 9332TIP3    H149411   1.726   2.803   5.384 -1.2041 -0.0445  1.0267
 9332TIP3    H249412   1.821   2.765   5.496  0.2468 -0.2156 -0.2357
 9333TIP3   OH249413   0.296   1.048  15.085  0.0550 -0.8015  0.2358
 9333TIP3    H149414   0.338   0.981  15.032 -1.9035 -0.5571 -1.7625
 9333TIP3    H249415   0.322   1.027  15.175  0.6460 -3.3721 -0.4529
 9334TIP3   OH249416   5.375   3.167   2.720  0.1279 -0.0449  0.3415
 9334TIP3    H149417   5.359   3.251   2.676  1.0600  0.0053  0.0767
 9334TIP3    H249418   5.299   3.114   2.698 -0.1305  0.4931 -0.0967
 9335TIP3   OH249419   4.576   2.085  13.799  0.4469  0.2539 -0.0782
 9335TIP3    H149420   4.664   2.123  13.797  1.0718 -0.9866  1.6571
 9335TIP3    H249421   4.555   2.069  13.707  1.7384  1.1954 -0.5757
 9336TIP3   OH249422   1.943   4.792  16.873 -0.1668  0.2223 -0.0105
 9336TIP3    H149423   1.932   4.844  16.953  1.7883  2.9699 -1.3604
 9336TIP3    H249424   1.904   4.846  16.804 -3.1677 -2.7524 -0.8350
 9337TIP3   OH249425   6.492   1.479  12.363  0.2822 -0.2584  0.6498
 9337TIP3    H149426   6.529   1.562  12.393  1.3657 -0.6595  0.4799
 9337TIP3    H249427   6.567   1.419  12.358  0.0230 -0.5026 -1.8800
 9338TIP3   OH249428   2.505   5.677   0.453 -0.4564  0.0224  0.2153
 9338TIP3    H149429   2.444   5.607   0.430 -1.8391  1.2879 -0.1207
 9338TIP3    H249430   2.492   5.690   0.547 -2.4842  1.8530 -0.2546
 9339TIP3   OH249431   6.077   2.535   5.957 -0.2380 -0.9355 -0.0358
 9339TIP3    H149432   6.105   2.506   5.871  3.1924  0.2780  0.5253
 9339TIP3    H249433   6.064   2.630   5.948  0.8180 -0.6800  0.8805
 9340TIP3   OH249434   0.629   2.137  15.318  0.0659 -0.3424  0.4436
 9340TIP3    H149435   0.551   2.102  15.360  0.4291 -1.2358  0.3961
 9340TIP3    H249436   0.683   2.170  15.390  0.8867 -2.2684  0.7647
 9341TIP3   OH249437   1.655   5.188  12.802 -0.0934 -0.0251 -0.0565
 9341TIP3    H149438   1.706   5.135  12.864 -0.9688 -1.6260 -0.6639
 9341TIP3    H249439   1.693   5.276  12.810  1.6737 -0.8018  0.6880
 9342TIP3   OH249440   4.407   3.840  16.668 -0.0598 -0.4104 -0.2017
 9342TIP3    H149441   4.492   3.796  16.666  0.0880 -0.1469 -2.8019
 9342TIP3    H249442   4.346   3.778  16.627 -0.5305  0.4459 -0.8418
 9343TIP3   OH249443   1.464   6.704  11.505  0.9551  0.0266  0.1181
 9343TIP3    H149444   1.383   6.718  11.553  0.0803  1.6313 -1.6709
 9343TIP3    H249445   1.445   6.629  11.448  1.7646 -1.4434  1.6958
 9344TIP3   OH249446   5.133   5.682  14.849  0.5238  0.1363 -0.3148
 9344TIP3    H149447   5.166   5.601  14.889 -0.6512  0.2994  1.0582
 9344TIP3    H249448   5.051   5.657  14.807  0.3128  0.5542 -0.1568
 9345TIP3   OH249449   5.837   4.907   3.166  0.0180  0.5045 -0.0940
 9345TIP3    H149450   5.783   4.963   3.110  0.5820  1.1268 -0.0212
 9345TIP3    H249451   5.800   4.819   3.154 -0.9151  0.8946 -0.1555
 9346TIP3   OH249452   4.697   5.966   0.843 -0.4090  0.9163 -0.3646
 9346TIP3    H149453   4.706   5.942   0.751  0.2008  1.0845 -0.3531
 9346TIP3    H249454   4.607   5.941   0.866 -0.8145  1.5387 -1.1972
 9347TIP3   OH249455   5.023   2.383   3.146 -0.4410 -0.1001 -0.9857
 9347TIP3    H149456   5.050   2.473   3.129 -1.9271  0.8780  1.2944
 9347TIP3    H249457   5.087   2.351   3.210 -0.1349 -0.5395 -1.5087
 9348TIP3   OH249458   1.945   0.955   4.331  0.6999 -0.2225  0.2079
 9348TIP3    H149459   1.937   1.006   4.412  0.2983 -1.0867  0.7188
 9348TIP3    H249460   2.018   0.896   4.347  1.4714  0.4856 -0.5613
 9349TIP3   OH249461   3.956   3.250  10.611 -0.2241 -0.5474  0.5141
 9349TIP3    H149462   3.970   3.341  10.584  0.8216 -0.3768  1.5251
 9349TIP3    H249463   3.886   3.255  10.676 -0.0330 -0.4280  0.7143
 9350TIP3   OH249464   2.422   6.183   4.534  0.9380 -0.3794  0.0198
 9350TIP3    H149465   2.346   6.134   4.504  1.4899  0.0053 -2.1665
 9350TIP3    H249466   2.451   6.137   4.613 -1.0865 -0.9605  0.4829
 9351TIP3   OH249467   0.233   0.824  11.863 -0.5898 -0.3412  0.4289
 9351TIP3    H149468   0.199   0.736  11.878  0.2865 -0.6378  0.7821
 9351TIP3    H249469   0.260   0.854  11.950  0.2515 -0.2243  0.1375
 9352TIP3   OH249470   3.049   5.415   2.001  0.3925  0.1006  0.0755
 9352TIP3    H149471   3.018   5.324   2.004 -1.4093  0.6862  0.2998
 9352TIP3    H249472   3.059   5.434   1.908 -0.0567 -0.0743 -0.0127
 9353TIP3   OH249473   1.559   4.192  13.505 -0.2464  0.4636 -0.2823
 9353TIP3    H149474   1.629   4.150  13.555 -1.0390 -1.6404 -0.8804
 9353TIP3    H249475   1.542   4.133  13.433 -2.4494  1.0896 -0.3390
 9354TIP3   OH249476   2.774   0.219  16.934 -0.3834 -0.3603  0.0959
 9354TIP3    H149477   2.691   0.172  16.925 -1.0261  0.9763 -1.4050
 9354TIP3    H249478   2.817   0.208  16.849 -0.3108  1.2884 -0.0958
 9355TIP3   OH249479   3.281   2.287   3.188 -0.1371  0.2080 -0.0528
 9355TIP3    H149480   3.204   2.266   3.135  0.7957  0.4227 -1.5750
 9355TIP3    H249481   3.260   2.369   3.231 -0.5610  0.5565 -0.8998
 9356TIP3   OH249482   4.264   5.933  13.257  0.0238  0.0936  0.0452
 9356TIP3    H149483   4.308   5.999  13.204  1.6984 -2.6506 -2.2771
 9356TIP3    H249484   4.175   5.930  13.223  0.8273 -0.9842 -2.1581
 9357TIP3   OH249485   4.198   3.462  17.133  0.1179  0.1772  0.4432
 9357TIP3    H149486   4.112   3.431  17.161  0.7708 -0.2540  2.1076
 9357TIP3    H249487   4.180   3.537  17.077 -1.3774 -0.9424 -0.6655
 9358TIP3   OH249488   6.789   0.740   4.191  0.1724 -0.2824  0.1981
 9358TIP3    H149489   6.804   0.776   4.104  3.6014  0.1431  0.8019
 9358TIP3    H249490   6.813   0.810   4.251  2.1576 -1.8608  1.4029
 9359TIP3   OH249491   2.840   5.412   2.886  0.1062 -0.3045  0.0190
 9359TIP3    H149492   2.928   5.382   2.908  0.2537  1.2814  1.7495
 9359TIP3    H249493   2.838   5.504   2.910 -1.8918 -0.1737 -0.4233
 9360TIP3   OH249494   2.237   6.627   2.081  0.2296 -0.0370  0.0782
 9360TIP3    H149495   2.305   6.687   2.112  0.3484  0.6862 -1.5174
 9360TIP3    H249496   2.226   6.648   1.989 -1.0324 -1.2471 -0.0807
 9361TIP3   OH249497   4.863   5.081  12.130 -0.3824  0.4954 -0.9979
 9361TIP3    H149498   4.879   5.129  12.049  2.4117  1.1144 -0.1862
 9361TIP3    H249499   4.892   5.140  12.199 -1.2160 -0.6137  0.3475
 9362TIP3   OH249500   1.474   0.241   5.109  0.3949  0.1484 -0.4150
 9362TIP3    H149501   1.536   0.221   5.179 -0.3502 -1.5440 -0.1776
 9362TIP3    H249502   1.521   0.222   5.028  0.8581  0.9174 -0.3290
 9363TIP3   OH249503   1.167   2.878   1.709  0.1293 -0.6558 -0.1769
 9363TIP3    H149504   1.146   2.927   1.788  1.1091 -0.9633  0.2872
 9363TIP3    H249505   1.082   2.854   1.672 -0.3582  0.9924 -0.1792
 9364TIP3   OH249506   5.167   0.466  10.887 -0.2035 -0.0906  0.3105
 9364TIP3    H149507   5.156   0.423  10.802  0.1930  1.9419 -0.8284
 9364TIP3    H249508   5.078   0.486  10.915 -0.2885  2.4581 -1.4385
 9365TIP3   OH249509   4.166   3.414  11.368  0.7694  0.2561 -0.1168
 9365TIP3    H149510   4.245   3.464  11.388  0.9632 -0.1555  0.1742
 9365TIP3    H249511   4.199   3.328  11.340  0.4106 -0.4624  1.5554
 9366TIP3   OH249512   3.528   6.715  14.104  0.6659  0.3730  0.1227
 9366TIP3    H149513   3.618   6.688  14.086  1.1052  1.3345  0.7551
 9366TIP3    H249514   3.490   6.732  14.018  1.6149  1.5410 -0.0900
 9367TIP3   OH249515   2.181   6.594  14.635  0.5599 -0.1444 -0.0968
 9367TIP3    H149516   2.192   6.641  14.552  1.1190 -0.3172 -0.1236
 9367TIP3    H249517   2.171   6.663  14.700 -1.0393 -0.0122 -0.4514
 9368TIP3   OH249518   2.603   1.699   5.158  0.1033  0.5905 -0.1809
 9368TIP3    H149519   2.611   1.673   5.066  1.9287 -0.3550  0.2011
 9368TIP3    H249520   2.519   1.744   5.163 -1.1232 -1.3533 -1.8404
 9369TIP3   OH249521   3.081   5.597   5.709  0.0002 -0.9600  0.2044
 9369TIP3    H149522   3.041   5.510   5.717  1.0522 -1.3721  1.4046
 9369TIP3    H249523   3.014   5.651   5.668 -1.1550 -2.0161  0.6458
 9370TIP3   OH249524   3.907   3.533  11.902 -0.5046  0.2634  0.3001
 9370TIP3    H149525   3.910   3.613  11.955 -1.0178  0.6659 -0.2719
 9370TIP3    H249526   3.998   3.512  11.885 -0.3555  0.4982  0.7949
 9371TIP3   OH249527   4.111   4.625   1.619  0.3129  0.3217 -0.1507
 9371TIP3    H149528   4.138   4.534   1.634 -1.1528 -0.1723 -0.3943
 9371TIP3    H249529   4.192   4.670   1.596  1.4050 -0.5082  1.7848
 9372TIP3   OH249530   1.197   0.319  13.688  0.2837  0.3683  0.0614
 9372TIP3    H149531   1.260   0.287  13.623 -1.5428  0.7308 -2.0383
 9372TIP3    H249532   1.200   0.414  13.679 -0.5457  0.3880 -0.0835
 9373TIP3   OH249533   5.675   0.014   4.402  0.2369  0.0488 -0.2603
 9373TIP3    H149534   5.745   0.050   4.457  0.7913 -1.5514  0.1405
 9373TIP3    H249535   5.721  -0.036   4.334 -0.4918  0.3284 -0.9742
 9374TIP3   OH249536   3.219   4.193   5.489 -0.1537  0.3656  0.2159
 9374TIP3    H149537   3.157   4.175   5.418  0.9169  0.8639 -0.8796
 9374TIP3    H249538   3.216   4.288   5.498  0.5804  0.4094  0.0208
 9375TIP3   OH249539   4.633   3.355  11.066  0.2146 -0.0437  0.1677
 9375TIP3    H149540   4.698   3.416  11.101 -0.8560  2.0174 -1.2000
 9375TIP3    H249541   4.549   3.401  11.076 -0.7315 -1.5558 -0.3848
 9376TIP3   OH249542   0.205   6.192   5.574 -0.4397  0.3749  0.3445
 9376TIP3    H149543   0.191   6.200   5.480 -0.5970  3.4857  0.5080
 9376TIP3    H249544   0.195   6.282   5.607 -0.4988 -0.6206  3.3507
 9377TIP3   OH249545   0.036   3.393  15.073 -0.3199  0.3915  0.3879
 9377TIP3    H149546   0.030   3.360  15.163 -1.6023 -0.6428 -0.0417
 9377TIP3    H249547  -0.029   3.342  15.025  0.0407  1.2352 -1.0425
 9378TIP3   OH249548   1.523   1.965  16.479 -0.3147  0.0048 -0.1645
 9378TIP3    H149549   1.438   1.943  16.441  0.1571 -2.3011 -0.0592
 9378TIP3    H249550   1.516   1.935  16.570  0.7320 -0.6221 -0.2771
 9379TIP3   OH249551   6.029   4.042   0.573 -0.2501  0.1437 -0.3679
 9379TIP3    H149552   6.039   4.008   0.662  2.4455  3.0807  0.6620
 9379TIP3    H249553   5.942   4.083   0.573  0.1504  1.1111  1.3892
 9380TIP3   OH249554   4.082   4.127  17.087 -0.0581  0.3850 -0.5436
 9380TIP3    H149555   4.146   4.182  17.041  1.1408 -0.3048  0.2476
 9380TIP3    H249556   4.024   4.094  17.018  1.3364 -0.1540 -1.5067
 9381TIP3   OH249557   1.821   3.689   2.715 -0.1953  0.2274 -0.7028
 9381TIP3    H149558   1.902   3.714   2.670 -1.1566  1.1944 -1.9860
 9381TIP3    H249559   1.776   3.633   2.652 -1.2320  0.9863 -0.6517
 9382TIP3   OH249560   4.307   6.148  16.363 -0.2304 -0.0670  0.0161
 9382TIP3    H149561   4.274   6.098  16.288 -1.0349 -1.8515  1.4942
 9382TIP3    H249562   4.245   6.130  16.433  1.4118  0.1701  1.6033
 9383TIP3   OH249563   5.740   1.273  13.512  0.3900  0.4613  0.2023
 9383TIP3    H149564   5.658   1.226  13.530  2.7119 -4.1245  0.2342
 9383TIP3    H249565   5.744   1.277  13.417  0.8057 -0.8172  0.1485
 9384TIP3   OH249566   5.868   5.293  10.799  0.0138  0.6354 -0.2268
 9384TIP3    H149567   5.956   5.259  10.781 -0.2040  0.2550 -0.6130
 9384TIP3    H249568   5.883   5.376  10.844  0.5858 -0.8794  2.6121
 9385TIP3   OH249569   5.111   4.543  14.468  0.8936  0.9421  0.1399
 9385TIP3    H149570   5.196   4.504  14.448  1.2293  0.2658  2.5354
 9385TIP3    H249571   5.078   4.573  14.383  2.1115 -1.5479 -1.3407
 9386TIP3   OH249572   0.824   0.286   0.705 -0.2879  0.3830  0.3415
 9386TIP3    H149573   0.751   0.307   0.764 -1.6940 -2.0909 -0.3672
 9386TIP3    H249574   0.796   0.320   0.620 -0.3086  0.0641  0.2182
 9387TIP3   OH249575   5.374   2.836   2.956  0.6682 -0.6261  0.2699
 9387TIP3    H149576   5.358   2.844   2.862 -1.2314 -2.7409  0.3127
 9387TIP3    H249577   5.462   2.798   2.963  0.8148 -0.4649 -0.6659
 9388TIP3   OH249578   1.797   2.054   0.525 -0.2916 -0.2622 -0.0725
 9388TIP3    H149579   1.884   2.032   0.559  0.5732  2.2181 -0.4845
 9388TIP3    H249580   1.783   2.145   0.552 -1.6874  0.1959 -2.1378
 9389TIP3   OH249581   1.239   1.196   2.816  0.4327 -0.4178  0.3590
 9389TIP3    H149582   1.269   1.235   2.898  1.7161  0.0820 -0.3077
 9389TIP3    H249583   1.310   1.137   2.791 -0.4656 -1.4480  0.1798
 9390TIP3   OH249584   4.022   0.400  17.161  0.5765  0.8664  0.3605
 9390TIP3    H149585   4.045   0.358  17.079  1.4909  2.2023 -0.1073
 9390TIP3    H249586   4.070   0.483  17.160 -0.8175  1.7380  1.4189
 9391TIP3   OH249587   3.091   0.616   2.811  0.4027  0.7863  0.5851
 9391TIP3    H149588   3.129   0.672   2.879  0.3637  1.1343  0.3212
 9391TIP3    H249589   3.000   0.605   2.838  0.4017  0.8791  0.6183
 9392TIP3   OH249590   6.523   1.932  11.040 -0.6308  0.0312 -0.0278
 9392TIP3    H149591   6.467   1.958  10.967 -1.4095  1.6013  1.0541
 9392TIP3    H249592   6.466   1.940  11.117  0.0414 -1.9837  0.7356
 9393TIP3   OH249593   4.167   4.488   4.794  0.1583  0.4013  0.2046
 9393TIP3    H149594   4.207   4.403   4.778  0.9350  0.8798 -0.4906
 9393TIP3    H249595   4.094   4.492   4.733 -0.2143  0.0341  0.6106
 9394TIP3   OH249596   0.821   3.343  16.726 -0.4845 -0.0558  0.2921
 9394TIP3    H149597   0.768   3.409  16.681 -0.0430 -1.6027 -2.7341
 9394TIP3    H249598   0.759   3.297  16.783 -1.6641  0.3457 -0.6316
 9395TIP3   OH249599   4.349   0.558   5.904  0.3978 -0.2316 -0.5899
 9395TIP3    H149600   4.260   0.523   5.904  0.0751  0.3521  2.1633
 9395TIP3    H249601   4.340   0.647   5.870 -0.4234  0.4208  1.1958
 9396TIP3   OH249602   4.320   2.091   1.777 -0.0028  0.0579 -0.1107
 9396TIP3    H149603   4.299   2.033   1.703 -2.2013  0.7439 -0.1061
 9396TIP3    H249604   4.324   2.032   1.853 -0.2780 -0.3398 -0.3972
 9397TIP3   OH249605   1.756   6.253   2.578 -0.7079 -0.0217 -0.5497
 9397TIP3    H149606   1.807   6.175   2.558 -0.8243 -0.4916  0.9151
 9397TIP3    H249607   1.801   6.324   2.531  0.4920 -0.6464 -0.3640
 9398TIP3   OH249608   4.219   0.082   1.247  0.1625 -0.0019  0.2725
 9398TIP3    H149609   4.215   0.148   1.316  1.0996  0.8878 -0.4994
 9398TIP3    H249610   4.270   0.011   1.285 -0.0768  0.0988  0.7905
 9399TIP3   OH249611   1.896   1.004   5.283  0.6381  0.1249 -0.2780
 9399TIP3    H149612   1.934   1.053   5.357 -0.7422  0.1683  0.4345
 9399TIP3    H249613   1.966   1.001   5.218  0.7760  3.2703 -0.4643
 9400TIP3   OH249614   0.993   5.952   5.199  0.4225 -0.3836 -0.9727
 9400TIP3    H149615   1.011   5.888   5.269  0.0311  0.0179 -0.4972
 9400TIP3    H249616   1.067   6.013   5.203 -0.0147  0.1265 -0.3326
 9401TIP3   OH249617   0.581   4.993   1.637  0.0930 -0.0229  0.3239
 9401TIP3    H149618   0.551   5.013   1.548  0.2095  0.6636  0.4325
 9401TIP3    H249619   0.519   4.928   1.669 -0.0095 -0.2031 -0.2222
 9402TIP3   OH249620   1.440   6.424   0.654  0.1727 -0.5064  0.7289
 9402TIP3    H149621   1.462   6.354   0.715 -0.1419 -1.0356  0.2538
 9402TIP3    H249622   1.495   6.406   0.577  1.3997  0.8037  1.2659
 9403TIP3   OH249623   1.758   6.461   5.943  0.3452  0.8379  0.1992
 9403TIP3    H149624   1.735   6.469   6.035  2.2698 -0.3695  0.8562
 9403TIP3    H249625   1.737   6.546   5.905 -1.3877  1.0404  1.5113
 9404TIP3   OH249626   4.389   5.854  16.168  0.1406 -0.1436 -0.2296
 9404TIP3    H149627   4.434   5.894  16.094 -0.5688  0.3441 -0.4061
 9404TIP3    H249628   4.306   5.902  16.175 -0.2492 -0.8637  0.2386
 9405TIP3   OH249629   4.177   2.164  10.829 -0.0632  0.1885 -0.4135
 9405TIP3    H149630   4.256   2.157  10.776  0.0216  0.4340 -0.3203
 9405TIP3    H249631   4.170   2.257  10.850  0.1223  0.0329  0.3388
 9406TIP3   OH249632   3.687   1.799   4.943 -0.1375 -0.0672  0.3805
 9406TIP3    H149633   3.667   1.705   4.939 -1.7093  0.2328  0.6753
 9406TIP3    H249634   3.783   1.803   4.936  0.0118 -1.7307  0.9770
 9407TIP3   OH249635   6.444   6.308   2.517  0.2234  0.3395  0.3037
 9407TIP3    H149636   6.478   6.329   2.430 -0.7227 -1.1030 -0.4643
 9407TIP3    H249637   6.508   6.345   2.578  1.0545  1.1280 -1.0070
 9408TIP3   OH249638   0.654   5.564   5.458  0.1237  0.3406  0.0102
 9408TIP3    H149639   0.729   5.505   5.448 -0.7510 -0.8105  0.0476
 9408TIP3    H249640   0.620   5.575   5.370 -0.5419 -0.3374  0.1758
 9409TIP3   OH249641   5.023   1.781   0.579  0.0581 -0.0887  0.0730
 9409TIP3    H149642   5.038   1.700   0.529  0.8719  0.7408 -1.0862
 9409TIP3    H249643   4.982   1.840   0.515  1.4808  1.1383  0.2433
 9410TIP3   OH249644   2.029   6.154  14.884 -0.0452 -0.0894  0.4804
 9410TIP3    H149645   2.094   6.193  14.826 -3.0768  0.4424 -2.8514
 9410TIP3    H249646   2.005   6.225  14.944 -0.6387  1.1259 -1.1342
 9411TIP3   OH249647   2.511   2.809  17.124 -0.0960  0.0550 -0.0774
 9411TIP3    H149648   2.596   2.815  17.166  0.8494  1.6433 -2.0639
 9411TIP3    H249649   2.521   2.740  17.059 -1.3463 -1.9188  1.6816
 9412TIP3   OH249650   3.094   1.070   3.891  0.1563  1.0793  0.0474
 9412TIP3    H149651   3.087   1.164   3.875 -0.8519  0.8238 -1.2229
 9412TIP3    H249652   3.013   1.047   3.935  0.2572  0.7564  0.0685
 9413TIP3   OH249653   3.896   4.621   0.668 -0.0678  0.2018 -0.5078
 9413TIP3    H149654   3.865   4.549   0.614  0.2251  0.7419 -1.4234
 9413TIP3    H249655   3.910   4.693   0.606 -1.5302  1.4383  0.5289
 9414TIP3   OH249656   5.095   2.213   6.281 -0.1388 -0.4827  0.0472
 9414TIP3    H149657   5.182   2.198   6.244 -0.3134  0.5947 -0.8383
 9414TIP3    H249658   5.035   2.189   6.210 -0.4938  0.8838 -0.1323
 9415TIP3   OH249659   4.074   0.880  14.992  0.2597 -0.5162  0.0479
 9415TIP3    H149660   4.010   0.950  15.004  0.1610 -0.3016 -1.5493
 9415TIP3    H249661   4.062   0.823  15.067 -1.8506 -0.5090 -0.2437
 9416TIP3   OH249662   0.639   2.332  14.670  0.4400 -0.0588 -0.0065
 9416TIP3    H149663   0.569   2.358  14.610  1.0783  0.6916 -0.4613
 9416TIP3    H249664   0.717   2.327  14.614  0.8408 -0.4128  0.5744
 9417TIP3   OH249665   4.450   0.740   3.441 -0.3320  0.3141 -0.1560
 9417TIP3    H149666   4.369   0.754   3.393 -1.5635 -0.0314  1.7132
 9417TIP3    H249667   4.453   0.813   3.504  1.3736  0.9153 -0.8754
 9418TIP3   OH249668   5.660   4.467   5.018 -0.6625  0.6570 -0.0135
 9418TIP3    H149669   5.650   4.392   4.959  0.6457  0.7762 -0.4270
 9418TIP3    H249670   5.610   4.443   5.096 -1.0320 -0.2411 -0.5142
 9419TIP3   OH249671   2.129   1.687   6.166  0.2627 -0.6881  0.6025
 9419TIP3    H149672   2.133   1.764   6.223 -2.2541 -0.6497  0.8474
 9419TIP3    H249673   2.207   1.636   6.188  2.7741  2.3631 -0.5246
 9420TIP3   OH249674   4.911   1.325  16.769 -0.5211 -0.5446 -0.0615
 9420TIP3    H149675   4.867   1.410  16.770  0.1872 -0.1739  1.0911
 9420TIP3    H249676   4.857   1.270  16.826 -1.9702 -1.4350 -2.1534
 9421TIP3   OH249677   0.000   5.427  16.479 -0.1480  0.3493  0.1452
 9421TIP3    H149678   0.016   5.333  16.474 -0.4875  0.3246 -0.5709
 9421TIP3    H249679   0.039   5.462  16.399 -1.3032  0.6276 -0.3172
 9422TIP3   OH249680   4.376   4.591  11.149  0.0884  0.9358 -0.1084
 9422TIP3    H149681   4.428   4.638  11.215  0.5801  1.2938 -0.7434
 9422TIP3    H249682   4.439   4.538  11.101 -0.2828  0.6114 -0.2438
 9423TIP3   OH249683   5.590   4.317   2.469 -0.3127 -0.2406  0.2279
 9423TIP3    H149684   5.643   4.397   2.471  1.1130 -1.1556  0.7305
 9423TIP3    H249685   5.638   4.258   2.411 -2.2911 -0.1464 -1.6088
 9424TIP3   OH249686   4.192   0.513  15.901  0.5172  0.6429 -0.3288
 9424TIP3    H149687   4.205   0.608  15.902  0.4720  0.6485 -0.2042
 9424TIP3    H249688   4.281   0.477  15.905  0.4952  0.6816  1.5770
 9425TIP3   OH249689   6.255   2.694  12.289 -0.2563 -0.0608  0.3891
 9425TIP3    H149690   6.253   2.615  12.235 -0.3394  0.9800 -1.1828
 9425TIP3    H249691   6.318   2.674  12.359 -1.0527 -1.8749  0.6227
 9426TIP3   OH249692   2.594   4.069   2.727 -0.1353 -0.2759  0.1927
 9426TIP3    H149693   2.650   4.018   2.786 -1.4131 -0.6276  1.1392
 9426TIP3    H249694   2.586   4.154   2.770  1.1093  0.4002 -0.8464
 9427TIP3   OH249695   3.953   3.120  11.894 -0.2254 -0.0771  0.0880
 9427TIP3    H149696   3.921   3.031  11.877  0.6573 -0.9661  2.6875
 9427TIP3    H249697   3.877   3.166  11.929 -0.2875 -0.2574  0.1897
 9428TIP3   OH249698   5.123   5.235   0.701  0.2610  0.1297  0.3985
 9428TIP3    H149699   5.167   5.156   0.669 -1.9006 -0.9328 -0.1800
 9428TIP3    H249700   5.037   5.204   0.731 -0.4488  2.1895  0.6508
 9429TIP3   OH249701   1.511   4.391   1.074  0.3004  0.2188  0.6184
 9429TIP3    H149702   1.592   4.371   1.026 -0.3052 -2.4365  0.5507
 9429TIP3    H249703   1.442   4.357   1.018 -0.7730  1.0542  1.4061
 9430TIP3   OH249704   1.005   5.575  11.804  0.3643 -0.3486 -0.2230
 9430TIP3    H149705   1.098   5.597  11.791  0.7310 -1.3970  0.5382
 9430TIP3    H249706   0.974   5.551  11.717  1.0407 -0.8422 -0.3374
 9431TIP3   OH249707   1.491   5.411  14.917  0.1106 -0.1557  0.0320
 9431TIP3    H149708   1.477   5.388  14.825  1.9080  2.2572 -0.9426
 9431TIP3    H249709   1.553   5.345  14.948  0.4963 -0.2575 -0.9001
 9432TIP3   OH249710   1.688   4.246  12.927  0.0985  0.1690  0.1460
 9432TIP3    H149711   1.699   4.276  13.017 -0.6598  0.6265  0.0933
 9432TIP3    H249712   1.603   4.203  12.926  0.5237 -0.6949 -0.1374
 9433TIP3   OH249713   5.291   4.713  13.402 -0.3595  0.5792  0.1387
 9433TIP3    H149714   5.257   4.644  13.458 -2.0568  0.6860 -0.7001
 9433TIP3    H249715   5.281   4.678  13.313  1.3810  0.7948 -0.1764
 9434TIP3   OH249716   0.958   0.323  12.468  0.3015 -0.2402 -0.1220
 9434TIP3    H149717   0.880   0.271  12.487 -1.4263  2.4542  0.6497
 9434TIP3    H249718   0.975   0.370  12.550  0.1303  2.3964 -1.5183
 9435TIP3   OH249719   4.145   2.516   0.726  0.2055 -0.0033 -0.7122
 9435TIP3    H149720   4.124   2.440   0.671 -1.1567  0.2266 -0.5483
 9435TIP3    H249721   4.226   2.551   0.689  2.4980 -3.1333  0.8794
 9436TIP3   OH249722   1.637   2.883  11.223 -0.0683  0.0278 -0.1816
 9436TIP3    H149723   1.633   2.890  11.127 -1.0236 -0.9858 -0.2284
 9436TIP3    H249724   1.731   2.888  11.242  0.1820 -0.2968 -1.2237
 9437TIP3   OH249725   4.434   2.435  14.873 -0.5466 -0.1541  0.1307
 9437TIP3    H149726   4.473   2.517  14.843 -1.4437  0.8962  1.7196
 9437TIP3    H249727   4.347   2.460  14.904 -0.2521 -1.4127  2.1422
 9438TIP3   OH249728   1.770   1.647  16.021 -0.0213 -0.4958 -0.1100
 9438TIP3    H149729   1.799   1.683  16.105 -1.1442  3.3752 -1.1541
 9438TIP3    H249730   1.694   1.594  16.043 -0.1552  0.2394  1.3800
 9439TIP3   OH249731   1.916   2.424   1.458  0.1195  0.2600  0.2310
 9439TIP3    H149732   1.962   2.341   1.450 -1.2676 -0.5521  0.3083
 9439TIP3    H249733   1.984   2.491   1.445  1.2039 -0.8736 -0.1288
 9440TIP3   OH249734   3.925   1.850  11.897 -0.3364 -0.0920  0.2269
 9440TIP3    H149735   3.883   1.934  11.877 -1.4435 -0.7774 -0.4484
 9440TIP3    H249736   3.990   1.839  11.827 -1.9699 -0.9663 -1.2338
 9441TIP3   OH249737   4.448   0.147   3.675  0.3640 -0.3618  0.5211
 9441TIP3    H149738   4.484   0.211   3.736  1.2743 -0.4017  0.0418
 9441TIP3    H249739   4.429   0.197   3.596 -2.4044  0.0401  1.3426
 9442TIP3   OH249740   2.056   5.158  11.132 -0.4813  0.0348 -0.2336
 9442TIP3    H149741   2.149   5.161  11.109 -0.6159 -0.1738 -0.8233
 9442TIP3    H249742   2.011   5.150  11.048 -1.1118  1.5267 -0.0579
 9443TIP3   OH249743   4.214   5.123  15.130 -0.1890  0.5328  0.1415
 9443TIP3    H149744   4.296   5.172  15.138 -0.7703  1.2564  2.0665
 9443TIP3    H249745   4.205   5.076  15.212 -1.6083  0.3031 -0.1195
 9444TIP3   OH249746   4.204   4.229  15.032  0.7056 -0.2463 -0.4265
 9444TIP3    H149747   4.272   4.286  14.995  1.0885  0.0874  0.7398
 9444TIP3    H249748   4.245   4.191  15.109 -0.8598  1.0759  1.1576
 9445TIP3   OH249749   0.659   0.521  12.688  0.2388  0.2695 -0.0060
 9445TIP3    H149750   0.629   0.435  12.716 -0.1907  0.1530 -0.7678
 9445TIP3    H249751   0.578   0.569  12.666  0.5538 -0.3203 -2.8678
 9446TIP3   OH249752   6.741   0.956  17.137  0.3516  0.8536  0.3022
 9446TIP3    H149753   6.836   0.958  17.124  0.7549 -1.0853  2.3280
 9446TIP3    H249754   6.730   0.935  17.230 -2.0714  0.7869  0.0625
 9447TIP3   OH249755   0.099   0.053   1.332  0.1049 -0.3480 -0.0486
 9447TIP3    H149756   0.097   0.036   1.427  1.3066 -1.7789 -0.2493
 9447TIP3    H249757   0.121  -0.031   1.293 -0.6531  0.1542 -1.6476
 9448TIP3   OH249758   4.035   0.206  16.376  0.1740  0.8149  0.6119
 9448TIP3    H149759   3.951   0.168  16.350  0.0911  1.6592 -0.4248
 9448TIP3    H249760   4.025   0.300  16.358  0.8124  1.1520  1.9041
 9449TIP3   OH249761   3.074   1.372  10.962 -0.5302 -0.0695  0.1934
 9449TIP3    H149762   3.012   1.378  10.890  0.2617  0.1138 -0.4950
 9449TIP3    H249763   3.082   1.278  10.980 -2.9546 -0.0086  2.0662
 9450TIP3   OH249764   6.597   5.473  13.368 -0.1152 -0.7048 -0.0437
 9450TIP3    H149765   6.504   5.456  13.380 -0.5191  1.7094  0.7798
 9450TIP3    H249766   6.640   5.424  13.439 -0.6006 -2.6954 -1.0687
 9451TIP3   OH249767   3.002   4.432   3.412 -0.5370 -0.4718 -0.5173
 9451TIP3    H149768   2.914   4.444   3.446 -0.4642  0.2247 -0.5524
 9451TIP3    H249769   2.992   4.432   3.317 -0.2833  1.7782 -0.6049
 9452TIP3   OH249770   6.168   6.513  12.900 -0.7779 -0.2775  0.1110
 9452TIP3    H149771   6.146   6.601  12.869  0.5393  0.3371  0.8066
 9452TIP3    H249772   6.134   6.511  12.990  1.5560  0.5929  1.1069
 9453TIP3   OH249773   1.733   5.837   4.693 -0.1821  0.1898  0.8050
 9453TIP3    H149774   1.769   5.900   4.630 -0.7122  2.4067  2.5853
 9453TIP3    H249775   1.787   5.847   4.771 -2.2405  0.8113  2.2245
 9454TIP3   OH249776   0.929   4.164  12.970  0.0059  0.0456 -0.0326
 9454TIP3    H149777   0.930   4.121  12.884 -0.2172 -0.5695  0.2681
 9454TIP3    H249778   0.862   4.117  13.019  0.4402  0.1074  0.6258
 9455TIP3   OH249779   5.702   3.206  15.980  0.1069  0.2108  0.3106
 9455TIP3    H149780   5.644   3.212  15.904  0.9631  0.2490 -0.3523
 9455TIP3    H249781   5.707   3.296  16.013 -1.5402 -0.0490  1.4188
 9456TIP3   OH249782   5.905   1.722  14.550  0.4650  0.1069 -0.6112
 9456TIP3    H149783   5.874   1.634  14.530 -1.3340  0.4750  0.4180
 9456TIP3    H249784   5.999   1.719  14.531  0.5596 -2.1965 -0.0294
 9457TIP3   OH249785   3.662   5.518  14.645  0.5002 -0.4282 -0.4440
 9457TIP3    H149786   3.650   5.525  14.739 -1.0679 -2.5132 -0.4198
 9457TIP3    H249787   3.688   5.427  14.631  0.9872 -0.0761 -1.9976
 9458TIP3   OH249788   1.376   2.914   4.735  0.4061 -0.5809  0.0882
 9458TIP3    H149789   1.321   2.989   4.710  0.2638 -0.5744  0.4203
 9458TIP3    H249790   1.465   2.943   4.716  0.3336 -0.4075  0.0082
 9459TIP3   OH249791   0.992   5.797   0.839 -0.1154  0.4250  0.6168
 9459TIP3    H149792   1.035   5.801   0.754 -1.5592  1.5697 -0.1166
 9459TIP3    H249793   0.950   5.883   0.849 -2.0953 -0.5512  1.3001
 9460TIP3   OH249794   3.432   4.798   4.027  0.0965 -0.1440  0.3454
 9460TIP3    H149795   3.407   4.751   4.106 -0.0566  0.8326  0.8928
 9460TIP3    H249796   3.362   4.780   3.965 -0.2235 -0.2140  0.7236
 9461TIP3   OH249797   0.518   4.813   0.665 -0.3676 -0.4661  0.1739
 9461TIP3    H149798   0.569   4.732   0.658  0.7960  0.3248 -0.9592
 9461TIP3    H249799   0.431   4.789   0.634 -0.5500 -1.6809  1.5067
 9462TIP3   OH249800   0.387   3.319   1.031  0.4241  0.1452  0.3940
 9462TIP3    H149801   0.465   3.296   1.082 -0.0323 -0.3001  0.8990
 9462TIP3    H249802   0.314   3.285   1.082 -0.1306  0.8438  0.0854
 9463TIP3   OH249803   5.789   4.235  14.830 -0.6498  0.3360 -0.2975
 9463TIP3    H149804   5.776   4.152  14.784 -1.3517  0.2107  0.1099
 9463TIP3    H249805   5.704   4.254  14.870  0.0339  0.1924  1.3204
 9464TIP3   OH249806   1.305   5.517  13.251  0.5065  0.0412  0.0650
 9464TIP3    H149807   1.252   5.583  13.206 -0.0022 -0.8845 -0.7370
 9464TIP3    H249808   1.247   5.441  13.259  1.3069 -0.5564  0.3390
 9465TIP3   OH249809   2.703   2.103   5.047 -0.0479  0.0494 -0.0250
 9465TIP3    H149810   2.671   2.045   4.978 -0.2206  0.4025 -0.2435
 9465TIP3    H249811   2.796   2.116   5.025 -0.0465 -0.0238 -0.0629
 9466TIP3   OH249812   5.111   5.788   3.714  0.3643 -0.5063  0.0852
 9466TIP3    H149813   5.104   5.819   3.804  0.8515 -1.0438  0.3127
 9466TIP3    H249814   5.177   5.718   3.717  1.4236  0.4072 -0.9248
 9467TIP3   OH249815   4.569   3.161   2.177  0.0137  0.6382 -0.3973
 9467TIP3    H149816   4.609   3.246   2.194 -0.8651  1.2867 -1.4168
 9467TIP3    H249817   4.613   3.101   2.237  0.7790  1.7730  0.2116
 9468TIP3   OH249818   2.191   6.580  14.188 -0.6973 -0.7142 -0.8021
 9468TIP3    H149819   2.135   6.513  14.229 -2.8116  0.9910 -0.7505
 9468TIP3    H249820   2.242   6.531  14.123 -0.5529 -2.7248  0.7110
 9469TIP3   OH249821   3.421   5.718   1.277 -0.5123 -0.0947  0.2196
 9469TIP3    H149822   3.454   5.779   1.344 -2.3949  1.1235  0.0971
 9469TIP3    H249823   3.374   5.773   1.215 -0.1499 -1.4123 -1.2956
 9470TIP3   OH249824   3.755   2.297   3.929  0.2800  0.2899 -0.1030
 9470TIP3    H149825   3.813   2.221   3.936 -1.4523 -1.3012 -1.8124
 9470TIP3    H249826   3.712   2.286   3.844 -2.3054  1.5224  0.9513
 9471TIP3   OH249827   2.301   1.918   3.902 -0.3128 -0.5730  0.4172
 9471TIP3    H149828   2.271   1.948   3.816  0.7825  0.6687  0.4353
 9471TIP3    H249829   2.230   1.943   3.962 -0.6590 -0.5790  0.0148
 9472TIP3   OH249830   1.199   6.656   4.635 -0.3581  0.2123  0.3225
 9472TIP3    H149831   1.248   6.604   4.700 -0.3278  0.8725  0.8393
 9472TIP3    H249832   1.242   6.637   4.552 -0.1102 -0.3027  0.5618
 9473TIP3   OH249833   1.564   0.201  16.713 -0.2831 -0.4501 -0.1612
 9473TIP3    H149834   1.534   0.291  16.728  3.5486  1.0408 -0.2990
 9473TIP3    H249835   1.582   0.167  16.801 -1.8152 -1.1716 -0.1044
 9474TIP3   OH249836   0.328   3.674   0.222  0.4001  0.4947  0.6312
 9474TIP3    H149837   0.244   3.631   0.232  0.4369  0.8920  3.0646
 9474TIP3    H249838   0.327   3.707   0.132 -1.0743 -1.4413 -0.1268
 9475TIP3   OH249839   4.647   1.786   5.555 -0.4149  0.0010  0.4694
 9475TIP3    H149840   4.663   1.853   5.488 -1.2262 -0.4784 -0.2182
 9475TIP3    H249841   4.697   1.816   5.631  0.7067  0.4420 -0.4132
 9476TIP3   OH249842   4.372   3.075  14.612  0.8242  0.4039  0.3851
 9476TIP3    H149843   4.306   3.006  14.609  0.3593  0.7952  1.2947
 9476TIP3    H249844   4.373   3.112  14.523  0.0765  0.1642  0.2755
 9477TIP3   OH249845   6.193   2.836   5.869  0.0757 -0.3818 -0.1093
 9477TIP3    H149846   6.102   2.841   5.898 -0.0711  0.3466 -0.6540
 9477TIP3    H249847   6.226   2.925   5.879 -0.0203 -0.0579 -2.2482
 9478TIP3   OH249848   6.444   4.176   5.465  0.4718  0.2392  0.1357
 9478TIP3    H149849   6.419   4.128   5.385  3.6103  0.6090 -1.2232
 9478TIP3    H249850   6.485   4.109   5.520 -0.2349  0.3069  0.7527
 9479TIP3   OH249851   6.209   2.452   6.184  0.0551 -0.0506 -0.4444
 9479TIP3    H149852   6.301   2.444   6.158  0.6982  0.3885  1.5810
 9479TIP3    H249853   6.170   2.509   6.118  1.5136  0.6919 -0.6908
 9480TIP3   OH249854   1.631   0.516  11.689 -0.6191 -0.9340  0.2908
 9480TIP3    H149855   1.633   0.612  11.688  1.5091 -0.9332  0.9801
 9480TIP3    H249856   1.614   0.491  11.598 -1.5283  0.0773  0.1612
 9481TIP3   OH249857   0.527   5.823  15.041  0.0429  0.4764  0.0696
 9481TIP3    H149858   0.578   5.766  15.099 -1.0080 -0.7876 -0.2106
 9481TIP3    H249859   0.584   5.899  15.028  2.2187 -1.1807 -0.8239
 9482TIP3   OH249860   3.850   3.896  11.034 -0.0963 -0.0460 -0.3940
 9482TIP3    H149861   3.863   3.892  11.129 -1.1892 -0.7487 -0.2589
 9482TIP3    H249862   3.938   3.888  10.997  0.5124  1.7037  0.5748
 9483TIP3   OH249863   1.402   5.332   4.920 -0.2577  0.1857 -0.1247
 9483TIP3    H149864   1.452   5.286   4.988  0.5075 -0.3807 -1.0467
 9483TIP3    H249865   1.329   5.274   4.900 -0.6306  0.4729  0.3935
 9484TIP3   OH249866   1.412   6.446   1.801  0.4197 -0.5943  0.0395
 9484TIP3    H149867   1.368   6.504   1.738  0.7203 -0.8399 -0.4076
 9484TIP3    H249868   1.381   6.359   1.778  0.5948 -0.6928  0.1825
 9485TIP3   OH249869   3.840   2.766   0.234 -0.1170  0.4299  0.3882
 9485TIP3    H149870   3.844   2.752   0.329  0.5738 -0.9420  0.1742
 9485TIP3    H249871   3.866   2.683   0.196  1.4408  1.4858 -1.0093
 9486TIP3   OH249872   4.199   5.349  14.491 -0.3513  0.3731 -0.2475
 9486TIP3    H149873   4.142   5.426  14.490 -0.6846  0.1859 -3.3911
 9486TIP3    H249874   4.149   5.283  14.539 -2.3085  0.6079 -1.8323
 9487TIP3   OH249875   5.637   5.517   2.022  0.1396  0.1975  0.4517
 9487TIP3    H149876   5.700   5.502   2.093 -0.6743  1.7410  1.5576
 9487TIP3    H249877   5.602   5.430   2.003  1.9363 -0.5625  0.4179
 9488TIP3   OH249878   3.022   1.983  12.641  0.3292  0.1148 -0.5081
 9488TIP3    H149879   3.083   2.031  12.585 -0.8719  0.8748 -1.2088
 9488TIP3    H249880   2.982   1.918  12.584  1.2470 -1.1388  0.2152
 9489TIP3   OH249881   2.793   3.403   4.352  0.2783 -0.0434 -0.0918
 9489TIP3    H149882   2.786   3.309   4.338 -1.6028  0.0735 -0.2764
 9489TIP3    H249883   2.830   3.437   4.270  1.6025 -0.6640  0.2281
 9490TIP3   OH249884   2.234   5.868   0.022  0.4190 -0.5287  0.9688
 9490TIP3    H149885   2.281   5.877  -0.061  2.0916 -0.6582  1.8598
 9490TIP3    H249886   2.150   5.911   0.007  1.0789  0.3148 -0.4901
 9491TIP3   OH249887   6.619   4.283  12.102  0.2912 -0.1111  0.2642
 9491TIP3    H149888   6.626   4.260  12.194  0.2280  1.2660  0.6327
 9491TIP3    H249889   6.679   4.356  12.090  0.2835 -0.2576 -0.7917
 9492TIP3   OH249890   2.997   2.483  14.143  0.4082 -0.3553 -0.0523
 9492TIP3    H149891   3.014   2.577  14.146 -1.6937  0.1190 -1.1371
 9492TIP3    H249892   2.941   2.466  14.218 -0.2466 -0.4771 -0.5553
 9493TIP3   OH249893   4.381   6.142   1.853 -0.3175  0.3846 -0.0868
 9493TIP3    H149894   4.295   6.101   1.841 -0.3057  0.1266  0.6894
 9493TIP3    H249895   4.362   6.232   1.877 -0.3683  0.4101 -0.2251
 9494TIP3   OH249896   3.676   3.462   0.954 -0.6036  0.3256 -0.0387
 9494TIP3    H149897   3.658   3.473   0.861  1.0275  1.8606 -0.2234
 9494TIP3    H249898   3.717   3.376   0.961  1.6007  1.2150 -1.1733
 9495TIP3   OH249899   4.588   3.231  13.425  0.2356  0.4305  0.5677
 9495TIP3    H149900   4.562   3.243  13.334  1.4306  1.7860  0.3567
 9495TIP3    H249901   4.523   3.172  13.462 -0.8186  0.6207 -0.9162
 9496TIP3   OH249902   2.280   1.115  11.511  0.2402  0.4749  0.0375
 9496TIP3    H149903   2.193   1.082  11.537  0.4434  0.1725  0.3504
 9496TIP3    H249904   2.311   1.051  11.447  0.6292  0.0510  0.6348
 9497TIP3   OH249905   3.465   1.283  11.711  0.5635 -0.0994 -0.0441
 9497TIP3    H149906   3.551   1.266  11.748  1.2300  2.3180 -0.2740
 9497TIP3    H249907   3.482   1.336  11.634 -1.0742 -0.8812 -0.9979
 9498TIP3   OH249908   4.175   0.804  15.543  0.3802  0.0975 -0.1697
 9498TIP3    H149909   4.104   0.795  15.607  0.6677 -0.4979  0.0688
 9498TIP3    H249910   4.221   0.883  15.571 -0.3843  0.6813 -0.5247
 9499TIP3   OH249911   4.182   6.714   2.239  0.5914 -0.3102  0.2520
 9499TIP3    H149912   4.265   6.677   2.208  0.3379  0.9267 -2.0983
 9499TIP3    H249913   4.208   6.780   2.304  1.3077 -1.2527  0.9438
 9500TIP3   OH249914   4.122   3.016  12.493 -0.2625 -0.0623 -0.3577
 9500TIP3    H149915   4.079   2.992  12.411 -3.6870 -1.7918  1.6904
 9500TIP3    H249916   4.127   2.934  12.542  1.4078  0.9542  1.3050
 9501TIP3   OH249917   1.235   6.639  12.560  0.1507 -0.2141  0.1013
 9501TIP3    H149918   1.270   6.559  12.598  0.0897 -0.3326 -0.0888
 9501TIP3    H249919   1.140   6.626  12.560  0.0723  0.3214  1.0881
 9502TIP3   OH249920   2.478   6.160  11.435  0.7250 -0.1899 -0.4745
 9502TIP3    H149921   2.440   6.243  11.405  0.9905  0.3583  0.6261
 9502TIP3    H249922   2.454   6.096  11.368  1.5195  1.0078 -1.9523
 9503TIP3   OH249923   3.725   3.520  16.103  0.1254 -0.3564  0.4981
 9503TIP3    H149924   3.701   3.486  16.016  0.7455  0.4239  0.0073
 9503TIP3    H249925   3.785   3.455  16.138 -0.0320 -0.6157  0.2955
 9504TIP3   OH249926   1.462   3.769  16.489  0.7211 -0.6528  0.0786
 9504TIP3    H149927   1.368   3.760  16.504  0.4121  0.8032 -0.7732
 9504TIP3    H249928   1.487   3.688  16.444 -0.8425  0.2640 -2.7325
 9505TIP3   OH249929   6.284   4.012   1.564 -0.0470  0.5616 -0.0842
 9505TIP3    H149930   6.255   3.924   1.588 -0.2449  1.0318  1.4942
 9505TIP3    H249931   6.210   4.051   1.518  0.1318 -0.1587 -1.0211
 9506TIP3   OH249932   6.592   0.661  15.021 -0.2287 -0.4789 -0.0519
 9506TIP3    H149933   6.672   0.690  15.065 -0.9093  0.7849  0.3855
 9506TIP3    H249934   6.588   0.567  15.040  0.3890 -0.2888  1.1467
 9507TIP3   OH249935   2.242   5.303  11.386  0.1539  0.4890 -0.0753
 9507TIP3    H149936   2.245   5.207  11.382 -0.2153  0.4448  0.5142
 9507TIP3    H249937   2.264   5.331  11.297 -0.1980 -0.1575 -0.3786
 9508TIP3   OH249938   1.164   4.216  15.122  0.5740  0.5140 -0.1906
 9508TIP3    H149939   1.152   4.138  15.176  1.1713  1.3352  1.1797
 9508TIP3    H249940   1.210   4.185  15.044 -0.1221 -0.6668 -0.1554
 9509TIP3   OH249941   4.401   0.320   3.451 -0.1951 -0.2183 -0.0569
 9509TIP3    H149942   4.463   0.391   3.468 -0.9520  0.6896 -0.9420
 9509TIP3    H249943   4.392   0.319   3.356 -0.3988 -1.3429 -0.0336
 9510TIP3   OH249944   1.189   0.756  15.945 -0.3934  0.1504 -0.7297
 9510TIP3    H149945   1.234   0.725  16.024 -0.3578 -0.1839 -0.8811
 9510TIP3    H249946   1.222   0.700  15.875 -0.5990  0.2955 -0.9431
 9511TIP3   OH249947   4.767   5.654  11.697 -0.0081 -0.4337  0.1723
 9511TIP3    H149948   4.797   5.687  11.612 -0.2953  0.8066  0.5331
 9511TIP3    H249949   4.682   5.614  11.679  0.2308 -0.7770 -0.2248
 9512TIP3   OH249950   1.025   6.162  16.288  0.1922 -0.1092  0.8311
 9512TIP3    H149951   0.952   6.201  16.337 -1.7081 -1.6331 -0.6636
 9512TIP3    H249952   1.017   6.068  16.304  0.4586 -0.5033 -1.1241
 9513TIP3   OH249953   6.362   3.007   2.220  0.2613 -0.1218 -0.6919
 9513TIP3    H149954   6.358   3.048   2.307 -0.8923  1.7484 -1.5624
 9513TIP3    H249955   6.301   2.934   2.226 -2.9460  2.3096 -0.9593
 9514TIP3   OH249956   1.758   1.962   3.844 -0.4349 -0.0110 -0.1272
 9514TIP3    H149957   1.707   1.889   3.809 -0.2363  0.1303 -0.7371
 9514TIP3    H249958   1.819   1.922   3.906  0.6676 -0.5865 -1.5178
 9515TIP3   OH249959   1.983   3.678   5.154 -0.9435  0.2883  0.1810
 9515TIP3    H149960   1.958   3.628   5.231  1.3921 -0.3963  0.5773
 9515TIP3    H249961   1.901   3.693   5.107 -2.3028  0.0118  2.3553
 9516TIP3   OH249962   4.010   5.397  15.575 -0.0089  0.7297 -0.2663
 9516TIP3    H149963   3.955   5.475  15.567  1.3473  1.9873  1.8381
 9516TIP3    H249964   4.088   5.418  15.523  0.4447  0.8687  0.4684
 9517TIP3   OH249965   1.951   5.872  17.120 -0.3292  0.1738  0.0885
 9517TIP3    H149966   2.015   5.808  17.089 -0.8832 -0.7154  0.7433
 9517TIP3    H249967   1.904   5.899  17.042 -0.0337 -0.1619 -0.2073
 9518TIP3   OH249968   2.776   1.567  13.840 -0.6878 -0.0642  0.0282
 9518TIP3    H149969   2.755   1.476  13.816  0.2431 -0.5585  1.0356
 9518TIP3    H249970   2.845   1.560  13.906 -0.1676  1.4009 -0.3131
 9519TIP3   OH249971   0.964   2.175   0.612 -0.1644 -0.8503 -0.3402
 9519TIP3    H149972   0.929   2.249   0.562  0.2704 -0.9747 -0.8382
 9519TIP3    H249973   0.889   2.117   0.626  0.0261 -1.6262 -2.2909
 9520TIP3   OH249974   6.389   0.058  12.991 -0.0561  0.3879 -0.1622
 9520TIP3    H149975   6.356   0.093  13.074 -1.8615 -0.9085 -0.2709
 9520TIP3    H249976   6.484   0.071  12.996 -0.3931  3.1657  0.7219
 9521TIP3   OH249977   1.815   1.153   1.251 -0.2982  0.2268 -0.3457
 9521TIP3    H149978   1.733   1.178   1.208 -0.1049  0.0632 -0.8286
 9521TIP3    H249979   1.875   1.224   1.231  0.2224 -0.5365 -1.6337
 9522TIP3   OH249980   3.087   5.063   4.042 -0.1770  0.5695 -0.1769
 9522TIP3    H149981   3.060   5.124   3.973 -1.7079  0.4260  0.2580
 9522TIP3    H249982   3.126   4.989   3.995  1.1505  1.5782 -0.7396
 9523TIP3   OH249983   5.332   2.293  16.357  0.0661 -0.0657  0.1278
 9523TIP3    H149984   5.305   2.316  16.268  2.2097  1.1565 -0.2735
 9523TIP3    H249985   5.254   2.252  16.396 -1.2746  0.3930 -1.9200
 9524TIP3   OH249986   6.648   5.927   5.514 -0.0392 -0.0650 -0.5745
 9524TIP3    H149987   6.629   6.014   5.548  0.8213 -0.3608  0.7317
 9524TIP3    H249988   6.742   5.926   5.500  0.0608 -1.0045  0.0972
 9525TIP3   OH249989   3.907   1.746  15.566 -0.6292 -0.2885  0.5452
 9525TIP3    H149990   3.923   1.661  15.607  1.7042 -1.0257 -1.6790
 9525TIP3    H249991   3.963   1.807  15.615 -0.7087 -0.4063  0.7876
 9526TIP3   OH249992   5.251   3.066  13.439  0.2622  0.0976 -1.0610
 9526TIP3    H149993   5.273   3.084  13.348 -0.3709 -2.2090 -1.7444
 9526TIP3    H249994   5.186   2.995  13.435 -0.7748  0.8066  1.1473
 9527TIP3   OH249995   1.609   1.475  16.790 -0.2983  0.4122 -0.4109
 9527TIP3    H149996   1.642   1.519  16.712 -0.5270  0.4603 -0.4801
 9527TIP3    H249997   1.606   1.382  16.767  0.0931  0.3677 -0.2968
 9528TIP3   OH249998   3.672   2.793  16.809 -0.0984 -0.2028  0.0820
 9528TIP3    H149999   3.655   2.776  16.902  0.9508 -0.1043  0.2992
 9528TIP3    H250000   3.616   2.730  16.763 -1.9658  0.9092  0.7122
 9529TIP3   OH250001   0.239   3.801   4.278  0.2294  0.2478 -0.1667
 9529TIP3    H150002   0.247   3.717   4.325 -3.0113  0.0259  0.2127
 9529TIP3    H250003   0.230   3.866   4.347  1.6099  0.8043 -0.4834
 9530TIP3   OH250004   1.889   6.386  12.461  0.8268 -0.4872  0.1775
 9530TIP3    H150005   1.805   6.430  12.448  1.7065  1.1542 -0.1130
 9530TIP3    H250006   1.906   6.343  12.378  0.5826 -0.2885  0.0217
 9531TIP3   OH250007   6.508   1.112  14.744 -0.3786 -0.3793 -0.0138
 9531TIP3    H150008   6.559   1.054  14.801 -0.2454 -0.4700 -0.2233
 9531TIP3    H250009   6.456   1.165  14.804  0.0700 -0.1851  0.2053
 9532TIP3   OH250010   1.637   4.849  16.951  0.2914 -0.0810 -0.1623
 9532TIP3    H150011   1.641   4.823  17.043 -2.6958  3.3378  1.1864
 9532TIP3    H250012   1.727   4.871  16.928  0.7353  1.9741  3.0286
 9533TIP3   OH250013   4.974   6.712  12.379  0.0846 -0.1360  0.0011
 9533TIP3    H150014   4.885   6.746  12.369 -0.6345 -1.6692  0.8614
 9533TIP3    H250015   5.009   6.760  12.454  0.7493  1.8727 -1.4856
 9534TIP3   OH250016   5.862   0.462   0.412 -0.0364 -0.1645 -0.1532
 9534TIP3    H150017   5.916   0.532   0.374  0.5698 -0.5817 -0.0713
 9534TIP3    H250018   5.857   0.484   0.505  1.0335 -0.7782  0.0677
 9535TIP3   OH250019   5.708   1.903  14.510  0.1841 -0.1926  0.2961
 9535TIP3    H150020   5.645   1.853  14.458  1.7355 -0.8250 -1.0904
 9535TIP3    H250021   5.770   1.837  14.542  0.2258  0.4188  1.5364
 9536TIP3   OH250022   1.000   4.624   5.826 -0.6835  0.0287  0.2334
 9536TIP3    H150023   0.914   4.651   5.792  0.0877  2.2585 -0.1033
 9536TIP3    H250024   1.004   4.664   5.913 -0.5213 -1.2537  0.8352
 9537TIP3   OH250025   2.679   4.954  13.818  0.1194  0.4970  0.1362
 9537TIP3    H150026   2.698   5.026  13.758 -1.3630  1.5673  0.8863
 9537TIP3    H250027   2.590   4.927  13.796  0.0685 -0.0246  0.9208
 9538TIP3   OH250028   0.575   2.284  16.995  0.2780  0.6126  0.7773
 9538TIP3    H150029   0.607   2.198  17.023  2.6981  1.7832  1.8505
 9538TIP3    H250030   0.618   2.299  16.910 -0.4769  0.5901  0.3857
 9539TIP3   OH250031   0.258   3.833  13.178  0.3549  0.2564 -0.6372
 9539TIP3    H150032   0.269   3.784  13.096 -1.8462  1.5409 -1.8219
 9539TIP3    H250033   0.323   3.903  13.172  0.6744 -0.0636 -0.9567
 9540TIP3   OH250034   5.867   6.195  15.907  0.2027 -0.8165 -0.0528
 9540TIP3    H150035   5.954   6.221  15.937 -0.6959  0.9410  1.2026
 9540TIP3    H250036   5.827   6.154  15.983 -0.7915  0.3012  0.0523
 9541TIP3   OH250037   0.814   2.432  15.088  0.7949 -0.1041  0.3707
 9541TIP3    H150038   0.865   2.500  15.132 -0.1330  0.3752  0.7228
 9541TIP3    H250039   0.762   2.478  15.023 -1.2718 -0.1611  1.8685
 9542TIP3   OH250040   2.905   3.193  16.997  0.3436  0.1263  0.2079
 9542TIP3    H150041   2.891   3.287  17.008 -0.8278  0.0721 -0.6203
 9542TIP3    H250042   2.849   3.153  17.064 -1.2302 -0.0149 -1.1187
 9543TIP3   OH250043   1.955   3.885  11.296  0.5292  0.3857  0.1128
 9543TIP3    H150044   1.916   3.835  11.367  0.0889  0.8531  0.2118
 9543TIP3    H250045   1.892   3.878  11.224  1.1645 -0.4267 -0.3787
 9544TIP3   OH250046   4.576   6.780  13.015 -0.1210  0.7746 -0.1031
 9544TIP3    H150047   4.495   6.831  13.021 -0.5223  0.1312 -0.0348
 9544TIP3    H250048   4.598   6.759  13.106  0.1366  0.9632 -0.1192
 9545TIP3   OH250049   0.005   3.802   0.219 -0.2154 -0.3143  0.3059
 9545TIP3    H150050   0.058   3.771   0.145  0.3324  0.7437  0.2314
 9545TIP3    H250051   0.036   3.891   0.234 -1.1646 -0.0978  1.0404
 9546TIP3   OH250052   5.094   0.853   5.850 -0.3618 -0.2731  0.2396
 9546TIP3    H150053   5.124   0.869   5.939  0.5035 -0.1077 -0.0735
 9546TIP3    H250054   5.096   0.758   5.841 -0.6131 -0.3011  0.4399
 9547TIP3   OH250055   1.975   1.644  13.299  0.4418 -0.2911 -0.2913
 9547TIP3    H150056   1.918   1.661  13.374  1.2861 -0.3090  0.3722
 9547TIP3    H250057   1.916   1.641  13.224 -0.1172  2.8621 -0.1228
 9548TIP3   OH250058   5.511   2.341   3.842  0.0479 -0.5177  0.0552
 9548TIP3    H150059   5.606   2.351   3.848  0.0121  1.5374 -1.5391
 9548TIP3    H250060   5.494   2.329   3.749 -1.2153 -1.6760  0.4122
 9549TIP3   OH250061   1.406   3.766  12.475 -0.4136  0.1810  0.4077
 9549TIP3    H150062   1.404   3.741  12.567 -1.7912  1.0460  0.6534
 9549TIP3    H250063   1.478   3.716  12.438  1.1849  0.9421  2.2656
 9550TIP3   OH250064   4.347   2.580   3.963  0.5547 -0.2846 -0.1519
 9550TIP3    H150065   4.260   2.620   3.965  0.4780 -0.4712  1.7301
 9550TIP3    H250066   4.371   2.569   4.055  1.8590 -1.7906 -0.6234
 9551TIP3   OH250067   3.859   3.186   5.916 -0.6032  0.2238 -0.9374
 9551TIP3    H150068   3.816   3.175   6.001 -0.5237  1.8071 -0.6540
 9551TIP3    H250069   3.923   3.115   5.911 -2.4649 -1.5430 -0.8946
 9552TIP3   OH250070   4.527   5.002   4.808  0.0252 -0.0210  0.2475
 9552TIP3    H150071   4.527   5.082   4.755 -0.2995  0.1787  0.5424
 9552TIP3    H250072   4.442   4.963   4.792  0.2016 -0.3360  0.0687
 9553TIP3   OH250073   5.610   1.317   6.333 -0.7159  0.2902 -0.1288
 9553TIP3    H150074   5.645   1.357   6.413 -0.7164 -2.1210  1.1600
 9553TIP3    H250075   5.515   1.325   6.342 -0.7780 -1.2929  0.8840
 9554TIP3   OH250076   1.706   2.731  16.053 -0.3606 -0.5725 -0.5508
 9554TIP3    H150077   1.749   2.649  16.078  1.9277  0.5633 -0.4841
 9554TIP3    H250078   1.660   2.760  16.131 -0.0723 -1.1211 -0.1734
 9555TIP3   OH250079   0.956   1.031   1.612 -0.6082 -0.2365  0.3712
 9555TIP3    H150080   1.012   1.037   1.690 -0.3628  0.2861  0.1584
 9555TIP3    H250081   0.924   0.941   1.613  0.9170 -0.8074  0.0248
 9556TIP3   OH250082   5.230   4.441   3.789 -0.3694 -0.0191 -0.1928
 9556TIP3    H150083   5.255   4.369   3.848  1.0239  1.3564  0.9668
 9556TIP3    H250084   5.150   4.476   3.828 -0.4430 -0.2343 -0.1457
 9557TIP3   OH250085   5.735   1.636  17.098  0.2820 -0.0592  0.7278
 9557TIP3    H150086   5.746   1.731  17.097  2.5532 -0.2723 -0.2252
 9557TIP3    H250087   5.794   1.606  17.167 -0.8572 -0.7533  1.4170
 9558TIP3   OH250088   1.099   0.602   5.519 -0.2598  0.7165  0.4154
 9558TIP3    H150089   1.020   0.655   5.511 -0.2956  0.7952  1.1829
 9558TIP3    H250090   1.120   0.604   5.613 -1.2745 -2.0378  0.8131
 9559TIP3   OH250091   6.707   0.077   5.511  0.5624  0.0528  0.1987
 9559TIP3    H150092   6.647   0.118   5.572 -2.6317  1.5619 -3.5859
 9559TIP3    H250093   6.658   0.003   5.474  1.2755  0.7465 -2.3466
 9560TIP3   OH250094   0.340   1.257   4.186 -0.0469  0.7017  0.2755
 9560TIP3    H150095   0.364   1.339   4.142  0.9526  0.8986  1.1609
 9560TIP3    H250096   0.419   1.230   4.232 -0.9864  0.3817  1.7848
 9561TIP3   OH250097   1.560   1.728  16.343 -1.0086  0.1186  0.3634
 9561TIP3    H150098   1.637   1.717  16.287 -0.2615 -0.4275  1.4643
 9561TIP3    H250099   1.575   1.811  16.389 -2.4152  1.4484 -1.3981
 9562TIP3   OH250100   2.993   1.896   6.444  0.3616  0.3519 -0.7405
 9562TIP3    H150101   3.008   1.988   6.425  1.1525  0.4990  0.4954
 9562TIP3    H250102   2.899   1.890   6.462  0.3224  0.9311 -0.7482
 9563TIP3   OH250103   6.335   0.468   1.048 -0.1122 -0.6308 -0.0568
 9563TIP3    H150104   6.351   0.492   1.139  0.1787  0.7100 -0.4368
 9563TIP3    H250105   6.240   0.461   1.040 -0.2323  0.7224  0.0143
 9564TIP3   OH250106   2.374   5.814   3.518 -0.5500 -0.0616  0.6277
 9564TIP3    H150107   2.426   5.733   3.521 -2.7490 -1.5636  0.5984
 9564TIP3    H250108   2.286   5.786   3.541 -0.8063  2.9704  4.1762
 9565TIP3   OH250109   4.092   6.172   4.215 -0.7461  0.3321  0.2391
 9565TIP3    H150110   4.019   6.222   4.251 -0.6205 -0.7896  2.2325
 9565TIP3    H250111   4.170   6.213   4.252 -0.3785  1.0792 -1.3024
 9566TIP3   OH250112   2.640   6.716  11.563  0.6488 -0.0757  0.2857
 9566TIP3    H150113   2.590   6.666  11.627  0.7023  1.8214  1.9030
 9566TIP3    H250114   2.574   6.753  11.504  0.6397 -2.3173 -1.2231
 9567TIP3   OH250115   6.647   1.238  15.397  0.3740 -0.5853  0.7544
 9567TIP3    H150116   6.660   1.266  15.488  0.6064 -2.0501  1.1950
 9567TIP3    H250117   6.721   1.277  15.350  0.6027 -0.3302  1.3107
 9568TIP3   OH250118   6.658   0.002   2.463  0.0205  0.2803  0.2272
 9568TIP3    H150119   6.742  -0.038   2.440 -0.0140  0.2239  0.1995
 9568TIP3    H250120   6.594  -0.043   2.408  0.0680  0.8398 -0.2951
 9569TIP3   OH250121   6.649   1.951  12.708 -0.0509  0.6518 -0.0487
 9569TIP3    H150122   6.717   2.010  12.741  0.1950  0.3471 -0.0135
 9569TIP3    H250123   6.625   1.988  12.623 -0.8690  1.5940  0.5581
 9570TIP3   OH250124   4.353   3.229   0.710 -0.0267 -0.2512 -0.2893
 9570TIP3    H150125   4.266   3.212   0.674  0.5358 -2.1144 -0.8662
 9570TIP3    H250126   4.378   3.315   0.675 -0.6480 -0.7618 -2.0667
 9571TIP3   OH250127   3.914   1.138   5.079 -0.2799 -0.4172 -0.2765
 9571TIP3    H150128   3.854   1.164   5.009 -0.5657  0.0377  0.1332
 9571TIP3    H250129   3.858   1.115   5.153 -0.0027 -1.5495 -0.3965
 9572TIP3   OH250130   4.063   4.035  15.330 -0.1760  0.8001  0.1333
 9572TIP3    H150131   4.041   3.970  15.397 -0.2955  0.6639 -0.0355
 9572TIP3    H250132   4.142   4.001  15.288 -1.5344 -0.4772 -1.5485
 9573TIP3   OH250133   0.435   6.404   3.213 -0.3203  0.0697 -0.1564
 9573TIP3    H150134   0.437   6.415   3.308 -0.2772  0.4740 -0.2028
 9573TIP3    H250135   0.343   6.411   3.190 -0.2686  0.6159 -0.2150
 9574TIP3   OH250136   0.045   1.757  16.606  0.4642  0.1783  0.4517
 9574TIP3    H150137   0.127   1.724  16.569  0.1914  0.7313 -0.6992
 9574TIP3    H250138   0.009   1.683  16.654  1.3684 -0.2370  0.5159
 9575TIP3   OH250139   6.255   4.643  11.903 -0.4369  0.1935  0.4879
 9575TIP3    H150140   6.280   4.735  11.907  0.3322  0.1095 -1.2911
 9575TIP3    H250141   6.335   4.598  11.876 -1.2536 -0.7527 -0.4488
 9576TIP3   OH250142   2.827   5.131  12.843  0.0523 -0.4595 -0.9175
 9576TIP3    H150143   2.772   5.184  12.902 -0.0664 -1.2404 -0.3135
 9576TIP3    H250144   2.766   5.091  12.782  0.0130 -0.8153 -0.6487
 9577TIP3   OH250145   2.955   5.528   1.668 -0.2662  0.3424 -0.2165
 9577TIP3    H150146   3.030   5.527   1.608  0.9586  0.0759  1.2490
 9577TIP3    H250147   2.948   5.619   1.696 -0.9366  0.4971 -0.8443
 9578TIP3   OH250148   2.399   4.805  16.990  0.2009 -0.0291  0.0072
 9578TIP3    H150149   2.490   4.804  17.020  0.1539 -0.6237  0.1289
 9578TIP3    H250150   2.351   4.752  17.054 -0.1254 -0.2188 -0.3904
 9579TIP3   OH250151   2.547   6.459   1.371 -0.2167  0.3859  0.1647
 9579TIP3    H150152   2.640   6.477   1.388 -0.0444 -1.3138  1.2084
 9579TIP3    H250153   2.548   6.396   1.299 -0.6062  0.8404 -0.2468
 9580TIP3   OH250154   0.170   2.033  12.999 -0.6287 -0.0918 -0.3815
 9580TIP3    H150155   0.103   2.019  13.067 -0.3483  0.4626  0.0076
 9580TIP3    H250156   0.244   1.979  13.027 -0.6499 -0.1497 -0.4374
 9581TIP3   OH250157   6.374   4.853   1.782 -0.2424  0.7155  0.0688
 9581TIP3    H150158   6.355   4.946   1.794 -1.9989  0.4895 -0.7302
 9581TIP3    H250159   6.392   4.821   1.871  0.2773  1.7788  0.3639
 9582TIP3   OH250160   2.601   2.888  14.881 -0.2088 -0.5408 -0.1444
 9582TIP3    H150161   2.607   2.858  14.790 -1.0133 -0.4974 -0.2170
 9582TIP3    H250162   2.609   2.808  14.933  0.2861 -0.5623 -0.2459
 9583TIP3   OH250163   0.063   3.530  12.642  0.0819 -0.6881 -0.8261
 9583TIP3    H150164   0.070   3.548  12.735  0.1005 -1.2166 -0.7221
 9583TIP3    H250165  -0.021   3.485  12.632 -0.7642  0.9174 -1.3198
 9584TIP3   OH250166   0.191   4.404   2.582 -0.4874 -0.2469  0.3386
 9584TIP3    H150167   0.210   4.377   2.672 -2.7575 -0.9163  0.6859
 9584TIP3    H250168   0.141   4.485   2.591  0.1046  0.2113 -0.3831
 9585TIP3   OH250169   1.158   1.087  12.664 -0.0240  0.3969 -0.3779
 9585TIP3    H150170   1.118   1.021  12.722  0.1765  1.2101  0.7278
 9585TIP3    H250171   1.247   1.055  12.650  0.5800  1.1296  1.4039
 9586TIP3   OH250172   4.824   1.507  16.399 -0.5074  0.2040 -0.3755
 9586TIP3    H150173   4.744   1.554  16.424 -1.3500 -0.4255 -1.7604
 9586TIP3    H250174   4.886   1.527  16.469 -1.4928  1.6785  0.1317
 9587TIP3   OH250175   4.955   0.790   1.336  0.6486 -0.1277  0.0180
 9587TIP3    H150176   5.033   0.784   1.390  0.7510  0.9184 -0.0028
 9587TIP3    H250177   4.883   0.775   1.398  0.7728  0.8915  0.4160
 9588TIP3   OH250178   4.706   3.712   0.823 -0.4251 -0.2437 -0.5524
 9588TIP3    H150179   4.767   3.781   0.851 -2.0343  2.0013 -2.2306
 9588TIP3    H250180   4.643   3.706   0.895 -0.9768  0.9915 -0.8986
 9589TIP3   OH250181   5.548   6.469   0.525  0.2493  0.0918 -0.3278
 9589TIP3    H150182   5.555   6.478   0.430 -2.0319 -0.4506 -0.5888
 9589TIP3    H250183   5.623   6.519   0.559  1.2084  0.1555 -2.3845
 9590TIP3   OH250184   4.867   6.077   6.035 -0.3668  0.2647 -0.2451
 9590TIP3    H150185   4.789   6.102   6.084 -0.7449 -2.2543  0.5541
 9590TIP3    H250186   4.834   6.025   5.961  0.4709  0.4321 -0.7560
 9591TIP3   OH250187   3.028   4.718  12.626  0.3924  0.2831  0.2983
 9591TIP3    H150188   3.091   4.757  12.687 -0.5227  0.5573  1.1054
 9591TIP3    H250189   2.995   4.640  12.672 -0.4078  0.5725  0.2359
 9592TIP3   OH250190   1.045   2.057   1.977  0.0926  0.4024 -0.1681
 9592TIP3    H150191   0.959   2.047   1.936  0.2053  0.6050 -0.4585
 9592TIP3    H250192   1.028   2.108   2.056  0.1915  2.1089 -1.1944
 9593TIP3   OH250193   2.810   6.307  12.663  0.0701 -0.4672  0.1305
 9593TIP3    H150194   2.739   6.251  12.694  1.0889 -0.2500  3.1285
 9593TIP3    H250195   2.887   6.249  12.663  0.4690  0.0560 -0.1890
 9594TIP3   OH250196   6.523   1.841  16.032  0.1711 -0.4871 -0.6782
 9594TIP3    H150197   6.600   1.788  16.010  0.8183 -1.6280  3.4596
 9594TIP3    H250198   6.448   1.784  16.013  0.5873 -1.0082 -0.7775
 9595TIP3   OH250199   5.022   0.809   3.676  0.0580  0.1502  0.3514
 9595TIP3    H150200   4.945   0.860   3.702  0.2642  1.4981 -1.5031
 9595TIP3    H250201   5.088   0.831   3.742 -0.9912 -0.7716  1.7743
 9596TIP3   OH250202   5.582   0.954   1.386 -0.7280 -0.1767  0.1233
 9596TIP3    H150203   5.670   0.947   1.423 -0.6453 -1.2293 -0.2262
 9596TIP3    H250204   5.564   1.048   1.386 -0.4864 -0.0679  2.2117
 9597TIP3   OH250205   0.021   2.062   4.484 -0.3790 -0.3335  0.1632
 9597TIP3    H150206  -0.057   2.095   4.439 -1.0778  1.0360  2.2203
 9597TIP3    H250207   0.078   2.139   4.493  0.2159 -0.8170  0.6779
 9598TIP3   OH250208   4.975   5.369  15.248  0.3135  0.8169  0.1218
 9598TIP3    H150209   5.063   5.390  15.282  1.0734 -3.4589  1.4090
 9598TIP3    H250210   4.916   5.389  15.321  0.3026  2.6483 -0.3488
 9599TIP3   OH250211   3.510   2.995   0.883 -0.2729 -0.0483  0.2454
 9599TIP3    H150212   3.469   2.908   0.883 -2.1427  0.7568  2.1743
 9599TIP3    H250213   3.460   3.044   0.818 -1.9457  0.6881  2.0025
 9600TIP3   OH250214   5.517   3.664   1.065 -0.9978 -0.0683 -0.1838
 9600TIP3    H150215   5.570   3.740   1.039  0.9975 -0.9112  1.1390
 9600TIP3    H250216   5.489   3.683   1.154 -1.7928 -0.2242 -0.3958
 9601TIP3   OH250217   4.003   6.160  11.323  0.0894  0.2039 -0.7015
 9601TIP3    H150218   4.056   6.114  11.259 -0.5809 -2.5222  0.5790
 9601TIP3    H250219   4.059   6.167  11.401 -1.2160 -2.5709  0.6108
 9602TIP3   OH250220   1.636   3.309   1.131 -0.7182  0.0311 -0.6103
 9602TIP3    H150221   1.544   3.287   1.146 -0.5079 -0.0711  0.6079
 9602TIP3    H250222   1.685   3.249   1.187  0.0532  0.6095 -0.6473
 9603TIP3   OH250223   6.257   4.112   1.820  0.0367  0.0031 -0.3963
 9603TIP3    H150224   6.288   4.081   1.735 -1.0575  0.0109 -0.8077
 9603TIP3    H250225   6.162   4.113   1.812 -0.0667  0.2468  0.7487
 9604TIP3   OH250226   2.442   4.710   5.763  0.1436  0.1340  0.2179
 9604TIP3    H150227   2.494   4.632   5.778 -0.2025 -0.0182  0.6389
 9604TIP3    H250228   2.464   4.769   5.835  2.0633  1.3424 -1.2373
 9605TIP3   OH250229   1.065   1.112   0.994 -0.4121  0.0580 -0.1757
 9605TIP3    H150230   1.082   1.150   1.081 -0.6835  2.3069 -1.0373
 9605TIP3    H250231   1.002   1.171   0.954  1.3879  0.4159 -2.7598
 9606TIP3   OH250232   1.626   0.512  13.804  0.3361  0.3497  0.5112
 9606TIP3    H150233   1.571   0.588  13.782 -0.4165 -0.1537  0.5858
 9606TIP3    H250234   1.627   0.460  13.724 -2.3293 -1.4415  1.4929
 9607TIP3   OH250235   3.554   5.906  13.226  0.4665 -0.1283 -0.0493
 9607TIP3    H150236   3.649   5.895  13.212  0.4698 -0.7260  0.3982
 9607TIP3    H250237   3.543   5.895  13.320 -0.1464 -0.8357 -0.1988
 9608TIP3   OH250238   2.920   4.084  14.834 -0.3290  0.4844  0.2074
 9608TIP3    H150239   2.895   4.132  14.755 -1.6087 -0.5460 -0.0426
 9608TIP3    H250240   2.949   3.999  14.802 -1.0207  0.0004  0.8502
 9609TIP3   OH250241   0.777   4.335   3.297  0.4506  0.1682  0.3076
 9609TIP3    H150242   0.815   4.317   3.211 -0.8511  1.3248 -0.5485
 9609TIP3    H250243   0.686   4.308   3.289  0.4184 -0.1149  1.4765
 9610TIP3   OH250244   6.495   4.662   4.828  0.0763 -0.6623  0.0639
 9610TIP3    H150245   6.445   4.741   4.807  2.4342  0.9018 -0.0739
 9610TIP3    H250246   6.441   4.615   4.891 -3.3902 -1.2076 -2.9786
 9611TIP3   OH250247   6.158   2.949  14.401 -0.8574 -0.2045  0.1310
 9611TIP3    H150248   6.160   2.959  14.496  3.0244  0.2375  0.1626
 9611TIP3    H250249   6.095   3.014  14.371 -0.0427  1.7137  2.2961
 9612TIP3   OH250250   2.753   2.796   6.415 -0.1488 -0.1293 -0.3263
 9612TIP3    H150251   2.735   2.889   6.404  0.1670 -0.2502 -2.0658
 9612TIP3    H250252   2.675   2.762   6.460 -0.6562  0.8113 -0.4676
 9613TIP3   OH250253   0.443   1.396   6.082  0.4912 -0.3478  0.1341
 9613TIP3    H150254   0.350   1.408   6.102  0.1338 -0.5792 -1.2859
 9613TIP3    H250255   0.473   1.333   6.148 -0.7507 -1.4594 -0.3222
 9614TIP3   OH250256   6.655   5.890  15.277  0.0394  0.3060  0.2836
 9614TIP3    H150257   6.660   5.918  15.368  1.1261 -2.6532  1.2594
 9614TIP3    H250258   6.742   5.909  15.241 -0.2936  1.1956 -0.0774
 9615TIP3   OH250259   0.559   0.191   2.416  0.0973  0.5697  0.1779
 9615TIP3    H150260   0.653   0.191   2.435 -0.1508  1.0650  1.5117
 9615TIP3    H250261   0.540   0.281   2.392  0.1607  0.2210 -1.2558
 9616TIP3   OH250262   1.506   1.374   2.686 -0.2810 -0.1996  0.1625
 9616TIP3    H150263   1.456   1.348   2.608 -0.2746  0.0394  0.0799
 9616TIP3    H250264   1.441   1.408   2.747  0.0636  2.7901 -1.0147
 9617TIP3   OH250265   5.473   5.742   2.008  0.4422  0.4035 -0.4164
 9617TIP3    H150266   5.532   5.667   1.995 -0.8140 -0.4852 -1.2466
 9617TIP3    H250267   5.421   5.745   1.928 -1.5793  0.2907  0.8212
 9618TIP3   OH250268   0.376   1.228  11.806 -0.1257 -0.6838 -0.5820
 9618TIP3    H150269   0.371   1.323  11.813 -1.2335 -0.8132  0.7839
 9618TIP3    H250270   0.295   1.203  11.760  0.4891 -0.9345 -1.5628
 9619TIP3   OH250271   3.032   5.169  10.575  0.2668  0.3070 -0.3869
 9619TIP3    H150272   3.056   5.229  10.504 -1.6069  0.4113 -0.9834
 9619TIP3    H250273   2.937   5.161  10.569  0.1800 -0.5730  1.4281
 9620TIP3   OH250274   1.593   4.453  14.146 -0.1429 -0.4702  0.1002
 9620TIP3    H150275   1.647   4.515  14.195 -1.3454  2.4033 -1.8816
 9620TIP3    H250276   1.505   4.466  14.181 -0.6317  0.0072 -1.2408
 9621TIP3   OH250277   5.635   5.769  13.764 -0.0969 -0.0745 -0.2477
 9621TIP3    H150278   5.541   5.786  13.758 -0.3458 -1.2955 -0.1897
 9621TIP3    H250279   5.676   5.847  13.728 -1.1746 -0.0698 -1.5606
 9622TIP3   OH250280   5.980   0.489  14.711  0.4409  0.5774  0.5807
 9622TIP3    H150281   5.899   0.461  14.668 -1.0440  0.2955  3.3176
 9622TIP3    H250282   6.025   0.408  14.735  0.5743  0.6973  0.7461
 9623TIP3   OH250283   6.213   0.926   2.625  0.0675  0.2929  0.7684
 9623TIP3    H150284   6.229   0.841   2.666  0.7947  0.6160  1.1652
 9623TIP3    H250285   6.204   0.906   2.532  1.7013 -0.0655  0.6589
 9624TIP3   OH250286   1.291   0.848   4.194 -0.4879 -1.3195 -0.2300
 9624TIP3    H150287   1.231   0.817   4.263  0.9568 -0.5023  1.4521
 9624TIP3    H250288   1.354   0.777   4.184 -0.2502 -1.1164 -0.1684
 9625TIP3   OH250289   2.780   1.737  14.868  0.5284  0.4268  0.4088
 9625TIP3    H150290   2.763   1.644  14.858  0.0304  0.4831  0.6882
 9625TIP3    H250291   2.835   1.744  14.946  1.4872  0.2815 -0.2387
 9626TIP3   OH250292   5.073   0.131  13.235 -0.3494  0.8491  0.3069
 9626TIP3    H150293   5.021   0.054  13.212 -0.2698  1.0875 -0.7018
 9626TIP3    H250294   5.013   0.205  13.224  0.1949  1.1322 -0.9284
 9627TIP3   OH250295   2.609   1.334   0.098  0.7979  0.4187 -0.4338
 9627TIP3    H150296   2.592   1.250   0.139  2.6328  0.3299  0.2617
 9627TIP3    H250297   2.525   1.379   0.099  0.4059 -0.2336  1.9635
 9628TIP3   OH250298   3.163   2.294   1.590  0.0602 -0.4448 -0.6351
 9628TIP3    H150299   3.235   2.249   1.546 -0.8921 -1.5702 -1.0813
 9628TIP3    H250300   3.159   2.380   1.547  0.1562 -0.9396 -1.6629
 9629TIP3   OH250301   6.763   2.662   0.617  0.0806 -0.1741  0.7669
 9629TIP3    H150302   6.802   2.607   0.549  0.3574  1.5469 -0.5235
 9629TIP3    H250303   6.676   2.682   0.585  0.2234  0.6805  0.8734
 9630TIP3   OH250304   0.621   1.303  12.059  0.1127  0.0334 -0.1504
 9630TIP3    H150305   0.601   1.375  12.119  0.5005 -0.0522  0.0860
 9630TIP3    H250306   0.565   1.231  12.089  1.6696 -0.6243  1.3377
 9631TIP3   OH250307   1.670   3.464   0.695 -0.1959  0.0719  0.0466
 9631TIP3    H150308   1.695   3.556   0.690 -3.0471  0.9829  0.9593
 9631TIP3    H250309   1.641   3.443   0.606 -2.8383  1.1947  0.5404
 9632TIP3   OH250310   2.137   3.895  16.510  0.0180  0.0349  0.1999
 9632TIP3    H150311   2.056   3.847  16.530  1.5285 -2.5939  0.4186
 9632TIP3    H250312   2.183   3.839  16.448  1.5340  1.6639 -0.2328
 9633TIP3   OH250313   2.345   3.382   2.840  0.1145 -0.1477 -0.2670
 9633TIP3    H150314   2.254   3.411   2.835  0.4465  0.9525 -0.1529
 9633TIP3    H250315   2.380   3.423   2.919  0.2144 -2.0608  0.7392
 9634TIP3   OH250316   6.367   6.587  11.817  0.5689  0.2801 -0.0001
 9634TIP3    H150317   6.306   6.633  11.760 -1.3368 -0.0587  1.6278
 9634TIP3    H250318   6.374   6.499  11.779 -1.8577 -0.4253  0.9536
 9635TIP3   OH250319   6.117   4.054  12.528 -0.7660  0.3247 -0.4124
 9635TIP3    H150320   6.161   3.969  12.524 -1.5272 -0.1321  0.4681
 9635TIP3    H250321   6.187   4.118  12.538 -0.2844 -0.3901  1.0103
 9636TIP3   OH250322   0.048   4.386   5.169  0.4170 -0.5358 -0.6265
 9636TIP3    H150323   0.030   4.333   5.246  1.0471  0.1983  0.0520
 9636TIP3    H250324   0.091   4.326   5.108 -0.3218 -1.1885 -0.5193
 9637TIP3   OH250325   5.746   4.731   5.090  0.5634 -0.9967  0.3207
 9637TIP3    H150326   5.713   4.641   5.087  1.0427 -1.2092  1.1717
 9637TIP3    H250327   5.841   4.722   5.085  0.6175 -0.5344  0.5049
 9638TIP3   OH250328   0.351   6.307  11.647 -0.0189  0.2571 -0.1531
 9638TIP3    H150329   0.371   6.360  11.570 -0.8104 -0.3183 -0.7751
 9638TIP3    H250330   0.269   6.344  11.680  1.4213  1.9676  1.7867
 9639TIP3   OH250331   4.022   3.220   3.332  0.2290  0.2388  0.4578
 9639TIP3    H150332   3.947   3.169   3.364  1.8439 -2.6330 -0.0266
 9639TIP3    H250333   4.054   3.266   3.410 -0.7727 -0.1206  1.1058
 9640TIP3   OH250334   5.034   3.985   4.810 -0.0862 -0.0162  0.3788
 9640TIP3    H150335   5.019   3.940   4.727  0.7500  0.2349  0.0818
 9640TIP3    H250336   4.948   4.019   4.835  0.0794  2.3096 -1.8055
 9641TIP3   OH250337   5.508   0.804   4.117  0.0255 -0.1220  0.1142
 9641TIP3    H150338   5.512   0.742   4.190 -0.2323 -0.2298  0.0399
 9641TIP3    H250339   5.568   0.768   4.052  0.3724  0.0583  0.3372
 9642TIP3   OH250340   1.377   3.104   2.801  0.2923  0.5687  0.1110
 9642TIP3    H150341   1.457   3.061   2.832  0.2707 -0.3520 -1.0669
 9642TIP3    H250342   1.306   3.052   2.838  0.2154  1.3693  1.1327
 9643TIP3   OH250343   0.167   1.802  13.621  0.3079  0.0690 -0.7066
 9643TIP3    H150344   0.259   1.777  13.625  0.1211 -0.9372 -2.0430
 9643TIP3    H250345   0.131   1.777  13.706  1.6576  2.2466  0.5765
 9644TIP3   OH250346   3.291   2.369  17.053 -0.5087  0.3453  0.2656
 9644TIP3    H150347   3.309   2.463  17.057 -0.2113  0.2851  0.4230
 9644TIP3    H250348   3.232   2.358  16.978  1.2192  0.4102 -1.1981
 9645TIP3   OH250349   3.183   0.586   2.569  0.4166  0.0718  0.2673
 9645TIP3    H150350   3.135   0.590   2.651 -0.3793 -0.5229 -0.1475
 9645TIP3    H250351   3.248   0.655   2.575 -1.4064  1.8944  0.2822
 9646TIP3   OH250352   3.787   2.203  14.847 -0.3890  0.1635  0.0616
 9646TIP3    H150353   3.864   2.249  14.883  0.0584 -0.7790  0.3375
 9646TIP3    H250354   3.776   2.240  14.760  1.2293 -0.6298 -0.5263
 9647TIP3   OH250355   2.402   1.824   0.961 -0.1815 -0.3406 -0.2680
 9647TIP3    H150356   2.365   1.912   0.961  0.1903 -0.1718 -1.5733
 9647TIP3    H250357   2.489   1.834   0.999 -0.3011 -0.2370 -0.0129
 9648TIP3   OH250358   6.088   5.629   3.626 -0.4983  0.4658 -0.0718
 9648TIP3    H150359   6.022   5.604   3.691 -0.6174  2.1735  0.5204
 9648TIP3    H250360   6.162   5.661   3.678  0.6610 -1.0389 -0.7378
 9649TIP3   OH250361   0.550   3.213   5.451 -0.4008 -0.5852  0.4574
 9649TIP3    H150362   0.470   3.206   5.400  0.0077  0.6428 -0.4076
 9649TIP3    H250363   0.595   3.130   5.438 -0.7972 -0.6808 -0.3610
 9650TIP3   OH250364   1.736   5.218  15.226 -0.4389 -0.2415 -0.6949
 9650TIP3    H150365   1.757   5.311  15.240 -1.2257 -0.0870 -0.5265
 9650TIP3    H250366   1.679   5.195  15.299 -2.7435 -0.0297 -2.3069
 9651TIP3   OH250367   1.136   2.011  14.430 -0.4800 -0.0085  0.1958
 9651TIP3    H150368   1.211   2.034  14.376 -1.9256  2.1844 -0.9925
 9651TIP3    H250369   1.156   1.922  14.460  1.8434 -0.1061 -1.3206
 9652TIP3   OH250370   2.867   6.138   3.620 -0.3395  0.2102  0.3038
 9652TIP3    H150371   2.943   6.161   3.566  0.1632  1.5785  1.5383
 9652TIP3    H250372   2.886   6.049   3.650 -0.1992 -0.2289 -1.0026
 9653TIP3   OH250373   2.318   0.230  16.913 -0.4235 -0.2022 -0.3471
 9653TIP3    H150374   2.234   0.274  16.921 -0.2482  0.1556 -0.4403
 9653TIP3    H250375   2.299   0.148  16.867 -0.7301 -0.1603 -0.2915
 9654TIP3   OH250376   6.261   2.530  16.804 -0.1668  0.2973 -0.0170
 9654TIP3    H150377   6.320   2.595  16.843  1.6952 -1.9285  1.0860
 9654TIP3    H250378   6.302   2.446  16.823 -2.8606 -1.2863 -0.7382
 9655TIP3   OH250379   1.128   2.808   5.659  0.2784 -0.4064 -0.2723
 9655TIP3    H150380   1.213   2.775   5.628  1.1456  0.0236  1.5101
 9655TIP3    H250381   1.081   2.730   5.687  0.3204 -0.5922 -0.7137
 9656TIP3   OH250382   1.014   4.062   1.257  0.0681  0.2553  0.1297
 9656TIP3    H150383   0.974   4.030   1.338 -0.1993  0.4078  0.0589
 9656TIP3    H250384   1.078   4.126   1.285  0.1860  0.0913  0.2381
 9657TIP3   OH250385   4.923   0.149  12.192  0.2464 -0.1912 -0.4713
 9657TIP3    H150386   4.982   0.121  12.261  0.1846 -0.2027 -0.4231
 9657TIP3    H250387   4.887   0.232  12.225 -0.6443 -0.7575  0.0178
 9658TIP3   OH250388   1.811   2.787   4.812 -0.2120  0.0168  0.5772
 9658TIP3    H150389   1.738   2.848   4.801  0.3712  1.0063  1.9262
 9658TIP3    H250390   1.888   2.836   4.784  0.0990 -0.5671  0.3904
 9659TIP3   OH250391   2.548   2.997  14.148 -0.6598  0.2888 -0.0303
 9659TIP3    H150392   2.502   2.928  14.099  1.3329  0.3310 -2.1783
 9659TIP3    H250393   2.639   2.967  14.151 -0.2457  1.5753  1.4009
 9660TIP3   OH250394   0.711   3.814  17.087  0.4080  0.0924 -0.4314
 9660TIP3    H150395   0.796   3.777  17.066  0.3948 -2.3438  2.9641
 9660TIP3    H250396   0.729   3.874  17.160 -0.7955 -1.3884  1.1742
 9661TIP3   OH250397   2.443   3.822  12.091 -0.4727  0.1651  0.3363
 9661TIP3    H150398   2.406   3.735  12.075  0.1073  0.1584 -1.1610
 9661TIP3    H250399   2.533   3.817  12.057 -0.0923  1.0583  1.1521
 9662TIP3   OH250400   0.396   6.492  12.971  0.5430  0.3449 -0.3894
 9662TIP3    H150401   0.351   6.408  12.979  1.3244 -0.0473  0.0478
 9662TIP3    H250402   0.469   6.474  12.911  0.8933  0.6298 -0.0520
 9663TIP3   OH250403   0.946   4.343  13.359  0.0061 -0.3259  0.5548
 9663TIP3    H150404   0.857   4.378  13.366  0.7772  1.8203  0.2730
 9663TIP3    H250405   0.947   4.270  13.421 -1.4977  0.6177  1.7796
 9664TIP3   OH250406   3.553   4.340   4.132 -0.1962 -0.2214  0.6843
 9664TIP3    H150407   3.613   4.312   4.062 -0.2727  1.5289 -0.1355
 9664TIP3    H250408   3.466   4.324   4.096 -0.2306 -1.0872  1.1493
 9665TIP3   OH250409   4.353   3.574   2.147  0.4293  0.4791 -0.3515
 9665TIP3    H150410   4.278   3.517   2.164  1.1927  0.0581  2.0948
 9665TIP3    H250411   4.314   3.659   2.126 -0.7119 -0.2277 -1.2157
 9666TIP3   OH250412   0.328   0.021   2.347  0.7053 -0.0387  0.4786
 9666TIP3    H150413   0.400  -0.028   2.306  1.8572  2.0520 -0.1526
 9666TIP3    H250414   0.372   0.087   2.401 -0.7469  1.0481  0.3983
 9667TIP3   OH250415   1.364   6.071  14.392  0.2238 -0.3945  0.4462
 9667TIP3    H150416   1.394   5.989  14.352 -2.6611 -0.6617 -1.4375
 9667TIP3    H250417   1.398   6.139  14.335 -1.8285 -0.6560 -1.2094
 9668TIP3   OH250418   3.932   0.043   0.572  0.6884 -0.1384 -0.1788
 9668TIP3    H150419   3.945  -0.027   0.636  0.8890  1.0345  1.1284
 9668TIP3    H250420   3.992   0.112   0.601 -0.0078  0.8367 -1.0052
 9669TIP3   OH250421   2.023   0.493  15.992 -0.0270 -0.2995  0.6676
 9669TIP3    H150422   2.110   0.461  16.017  0.3378  0.6869  0.7109
 9669TIP3    H250423   1.975   0.499  16.075 -0.5524 -1.9704  0.5195
 9670TIP3   OH250424   0.838   1.424  11.633 -0.3732  0.5715 -0.4742
 9670TIP3    H150425   0.819   1.370  11.556 -0.9204  0.3067 -0.1609
 9670TIP3    H250426   0.784   1.385  11.703 -2.8167  3.0122 -0.8184
 9671TIP3   OH250427   5.078   5.458  15.007 -0.1627 -0.2082  0.0464
 9671TIP3    H150428   5.093   5.403  14.930 -1.1568 -1.8085  0.9292
 9671TIP3    H250429   4.993   5.429  15.040  1.3437 -1.4083  3.2144
 9672TIP3   OH250430   2.520   4.046   0.210 -0.3257 -0.1826 -0.4116
 9672TIP3    H150431   2.581   4.018   0.278  1.2071 -2.0922 -2.4181
 9672TIP3    H250432   2.555   4.130   0.180  0.5621 -0.6190 -0.6267
 9673TIP3   OH250433   1.679   4.194  12.151  0.7959 -0.4961 -0.2511
 9673TIP3    H150434   1.675   4.239  12.236 -0.2569  1.3050 -1.1858
 9673TIP3    H250435   1.726   4.113  12.169  1.7583  0.4318  1.7874
 9674TIP3   OH250436   1.552   3.618   4.673 -0.0709 -0.0848 -0.1979
 9674TIP3    H150437   1.586   3.552   4.613  1.6348 -0.5458  1.1669
 9674TIP3    H250438   1.599   3.698   4.649 -0.2240  0.0029 -0.2037
 9675TIP3   OH250439   4.169   5.294   3.472  0.3225 -0.4072 -0.3665
 9675TIP3    H150440   4.243   5.353   3.480 -0.3760  0.5891 -1.0383
 9675TIP3    H250441   4.206   5.207   3.488  1.8003 -0.0270 -1.5320
 9676TIP3   OH250442   5.865   3.215   3.185  0.0747  0.2660  0.1741
 9676TIP3    H150443   5.843   3.124   3.206  0.2561  0.3982  0.9556
 9676TIP3    H250444   5.956   3.211   3.154 -0.9829 -0.3132 -3.2823
 9677TIP3   OH250445   1.446   5.494  13.744 -0.5488 -0.0463  0.1345
 9677TIP3    H150446   1.412   5.430  13.681 -1.4661  0.0606  0.5110
 9677TIP3    H250447   1.529   5.457  13.773 -1.0466 -1.0546  0.3180
 9678TIP3   OH250448   6.026   3.071  11.364 -0.0443 -0.1596  0.2828
 9678TIP3    H150449   5.964   3.139  11.339 -0.6608 -0.5118  0.8145
 9678TIP3    H250450   6.085   3.063  11.290 -0.6563  0.1669 -0.2422
 9679TIP3   OH250451   0.072   2.480   1.046  0.0645 -0.1590  0.6106
 9679TIP3    H150452   0.163   2.473   1.017 -0.1629 -0.2755 -0.1058
 9679TIP3    H250453   0.057   2.574   1.056  0.2718 -0.1415  0.7689
 9680TIP3   OH250454   1.773   0.319  12.105 -0.2861 -0.2371 -0.0183
 9680TIP3    H150455   1.767   0.308  12.200  0.1346 -2.1079 -0.1744
 9680TIP3    H250456   1.692   0.280  12.072  0.5142 -1.5396 -0.5238
 9681TIP3   OH250457   3.490   3.709  15.855 -0.6681 -0.5281  0.0082
 9681TIP3    H150458   3.464   3.728  15.764 -0.6230 -1.8096 -0.2894
 9681TIP3    H250459   3.411   3.674  15.895 -0.6101 -0.2147  0.4008
 9682TIP3   OH250460   0.867   0.032  15.603 -0.5302  0.2356  0.0474
 9682TIP3    H150461   0.889   0.038  15.510  0.3437  1.2473  0.2913
 9682TIP3    H250462   0.951   0.021  15.647 -1.0818 -2.2100  0.6276
 9683TIP3   OH250463   6.612   4.789   1.020 -0.0428 -0.5354 -0.8293
 9683TIP3    H150464   6.517   4.774   1.012  0.1976 -2.0841 -1.0492
 9683TIP3    H250465   6.619   4.876   1.060 -1.5826 -0.8433  0.2155
 9684TIP3   OH250466   1.439   4.691  16.572 -0.2251 -0.4568 -0.0358
 9684TIP3    H150467   1.351   4.697  16.536  0.6423  0.5949 -2.2080
 9684TIP3    H250468   1.427   4.660  16.662 -2.7924  0.0173 -0.1459
 9685TIP3   OH250469   2.684   2.999  12.040  0.4746 -0.1144  0.6583
 9685TIP3    H150470   2.609   3.017  11.983  0.5326  0.3201  0.7158
 9685TIP3    H250471   2.756   2.983  11.979  0.0159 -2.0797  0.5627
 9686TIP3   OH250472   2.897   0.462  12.156  0.1486  0.5117  0.0031
 9686TIP3    H150473   2.892   0.525  12.084  1.1762  0.8330  0.1892
 9686TIP3    H250474   2.877   0.377  12.116 -2.5106  1.0782 -0.0127
 9687TIP3   OH250475   6.450   2.613   2.102 -0.1178 -0.0049 -0.8316
 9687TIP3    H150476   6.390   2.646   2.035 -0.7481  0.4564 -0.0604
 9687TIP3    H250477   6.419   2.654   2.183 -0.4265 -1.8752  0.0349
 9688TIP3   OH250478   1.153   5.935   3.434  0.2489  0.6480  0.6803
 9688TIP3    H150479   1.065   5.898   3.426  0.1950  0.6773  1.1479
 9688TIP3    H250480   1.211   5.861   3.415  0.1716 -0.1085  3.0976
 9689TIP3   OH250481   3.883   4.491  13.814  0.2790 -0.5366 -0.2068
 9689TIP3    H150482   3.793   4.513  13.838  1.0695  1.4237  1.1356
 9689TIP3    H250483   3.888   4.513  13.721 -0.5539 -0.4610 -0.2459
 9690TIP3   OH250484   0.214   2.172   4.035  0.5707 -0.0918  0.7886
 9690TIP3    H150485   0.214   2.124   4.117 -1.4781 -0.6224  0.5392
 9690TIP3    H250486   0.210   2.105   3.967  3.7341  0.2661  0.0952
 9691TIP3   OH250487   6.501   4.221  16.524 -0.1087 -0.5154 -0.1082
 9691TIP3    H150488   6.562   4.294  16.533  0.8315 -1.5052  2.6711
 9691TIP3    H250489   6.531   4.174  16.447  0.7912  0.6731 -0.5210
 9692TIP3   OH250490   4.527   6.075   5.245  0.0851  0.1748 -0.2389
 9692TIP3    H150491   4.521   6.149   5.185  1.6460 -0.9693 -1.8865
 9692TIP3    H250492   4.616   6.080   5.280 -0.2943 -0.0902  0.8129
 9693TIP3   OH250493   3.857   6.488  15.570  0.2882 -0.0205  0.5854
 9693TIP3    H150494   3.892   6.439  15.495  0.0893  0.3138  0.2725
 9693TIP3    H250495   3.763   6.471  15.568  0.0853  1.1412 -0.0939
 9694TIP3   OH250496   6.596   1.410  10.500 -0.5046  0.3086 -0.2705
 9694TIP3    H150497   6.671   1.367  10.458 -0.4481 -0.7241  0.8049
 9694TIP3    H250498   6.543   1.337  10.534 -0.8334  1.0675  0.9119
 9695TIP3   OH250499   1.102   2.158   1.101 -0.2968  0.0729 -0.5300
 9695TIP3    H150500   1.088   2.143   1.008 -0.5512  0.7623 -0.6096
 9695TIP3    H250501   1.160   2.235   1.104 -0.9754  0.5775 -0.1138
 9696TIP3   OH250502   0.220   2.367   0.836 -0.5088  0.1541  0.7717
 9696TIP3    H150503   0.142   2.410   0.801 -0.1864 -2.0842 -3.2237
 9696TIP3    H250504   0.187   2.291   0.884 -0.8243  0.5099  1.1219
 9697TIP3   OH250505   5.463   2.321  12.013 -0.3331 -0.3121 -0.0755
 9697TIP3    H150506   5.430   2.407  11.985 -0.6812 -0.2982  0.3525
 9697TIP3    H250507   5.536   2.342  12.071 -1.1694 -0.2594  0.9824
 9698TIP3   OH250508   2.129   1.217   4.949  0.2285 -0.0125  1.1496
 9698TIP3    H150509   2.087   1.195   4.866  0.6902  0.2901  0.8310
 9698TIP3    H250510   2.113   1.140   5.005  1.4833 -1.0175  0.1874
 9699TIP3   OH250511   0.930   5.603  15.855 -0.6857  0.3102  0.4519
 9699TIP3    H150512   1.014   5.594  15.809 -1.0949 -1.0281 -0.0902
 9699TIP3    H250513   0.933   5.535  15.922 -1.6997 -0.3829 -0.1768
 9700TIP3   OH250514   1.677   2.120  15.682 -0.0246  0.3972  0.2995
 9700TIP3    H150515   1.585   2.145  15.691 -0.1865 -0.6248  1.8678
 9700TIP3    H250516   1.674   2.043  15.625 -0.1452  0.3999  0.3005
 9701TIP3   OH250517   0.195   2.626   1.693  0.1810 -0.5953 -0.3962
 9701TIP3    H150518   0.119   2.637   1.636  0.6360 -0.9774 -1.0885
 9701TIP3    H250519   0.229   2.539   1.672 -0.0610 -1.0568  0.9796
 9702TIP3   OH250520   4.244   6.617  12.916  0.1518  0.1392 -0.4439
 9702TIP3    H150521   4.250   6.631  13.011  0.3975 -0.8037 -0.3106
 9702TIP3    H250522   4.323   6.567  12.894  1.0260  1.8579 -1.4557
 9703TIP3   OH250523   1.599   1.706   3.109 -0.2518 -0.2017  0.6901
 9703TIP3    H150524   1.523   1.752   3.145  1.5469  1.5131  2.6269
 9703TIP3    H250525   1.663   1.708   3.180  1.6893 -1.3762 -0.9354
 9704TIP3   OH250526   4.528   4.911  11.543 -0.4720  0.1774 -0.1596
 9704TIP3    H150527   4.573   4.937  11.624 -1.2514  1.8268 -0.1980
 9704TIP3    H250528   4.435   4.913  11.566 -0.6568 -0.2889 -0.8408
 9705TIP3   OH250529   5.744   1.686   1.463  0.2268  0.0918  0.3137
 9705TIP3    H150530   5.838   1.706   1.466 -0.2144  2.3452  1.3536
 9705TIP3    H250531   5.705   1.757   1.413 -0.7855 -1.7488 -1.6504
 9706TIP3   OH250532   1.858   0.183   4.078 -0.0444  0.1504  0.2620
 9706TIP3    H150533   1.820   0.120   4.017  0.5644  1.1258 -1.1693
 9706TIP3    H250534   1.783   0.214   4.130 -0.1262 -3.0124  2.3022
 9707TIP3   OH250535   0.549   4.353  12.370 -0.1228  0.2213 -0.3006
 9707TIP3    H150536   0.555   4.265  12.407  1.0694  0.4025  0.0021
 9707TIP3    H250537   0.589   4.344  12.283 -1.6886  0.0828 -1.0292
 9708TIP3   OH250538   0.466   6.631   2.223 -0.0579  0.0078 -0.1421
 9708TIP3    H150539   0.474   6.556   2.282  0.3475  0.4946  0.4261
 9708TIP3    H250540   0.418   6.597   2.148  0.2043 -0.8508  0.0673
 9709TIP3   OH250541   1.274   0.596   5.750 -0.0009 -0.4356  0.3991
 9709TIP3    H150542   1.368   0.596   5.733 -0.4543 -0.7771 -2.4506
 9709TIP3    H250543   1.264   0.654   5.826  2.3517  0.7007 -0.0691
 9710TIP3   OH250544   6.310   3.860  12.099 -0.2725  0.6041  0.3465
 9710TIP3    H150545   6.291   3.946  12.137  0.9106  0.7186  0.7206
 9710TIP3    H250546   6.226   3.815  12.100 -1.0164  1.9100 -0.2996
 9711TIP3   OH250547   1.426   5.131  15.958  0.5474 -0.0127 -0.3914
 9711TIP3    H150548   1.487   5.172  16.019  0.6459 -0.1275 -0.4130
 9711TIP3    H250549   1.475   5.058  15.920  0.7494  0.5364 -1.1926
 9712TIP3   OH250550   1.883   6.520   4.456  0.2613 -0.1474 -0.1794
 9712TIP3    H150551   1.924   6.494   4.373  0.0130 -1.6484  0.1536
 9712TIP3    H250552   1.793   6.489   4.449 -0.0326  0.5689  0.2860
 9713TIP3   OH250553   5.216   3.969  13.040  0.1089  0.1932 -0.2327
 9713TIP3    H150554   5.311   3.954  13.041 -0.1494 -1.6605  0.2143
 9713TIP3    H250555   5.204   4.044  13.098  1.3863  1.1867 -1.1838
 9714TIP3   OH250556   4.157   0.173   0.730 -0.0627 -0.1114 -0.3740
 9714TIP3    H150557   4.147   0.147   0.821  1.2313 -0.1509 -0.2217
 9714TIP3    H250558   4.249   0.199   0.722 -0.6395  1.8492 -1.1772
 9715TIP3   OH250559   2.263   0.482   3.156  0.2323 -0.6808 -0.3243
 9715TIP3    H150560   2.273   0.391   3.129 -1.2702 -0.8472 -0.3872
 9715TIP3    H250561   2.236   0.527   3.075  0.4062 -0.2885 -0.1643
 9716TIP3   OH250562   0.563   2.240   5.269 -0.7187  0.1457  0.1711
 9716TIP3    H150563   0.542   2.181   5.341  0.2107 -0.8516 -0.3447
 9716TIP3    H250564   0.502   2.217   5.200 -0.5555  0.0035  0.0750
 9717TIP3   OH250565   4.913   0.213  10.724 -0.0105  0.3456  0.0400
 9717TIP3    H150566   4.833   0.161  10.717  1.1730 -1.6377  0.4927
 9717TIP3    H250567   4.939   0.205  10.816  0.5563  1.2177 -0.0297
 9718TIP3   OH250568   2.390   4.781  16.395 -0.1591  0.0760 -0.0921
 9718TIP3    H150569   2.462   4.792  16.332 -1.3913  1.1988 -1.3757
 9718TIP3    H250570   2.433   4.752  16.475  1.4012 -2.3264 -1.6608
 9719TIP3   OH250571   1.926   1.199  13.118  0.2774 -0.1036 -0.4866
 9719TIP3    H150572   1.868   1.151  13.059  0.1847 -1.2681  0.5178
 9719TIP3    H250573   1.871   1.222  13.193  0.5760  0.7056 -0.5044
 9720TIP3   OH250574   5.552   5.423   1.220 -0.2649 -0.2109 -0.0160
 9720TIP3    H150575   5.507   5.423   1.135  0.2801 -0.6631 -0.3096
 9720TIP3    H250576   5.481   5.420   1.284 -0.7675  2.2343 -0.3796
 9721TIP3   OH250577   2.549   0.841   3.734  0.2141 -0.2058  0.3011
 9721TIP3    H150578   2.520   0.790   3.658  0.5690  2.5803 -1.8585
 9721TIP3    H250579   2.470   0.886   3.765  0.2644 -0.5935  1.0219
 9722TIP3   OH250580   3.819   6.347  12.885  0.1502  0.0609  0.4846
 9722TIP3    H150581   3.771   6.421  12.920  0.2150  0.4912 -0.3118
 9722TIP3    H250582   3.876   6.384  12.817  0.3251 -0.6823  0.2078
 9723TIP3   OH250583   3.323   0.578  16.706 -0.5419  0.1395  0.3749
 9723TIP3    H150584   3.398   0.519  16.699 -0.2967  0.5399 -0.4591
 9723TIP3    H250585   3.361   0.665  16.713 -0.9193  0.3061  0.4077
 9724TIP3   OH250586   2.641   5.959  16.233 -0.3571 -0.2242  0.2069
 9724TIP3    H150587   2.545   5.960  16.233 -0.3587 -0.2059 -0.3750
 9724TIP3    H250588   2.664   5.866  16.229 -0.3718 -0.1833 -2.0626
 9725TIP3   OH250589   4.483   1.604   0.967  0.2123 -0.3758 -0.2416
 9725TIP3    H150590   4.466   1.698   0.964  2.8404  0.2595  1.2002
 9725TIP3    H250591   4.399   1.565   0.990 -0.9554  1.5872 -0.8874
 9726TIP3   OH250592   3.798   4.432   3.986 -0.3867 -0.5245 -0.2668
 9726TIP3    H150593   3.770   4.435   3.894  0.9115  0.0623 -0.6624
 9726TIP3    H250594   3.785   4.521   4.018  2.3544  0.1884 -0.9082
 9727TIP3   OH250595   0.889   1.474  13.463  0.3444 -0.0470  0.3979
 9727TIP3    H150596   0.892   1.413  13.536  1.4138 -1.3031 -0.6506
 9727TIP3    H250597   0.972   1.523  13.469  1.4869 -1.6809 -1.1843
 9728TIP3   OH250598   2.636   3.706   4.910  0.4145 -0.5990 -0.1483
 9728TIP3    H150599   2.588   3.707   4.827 -1.1458  2.0403  0.6559
 9728TIP3    H250600   2.670   3.795   4.918  1.0699 -0.9870  1.7614
 9729TIP3   OH250601   3.097   5.960  17.031  0.5922  0.0245  0.2563
 9729TIP3    H150602   3.149   5.992  16.957  0.1141  1.3091  0.4600
 9729TIP3    H250603   3.146   5.884  17.062  1.0610 -0.2478 -1.0638
 9730TIP3   OH250604   1.974   1.146   5.795 -0.1042  1.0054  0.1466
 9730TIP3    H150605   2.045   1.202   5.826 -0.4108  0.5975  1.6543
 9730TIP3    H250606   1.994   1.060   5.831  0.0015  0.2642 -1.5930
 9731TIP3   OH250607   5.367   0.376  16.772  0.0792  0.7224 -0.1402
 9731TIP3    H150608   5.387   0.317  16.845  0.6435  0.6435 -0.3567
 9731TIP3    H250609   5.272   0.372  16.764 -0.0616  1.2388  1.0161
 9732TIP3   OH250610   0.614   2.558  13.222  0.2585  0.5496  0.0468
 9732TIP3    H150611   0.608   2.521  13.310  0.9841 -0.1504 -0.1774
 9732TIP3    H250612   0.539   2.522  13.175  1.5523 -1.6345 -0.4925
 9733TIP3   OH250613   5.858   3.630  14.812 -0.2828 -0.0680 -0.4406
 9733TIP3    H150614   5.807   3.709  14.832 -1.0831 -0.4759 -0.8079
 9733TIP3    H250615   5.815   3.560  14.861  0.2294 -0.3331 -0.3671
 9734TIP3   OH250616   2.033   5.541  15.109  0.1269  0.2277 -0.0182
 9734TIP3    H150617   2.018   5.588  15.027  1.4643  0.6436 -0.0609
 9734TIP3    H250618   2.122   5.567  15.135 -0.1649 -0.1148  1.4172
 9735TIP3   OH250619   4.644   5.999   2.309 -0.4256  0.3016 -0.3648
 9735TIP3    H150620   4.681   6.042   2.233 -0.7430 -0.3300 -0.8896
 9735TIP3    H250621   4.718   5.987   2.368 -0.5012  2.3699  0.2028
 9736TIP3   OH250622   0.576   5.278  13.125  0.4982  0.0538  0.0184
 9736TIP3    H150623   0.642   5.329  13.171 -0.1675  1.3953 -0.4629
 9736TIP3    H250624   0.498   5.283  13.180  0.8027 -1.7153  0.7006
 9737TIP3   OH250625   6.160   4.207  15.482  0.2624 -0.6671 -0.0054
 9737TIP3    H150626   6.073   4.241  15.462 -0.1838 -1.5086  0.4429
 9737TIP3    H250627   6.208   4.213  15.399 -0.3553 -0.5806 -0.3635
 9738TIP3   OH250628   4.007   6.288   2.394 -0.5106 -0.5897  0.0334
 9738TIP3    H150629   4.099   6.315   2.388 -0.4130 -0.8844  0.1443
 9738TIP3    H250630   3.983   6.305   2.485 -1.3110  1.7780 -0.5637
 9739TIP3   OH250631   1.667   3.109  16.518  0.1075  0.0827  0.1895
 9739TIP3    H150632   1.713   3.164  16.455  0.0666  0.9686  0.9085
 9739TIP3    H250633   1.736   3.073  16.574  0.1151 -0.4305 -0.1466
 9740TIP3   OH250634   4.605   5.002  15.069  0.1867  0.2870 -0.1950
 9740TIP3    H150635   4.684   4.963  15.106  1.9131  2.1869 -1.6639
 9740TIP3    H250636   4.537   4.985  15.135  1.8413 -1.2047  1.2268
 9741TIP3   OH250637   2.137   3.395  16.157 -0.2502  0.3834  0.0896
 9741TIP3    H150638   2.219   3.409  16.111 -0.5952  0.9613 -0.3557
 9741TIP3    H250639   2.138   3.301  16.179  0.9140  0.5553  0.8733
 9742TIP3   OH250640   6.090   6.460  11.817 -0.0492 -0.3784  0.0823
 9742TIP3    H150641   6.047   6.391  11.868  0.2191 -1.7127 -1.3911
 9742TIP3    H250642   6.054   6.542  11.850 -0.6336 -1.2419  1.6693
 9743TIP3   OH250643   5.535   6.726   2.850 -0.7697  0.4479  0.0380
 9743TIP3    H150644   5.503   6.808   2.813 -1.4341  0.5029  0.7186
 9743TIP3    H250645   5.509   6.659   2.786 -2.4446  0.4674  0.6659
 9744TIP3   OH250646   1.524   0.169  11.460 -0.2570  0.2022 -0.1544
 9744TIP3    H150647   1.504   0.076  11.470  1.3237 -0.1704 -0.2195
 9744TIP3    H250648   1.474   0.196  11.383 -0.7140 -0.5932 -0.1487
 9745TIP3   OH250649   0.896   2.035   5.802 -0.4085  0.1175 -0.4192
 9745TIP3    H150650   0.933   2.093   5.735 -0.5607  1.3536  0.5213
 9745TIP3    H250651   0.849   2.094   5.861 -0.7299 -1.0007  0.4842
 9746TIP3   OH250652   5.789   4.638   3.032 -0.5268 -0.2648  0.2665
 9746TIP3    H150653   5.777   4.544   3.042  3.4467 -0.8725  1.4320
 9746TIP3    H250654   5.870   4.647   2.982 -1.3247  2.6019 -0.7419
 9747TIP3   OH250655   2.720   2.786  11.000 -0.0159 -0.7235  0.0520
 9747TIP3    H150656   2.676   2.854  10.948 -1.4879 -0.2707  1.7782
 9747TIP3    H250657   2.754   2.833  11.076  0.7644 -1.6058  0.2584
 9748TIP3   OH250658   5.745   1.851   5.654  0.1220  0.1079 -0.7695
 9748TIP3    H150659   5.669   1.834   5.598  0.1403  0.0872 -0.7885
 9748TIP3    H250660   5.725   1.805   5.736 -0.0539  0.4126 -0.6377
 9749TIP3   OH250661   1.595   5.219   5.139  0.3764 -0.2328  0.2646
 9749TIP3    H150662   1.606   5.141   5.085  0.9438  1.3408 -2.0294
 9749TIP3    H250663   1.669   5.217   5.200  0.4540 -1.3876  0.1541
 9750TIP3   OH250664   2.140   2.528  15.441  0.0265  0.3517  0.2362
 9750TIP3    H150665   2.062   2.515  15.386  0.1672  0.5079  0.0002
 9750TIP3    H250666   2.209   2.551  15.379  0.2242  0.3683  0.4641
 9751TIP3   OH250667   1.831   3.803   1.993  0.1543  0.2126 -0.2086
 9751TIP3    H150668   1.761   3.760   2.041 -2.1871  0.0842 -3.4372
 9751TIP3    H250669   1.888   3.731   1.964  1.5476  0.2870  2.0975
 9752TIP3   OH250670   4.482   0.963  14.054 -0.0370 -0.0550  0.1066
 9752TIP3    H150671   4.520   0.875  14.057  0.8278  0.3334  0.7801
 9752TIP3    H250672   4.428   0.969  14.133 -0.4952 -0.1548 -0.1966
 9753TIP3   OH250673   5.592   0.114   3.671  0.4580 -0.7194 -0.5687
 9753TIP3    H150674   5.611   0.021   3.686 -0.2034 -1.1059 -1.9505
 9753TIP3    H250675   5.626   0.158   3.749  1.4356 -2.0362 -0.2064
 9754TIP3   OH250676   0.460   1.575  13.423  0.7849  0.4509 -1.0455
 9754TIP3    H150677   0.422   1.523  13.353 -1.8369 -1.1006  1.3028
 9754TIP3    H250678   0.521   1.516  13.468 -1.2298 -0.3577  0.8320
 9755TIP3   OH250679   5.575   0.894   3.630  0.0021 -0.3726 -0.5660
 9755TIP3    H150680   5.492   0.885   3.584  0.4000 -0.6262 -1.2478
 9755TIP3    H250681   5.641   0.866   3.567  0.5906 -0.3843  0.0396
 9756TIP3   OH250682   2.690   5.470  17.079 -0.0794  0.3584  0.0630
 9756TIP3    H150683   2.779   5.490  17.051 -0.1633  0.2666 -0.2838
 9756TIP3    H250684   2.678   5.519  17.160  0.5595 -0.2706  0.5476
 9757TIP3   OH250685   3.195   6.650   6.614 -0.3870 -0.1981  0.0061
 9757TIP3    H150686   3.265   6.624   6.555 -1.4426 -0.0649 -1.3396
 9757TIP3    H250687   3.214   6.742   6.634  0.0250 -0.2716 -0.0329
 9758TIP3   OH250688   4.165   1.161  11.165 -0.6484  0.5120 -0.0197
 9758TIP3    H150689   4.073   1.133  11.164 -0.3139 -0.6371 -1.6363
 9758TIP3    H250690   4.178   1.203  11.081  0.6832 -0.7071 -0.4580
 9759TIP3   OH250691   1.715   4.939   4.385 -0.7893 -0.7507  0.3785
 9759TIP3    H150692   1.730   5.008   4.450 -0.3706 -0.9014  0.4462
 9759TIP3    H250693   1.803   4.911   4.359 -0.9561 -1.1790  0.2650
 9760TIP3   OH250694   0.473   1.626   3.892  0.3848  0.1201  0.5879
 9760TIP3    H150695   0.410   1.690   3.857 -1.1022 -0.6467  1.7179
 9760TIP3    H250696   0.519   1.593   3.815 -0.6325  0.6906 -0.2991
 9761TIP3   OH250697   0.429   5.097  14.811  0.3990  0.1659 -0.0326
 9761TIP3    H150698   0.349   5.054  14.841  0.9541 -1.7377 -1.1058
 9761TIP3    H250699   0.491   5.085  14.883 -0.2107  1.5448  0.7534
 9762TIP3   OH250700   6.575   4.372   1.317 -0.0609 -0.2772 -0.0943
 9762TIP3    H150701   6.624   4.441   1.362  0.0647  0.3551 -1.1663
 9762TIP3    H250702   6.531   4.325   1.387 -0.3549  1.0474  0.6521
 9763TIP3   OH250703   6.268   5.221  16.908 -0.2125  0.2347  0.0464
 9763TIP3    H150704   6.287   5.157  16.975  2.3625  0.1173 -0.6602
 9763TIP3    H250705   6.298   5.180  16.826 -2.1579  0.8221 -1.0216
 9764TIP3   OH250706   5.057   1.146  12.030 -0.3905  0.2190  0.3881
 9764TIP3    H150707   5.026   1.189  11.950  0.4422  0.8941  0.4135
 9764TIP3    H250708   5.016   1.060  12.028 -2.3192  1.0608  0.4483
 9765TIP3   OH250709   5.360   0.847   1.674  0.3767  0.4842  0.5710
 9765TIP3    H150710   5.353   0.907   1.748 -3.0758  0.7981  0.1109
 9765TIP3    H250711   5.331   0.763   1.709 -2.1474  0.8221 -0.5207
 9766TIP3   OH250712   4.256   4.710  14.325 -0.0495 -0.5043 -0.0073
 9766TIP3    H150713   4.277   4.740  14.414 -1.7882  0.7522  0.0399
 9766TIP3    H250714   4.162   4.692  14.328 -0.3245  0.4332 -1.8061
 9767TIP3   OH250715   6.497   4.297   1.059 -0.3979  0.6125  0.6383
 9767TIP3    H150716   6.535   4.342   1.134  0.0169 -0.6147  1.2068
 9767TIP3    H250717   6.540   4.335   0.983  1.3838 -0.1370  1.2202
 9768TIP3   OH250718   1.866   5.552   4.168  0.0040  0.1576  0.0243
 9768TIP3    H150719   1.905   5.467   4.147  0.1920  0.3061 -0.2266
 9768TIP3    H250720   1.856   5.551   4.263 -0.5257 -0.3787 -0.0335
 9769TIP3   OH250721   6.427   5.524   1.361  0.6118 -0.1518  0.5262
 9769TIP3    H150722   6.351   5.581   1.348  0.4585 -0.2730  0.8943
 9769TIP3    H250723   6.498   5.583   1.384  0.1170 -0.2175  2.3727
 9770TIP3   OH250724   5.320   2.575   2.121 -0.4549 -0.1568 -0.2063
 9770TIP3    H150725   5.365   2.513   2.178 -1.1396  1.0629  1.7757
 9770TIP3    H250726   5.385   2.599   2.055  0.7062 -0.9056  0.6318
 9771TIP3   OH250727   6.621   3.303  12.782  0.1449  0.0510  0.0644
 9771TIP3    H150728   6.694   3.280  12.725 -0.9033  0.5722 -1.5246
 9771TIP3    H250729   6.663   3.342  12.859  1.5732 -0.5356 -0.3727
 9772TIP3   OH250730   6.708   3.050   1.926 -0.4534  0.2729  0.0403
 9772TIP3    H150731   6.749   3.124   1.970 -1.2832  0.5327  0.4095
 9772TIP3    H250732   6.761   3.035   1.849 -0.5772  1.6054 -0.3279
 9773TIP3   OH250733   2.099   2.093  12.185 -0.1587  0.2890  0.2668
 9773TIP3    H150734   2.066   2.182  12.170  0.1808  0.3658 -0.0637
 9773TIP3    H250735   2.042   2.037  12.133 -0.6413  0.2640  0.8165
 9774TIP3   OH250736   4.194   6.665   3.106 -0.5151  0.3827 -0.2253
 9774TIP3    H150737   4.179   6.755   3.135  0.8845  0.6492 -0.2758
 9774TIP3    H250738   4.148   6.659   3.022  1.1274  1.7428 -1.2930
 9775TIP3   OH250739   0.334   3.271  14.240  0.7576  0.0854  0.8124
 9775TIP3    H150740   0.363   3.340  14.180 -0.0079  0.2434  0.6063
 9775TIP3    H250741   0.399   3.202  14.231 -0.4829 -0.8822 -1.9439
 9776TIP3   OH250742   0.033   4.692   1.929  0.1421  0.0832 -0.3825
 9776TIP3    H150743  -0.014   4.692   2.013  0.0233 -0.9467 -0.4452
 9776TIP3    H250744   0.119   4.655   1.949  0.2130  0.0949 -0.6650
 9777TIP3   OH250745   0.076   6.553  11.247  0.0973  0.3346  0.3513
 9777TIP3    H150746  -0.003   6.545  11.194 -0.2931  2.2844  0.5731
 9777TIP3    H250747   0.044   6.560  11.337  0.6153 -0.2214  0.5923
 9778TIP3   OH250748   0.979   6.204   0.165  0.2220  0.0782  0.4065
 9778TIP3    H150749   1.009   6.249   0.086  1.9455  0.2141  1.0876
 9778TIP3    H250750   0.914   6.141   0.133  0.4453  0.5256 -1.0318
 9779TIP3   OH250751   6.686   4.618  13.641 -0.5945 -0.0250 -0.0463
 9779TIP3    H150752   6.610   4.624  13.699  1.2508  0.2857  2.4629
 9779TIP3    H250753   6.729   4.536  13.665 -0.7878 -0.9255 -2.4146
 9780TIP3   OH250754   0.910   0.611   3.544 -0.0160  0.0637  0.1779
 9780TIP3    H150755   0.910   0.666   3.622 -0.3930 -0.8934  0.8752
 9780TIP3    H250756   0.934   0.524   3.576 -1.3980 -0.6233 -0.5643
 9781TIP3   OH250757   0.971   3.269  16.994  0.1289  0.3279  0.8747
 9781TIP3    H150758   0.904   3.337  17.000 -0.8632 -0.6932  2.2046
 9781TIP3    H250759   0.929   3.192  17.033  1.1186 -1.1139 -0.7858
 9782TIP3   OH250760   3.134   4.960   3.272 -0.1428  0.1485 -0.1204
 9782TIP3    H150761   3.061   4.909   3.237 -0.6633 -0.1411  1.2969
 9782TIP3    H250762   3.124   5.046   3.233 -2.3562  0.6562  1.3713
 9783TIP3   OH250763   4.450   2.883   5.879  0.0541 -0.0763 -0.1809
 9783TIP3    H150764   4.481   2.812   5.935 -1.3462 -0.0161  0.7137
 9783TIP3    H250765   4.451   2.960   5.935 -0.5471  0.1641 -0.4927
 9784TIP3   OH250766   1.915   4.929   2.278 -0.1219 -0.2168 -0.0569
 9784TIP3    H150767   1.857   4.865   2.237 -0.5970 -0.5148  1.0531
 9784TIP3    H250768   1.928   4.897   2.367  0.4724  0.6880  0.2009
 9785TIP3   OH250769   6.282   0.382  16.567 -0.2812  0.1253 -0.1876
 9785TIP3    H150770   6.300   0.288  16.564 -1.4592 -0.1235  0.0656
 9785TIP3    H250771   6.266   0.407  16.476 -0.9156 -0.1119 -0.1391
 9786TIP3   OH250772   4.222   4.797  12.876  0.0133 -0.5613 -0.1264
 9786TIP3    H150773   4.220   4.811  12.782 -0.0179  0.4816  0.0233
 9786TIP3    H250774   4.144   4.841  12.909  1.1333  0.9464  0.6111
 9787TIP3   OH250775   3.608   0.197  14.646  0.7094  0.5913 -0.2541
 9787TIP3    H150776   3.538   0.226  14.704 -1.5264 -1.2136 -1.8531
 9787TIP3    H250777   3.647   0.122  14.692 -2.1334 -1.9039 -1.5196
 9788TIP3   OH250778   0.965   1.948  12.356 -0.6866 -0.2158  0.3059
 9788TIP3    H150779   1.034   1.990  12.305 -0.9809 -0.9042 -0.6993
 9788TIP3    H250780   0.972   1.987  12.443  0.0518  0.7418 -0.1624
 9789TIP3   OH250781   3.358   4.876   3.452  0.4545 -0.8680  0.1411
 9789TIP3    H150782   3.340   4.813   3.382 -0.9084 -0.1554 -0.1849
 9789TIP3    H250783   3.301   4.951   3.432  2.0195  0.4700  0.5279
 9790TIP3   OH250784   0.194   1.625   5.248  0.3707  0.7210 -0.0781
 9790TIP3    H150785   0.283   1.630   5.283  0.6631 -0.1514 -0.6665
 9790TIP3    H250786   0.204   1.638   5.154 -0.5163  4.0991  0.1633
 9791TIP3   OH250787   3.631   3.136   2.481 -0.5144  0.7778 -0.3123
 9791TIP3    H150788   3.565   3.130   2.412  0.7635  2.0769 -1.7130
 9791TIP3    H250789   3.610   3.218   2.526 -0.8039  0.3798  0.2913
 9792TIP3   OH250790   3.464   2.847  10.765 -0.2190  0.1654  0.2042
 9792TIP3    H150791   3.547   2.883  10.732  0.6559  0.3383  2.3761
 9792TIP3    H250792   3.400   2.917  10.751  0.2359  0.4476 -0.5226
 9793TIP3   OH250793   5.832   0.362   1.832 -0.3071  0.0896  0.1025
 9793TIP3    H150794   5.752   0.409   1.856  0.8662  1.2278  2.0941
 9793TIP3    H250795   5.871   0.338   1.916  2.4168  1.2981 -0.7252
 9794TIP3   OH250796   5.910   5.938  14.291  0.1748  0.0891  0.0932
 9794TIP3    H150797   5.938   5.884  14.365 -0.3972  1.6932  1.5352
 9794TIP3    H250798   5.945   6.025  14.311 -0.1954  0.6028 -1.4231
 9795TIP3   OH250799   4.336   2.655   2.517 -0.3108  0.0240 -0.3052
 9795TIP3    H150800   4.389   2.690   2.588  0.4741 -2.0849  0.2253
 9795TIP3    H250801   4.344   2.719   2.447  2.5282  0.0536 -0.0600
 9796TIP3   OH250802   4.546   2.734   1.742 -0.2876 -0.0640  0.1614
 9796TIP3    H150803   4.620   2.771   1.792 -1.4003  0.6453  1.3452
 9796TIP3    H250804   4.484   2.706   1.809 -0.5598 -1.8466 -0.7962
 9797TIP3   OH250805   4.782   6.379  17.098  0.7672 -0.1132 -0.4218
 9797TIP3    H150806   4.864   6.360  17.052  0.7817  0.3983 -0.6169
 9797TIP3    H250807   4.713   6.351  17.036  0.7672  1.7029 -1.3006
 9798TIP3   OH250808   5.745   2.045  12.771 -0.0319 -0.7348 -0.2276
 9798TIP3    H150809   5.806   2.032  12.844  0.2901 -1.2485 -0.5858
 9798TIP3    H250810   5.775   1.985  12.703 -1.5484 -1.7829 -0.0230
 9799TIP3   OH250811   4.760   0.092   3.075  0.2176 -0.0010  0.0444
 9799TIP3    H150812   4.840   0.106   3.023 -0.4679 -0.4993 -1.1783
 9799TIP3    H250813   4.788   0.108   3.165  2.1620 -1.9759 -0.1207
 9800TIP3   OH250814   5.119   5.978  15.504 -0.2036  0.0824 -0.6968
 9800TIP3    H150815   5.054   6.046  15.522 -1.4281  0.2362 -4.6375
 9800TIP3    H250816   5.185   6.021  15.450 -1.1291 -1.7253 -3.5050
 9801TIP3   OH250817   5.995   2.399   2.626  0.3999 -0.0728 -1.2109
 9801TIP3    H150818   5.956   2.485   2.614 -0.5923 -0.2278  0.5854
 9801TIP3    H250819   6.083   2.407   2.588 -0.0679  1.3776 -2.0574
 9802TIP3   OH250820   5.212   3.107  17.012  0.3824  0.4365 -0.2710
 9802TIP3    H150821   5.164   3.048  17.070  1.3893 -0.6902 -0.5537
 9802TIP3    H250822   5.173   3.193  17.027 -0.9123 -0.2507  0.3639
 9803TIP3   OH250823   4.397   2.169   3.402  0.0446 -0.0566 -0.3255
 9803TIP3    H150824   4.486   2.158   3.437 -0.2182  0.5320  0.5566
 9803TIP3    H250825   4.383   2.263   3.405 -0.0961 -0.0179 -1.7854
 9804TIP3   OH250826   3.463   5.011  12.107 -0.1368  0.0397  0.0797
 9804TIP3    H150827   3.546   4.980  12.143 -1.3215 -0.3941  2.6751
 9804TIP3    H250828   3.476   5.105  12.093  1.4034 -0.3785 -1.5890
 9805TIP3   OH250829   2.746   5.703  12.739  0.2576  0.8441 -0.5044
 9805TIP3    H150830   2.750   5.740  12.651  0.9440  1.6016 -0.1810
 9805TIP3    H250831   2.799   5.624  12.735  1.1244  1.4085 -0.5533
 9806TIP3   OH250832   5.645   2.472  15.568  0.1461  0.0856  0.0955
 9806TIP3    H150833   5.722   2.439  15.615 -0.3507 -0.9660  0.1943
 9806TIP3    H250834   5.668   2.462  15.476  0.2220  0.0113  0.1215
 9807TIP3   OH250835   5.742   1.282  12.282 -1.1406 -0.0429  0.2454
 9807TIP3    H150836   5.725   1.375  12.271 -0.8893 -0.0101  0.1421
 9807TIP3    H250837   5.716   1.264  12.372 -0.5898  0.2582  0.4665
 9808TIP3   OH250838   4.919   6.426   0.592 -0.2212 -0.8471 -0.5752
 9808TIP3    H150839   4.945   6.469   0.674 -1.7750 -0.1899 -0.3759
 9808TIP3    H250840   4.911   6.334   0.614 -0.3061 -0.7190 -0.0639
 9809TIP3   OH250841   3.779   5.808   4.425 -0.6911 -0.0717  1.0086
 9809TIP3    H150842   3.744   5.759   4.499 -0.5963 -1.0213  0.4505
 9809TIP3    H250843   3.728   5.777   4.350  0.0796 -0.0898  0.4824
 9810TIP3   OH250844   1.097   6.137  11.670 -0.4367 -0.2383 -0.2624
 9810TIP3    H150845   1.102   6.047  11.701 -0.8709  0.0146  0.5706
 9810TIP3    H250846   1.181   6.152  11.627 -0.8078 -1.4014 -1.4616
 9811TIP3   OH250847   0.295   1.044  14.539 -0.1525 -0.1288  0.6235
 9811TIP3    H150848   0.279   0.969  14.482  2.2528 -0.8830  0.8133
 9811TIP3    H250849   0.235   1.032  14.612 -0.8708 -1.0304 -0.0893
 9812TIP3   OH250850   3.855   1.461  12.553 -0.1459 -0.5946  0.4153
 9812TIP3    H150851   3.850   1.396  12.623 -1.3225 -0.8651  0.1195
 9812TIP3    H250852   3.921   1.427  12.493  0.8072 -0.4038  1.3401
 9813TIP3   OH250853   4.251   1.979  12.632 -0.1064  0.0750 -0.3651
 9813TIP3    H150854   4.189   2.031  12.582 -0.1297 -0.2000 -0.6268
 9813TIP3    H250855   4.337   2.002  12.596 -0.0487  0.5057  0.0427
 9814TIP3   OH250856   5.521   3.633  12.376  0.1500  0.0526 -0.6943
 9814TIP3    H150857   5.491   3.544  12.394  1.6647 -0.2067  0.6457
 9814TIP3    H250858   5.578   3.624  12.299  0.2149 -0.1062 -0.6272
 9815TIP3   OH250859   6.681   1.972  16.657 -0.3579  0.2551 -0.2032
 9815TIP3    H150860   6.727   1.891  16.636 -1.0116 -0.5527  1.2991
 9815TIP3    H250861   6.596   1.963  16.615 -0.7031 -0.1925  0.5664
 9816TIP3   OH250862   4.113   3.993   5.182 -0.0053  0.0530 -0.4319
 9816TIP3    H150863   4.133   3.899   5.181  0.3244  0.1224 -0.4663
 9816TIP3    H250864   4.188   4.033   5.226  0.2940  0.4048 -1.2533
 9817TIP3   OH250865   6.330   4.134   4.677 -0.5329  0.1667 -0.3307
 9817TIP3    H150866   6.237   4.110   4.675 -0.8302  1.2940 -2.1349
 9817TIP3    H250867   6.331   4.219   4.722 -0.2890 -0.1097  0.1954
 9818TIP3   OH250868   0.450   4.415  16.864 -0.0488  0.3321  0.4405
 9818TIP3    H150869   0.543   4.436  16.869  0.0706 -0.1822  0.3961
 9818TIP3    H250870   0.438   4.380  16.776 -0.4273  1.0647  0.1916
 9819TIP3   OH250871   4.411   4.054  13.636  0.4302  0.0987  0.6055
 9819TIP3    H150872   4.398   4.148  13.650  1.5222  0.6879 -1.9120
 9819TIP3    H250873   4.385   4.039  13.545  0.1380 -2.0992  0.9919
 9820TIP3   OH250874   2.722   2.536  16.439  0.2451 -0.1044  0.5701
 9820TIP3    H150875   2.757   2.587  16.366 -0.0119  0.0873  0.5803
 9820TIP3    H250876   2.752   2.447  16.422  0.5699  0.0239  0.4739
 9821TIP3   OH250877   3.185   6.266   0.700  0.4092  0.2551  0.0744
 9821TIP3    H150878   3.175   6.281   0.794  0.5163 -0.4381  0.2048
 9821TIP3    H250879   3.244   6.191   0.694  1.1716  0.8912 -0.5694
 9822TIP3   OH250880   5.293   5.187  14.632  0.3411 -0.6784  0.4073
 9822TIP3    H150881   5.243   5.129  14.576 -0.2049 -1.9804  2.1566
 9822TIP3    H250882   5.328   5.130  14.701  2.4572  0.5463  0.4438
 9823TIP3   OH250883   6.251   3.871   5.578  0.3388  0.1876  0.4030
 9823TIP3    H150884   6.171   3.914   5.548 -0.6571 -1.8206  0.0631
 9823TIP3    H250885   6.320   3.934   5.559 -1.0512  1.6574  0.0041
 9824TIP3   OH250886   0.998   2.690   1.373 -0.1603 -0.3607 -0.6234
 9824TIP3    H150887   1.071   2.736   1.332 -0.8847  1.4626  0.0280
 9824TIP3    H250888   0.986   2.734   1.457 -1.6572 -0.9695 -0.4799
 9825TIP3   OH250889   2.044   6.410  12.843  0.4718 -0.6391  0.1328
 9825TIP3    H150890   2.076   6.387  12.756  0.3128 -0.8754  0.1382
 9825TIP3    H250891   2.009   6.329  12.879  1.1282 -0.6908  0.6710
 9826TIP3   OH250892   6.273   4.464   5.312  0.1841  0.1074  0.1228
 9826TIP3    H150893   6.241   4.442   5.400 -1.1370  0.4642 -0.2444
 9826TIP3    H250894   6.228   4.403   5.254 -0.1341  0.8728 -0.4479
 9827TIP3   OH250895   0.043   4.421   3.216 -0.0802  0.5958  0.0262
 9827TIP3    H150896   0.005   4.370   3.287 -3.3197  0.5998 -1.5446
 9827TIP3    H250897   0.065   4.505   3.256  0.7133 -0.3018  1.5563
 9828TIP3   OH250898   5.086   5.133  15.496 -0.3673  0.3186 -0.0292
 9828TIP3    H150899   4.997   5.135  15.534 -1.8762  0.9321 -3.2550
 9828TIP3    H250900   5.093   5.217  15.450  1.3515 -0.3319 -0.9993
 9829TIP3   OH250901   6.087   5.745  16.866 -0.0964  0.6248 -0.3310
 9829TIP3    H150902   6.114   5.742  16.958  0.2240  0.7625 -0.4182
 9829TIP3    H250903   6.000   5.704  16.864 -1.2545  2.8852  0.4447
 9830TIP3   OH250904   6.144   3.814   1.708  0.9747 -0.2958 -0.2639
 9830TIP3    H150905   6.096   3.832   1.789  0.1465 -1.7478 -0.4019
 9830TIP3    H250906   6.183   3.729   1.722 -0.2518 -1.1836 -1.8495
 9831TIP3   OH250907   2.400   5.089  17.043  0.3809  0.0266  0.3437
 9831TIP3    H150908   2.394   4.995  17.027  0.4244 -0.3262  2.1637
 9831TIP3    H250909   2.311   5.122  17.032  0.3651 -0.2279 -0.2916
 9832TIP3   OH250910   0.986   1.447   3.691 -0.5547 -0.4861 -0.1922
 9832TIP3    H150911   1.026   1.477   3.609 -1.1419 -0.1609 -0.3603
 9832TIP3    H250912   1.049   1.471   3.759  0.1920 -1.2365 -0.5897
 9833TIP3   OH250913   0.689   0.688  13.601  0.4691  0.5996 -0.5356
 9833TIP3    H150914   0.752   0.652  13.663  1.3298 -0.6482 -2.0710
 9833TIP3    H250915   0.702   0.638  13.521 -0.2987  2.4357 -1.8869
 9834TIP3   OH250916   4.350   2.394   2.950 -0.3161  0.3874  0.5275
 9834TIP3    H150917   4.368   2.360   2.862 -0.5346 -0.2495  0.7213
 9834TIP3    H250918   4.262   2.432   2.943  0.4669  2.1700 -0.0397
 9835TIP3   OH250919   6.516   0.687   2.841 -0.0414 -0.1220 -0.5652
 9835TIP3    H150920   6.457   0.732   2.902 -1.6266 -1.0664 -1.3037
 9835TIP3    H250921   6.464   0.612   2.810  1.6384 -1.1047 -1.1448
 9836TIP3   OH250922   2.867   6.418   3.549  0.2206  0.0783 -0.6304
 9836TIP3    H150923   2.887   6.341   3.602 -0.5509  0.8789  0.9239
 9836TIP3    H250924   2.950   6.464   3.541  0.1660  0.5274  0.9453
 9837TIP3   OH250925   5.035   2.951  17.131 -0.8368 -0.1140 -0.5932
 9837TIP3    H150926   4.985   2.891  17.077 -0.8949 -0.3544 -0.2765
 9837TIP3    H250927   5.033   2.912  17.219 -1.3142  0.6162 -0.2671
 9838TIP3   OH250928   3.748   3.384  14.973 -0.0139 -0.0922  0.2924
 9838TIP3    H150929   3.709   3.297  14.961 -1.3558  0.5716 -0.4264
 9838TIP3    H250930   3.688   3.443  14.928  0.1118  1.3828  1.9503
 9839TIP3   OH250931   0.080   5.715   3.733  0.2602  0.7501 -0.1653
 9839TIP3    H150932   0.015   5.694   3.799 -0.2292 -0.0425 -0.8726
 9839TIP3    H250933   0.105   5.805   3.751  0.1342  0.5550  1.0814
 9840TIP3   OH250934   1.780   6.662  15.754  0.0570  0.0889 -0.0042
 9840TIP3    H150935   1.804   6.660  15.846  0.6592  2.6775 -0.0402
 9840TIP3    H250936   1.834   6.732  15.716 -0.0160 -1.0282 -2.3822
 9841TIP3   OH250937   2.126   1.047  15.094  0.5862 -0.1394 -0.3054
 9841TIP3    H150938   2.163   1.127  15.130  0.7160 -0.1985 -0.3082
 9841TIP3    H250939   2.040   1.073  15.061  0.3129 -0.1657  0.3762
 9842TIP3   OH250940   5.574   2.640   2.941 -0.4436  0.0801 -0.0878
 9842TIP3    H150941   5.574   2.626   3.035 -0.3008 -2.0948 -0.3569
 9842TIP3    H250942   5.547   2.556   2.904 -0.9015  1.0021 -1.9832
 9843TIP3   OH250943   3.099   2.789  13.098  1.3647 -0.1389 -0.0230
 9843TIP3    H150944   3.171   2.852  13.104  1.8243 -0.7837  1.4564
 9843TIP3    H250945   3.123   2.732  13.025  1.1537  1.0914 -1.1034
 9844TIP3   OH250946   3.349   6.491  14.133  0.2456  0.2430 -0.3887
 9844TIP3    H150947   3.277   6.530  14.083  0.7105 -0.1147 -1.3619
 9844TIP3    H250948   3.416   6.560  14.135 -0.5250  1.0415  1.5546
 9845TIP3   OH250949   0.677   4.225  12.783 -0.4073 -0.0055 -0.1460
 9845TIP3    H150950   0.641   4.190  12.865  2.2617  0.4227  1.3241
 9845TIP3    H250951   0.666   4.320  12.791  2.6023  0.3536  1.3142
 9846TIP3   OH250952   6.455   1.876  10.605 -0.7314  0.1831 -0.4588
 9846TIP3    H150953   6.380   1.903  10.552 -1.0846 -0.2541 -0.1907
 9846TIP3    H250954   6.505   1.818  10.547 -0.8190  0.1484 -0.5001
 9847TIP3   OH250955   0.188   0.133   5.523 -0.3114  0.8476 -0.1997
 9847TIP3    H150956   0.098   0.101   5.520 -0.3913  1.0021  0.4218
 9847TIP3    H250957   0.189   0.207   5.462 -0.6817  1.0195 -0.0044
 9848TIP3   OH250958   5.999   5.435   0.485  0.4446 -0.1936 -0.0417
 9848TIP3    H150959   6.019   5.508   0.427  0.8337 -1.3186 -1.3740
 9848TIP3    H250960   5.946   5.473   0.554  1.2156  1.4777 -0.3272
 9849TIP3   OH250961   0.163   0.314  14.319 -0.1381  0.3708 -0.9731
 9849TIP3    H150962   0.164   0.219  14.333  1.0844  0.4889 -0.0373
 9849TIP3    H250963   0.075   0.333  14.288 -0.9445 -0.8569  0.4229
 9850TIP3   OH250964   4.494   0.916  12.704  0.4754  0.0063  0.6084
 9850TIP3    H150965   4.509   0.887  12.794 -0.5291  0.2946  0.8788
 9850TIP3    H250966   4.582   0.926  12.668  0.8913 -1.7158  1.0299
 9851TIP3   OH250967   1.724   0.623  17.096 -0.0399  0.3992  0.1282
 9851TIP3    H150968   1.813   0.597  17.121 -0.0145  0.4134  0.0508
 9851TIP3    H250969   1.680   0.642  17.179  0.3254  1.3746  0.1111
 9852TIP3   OH250970   6.347   2.299  16.256 -0.9230 -0.4291  0.3637
 9852TIP3    H150971   6.282   2.250  16.206 -0.9601 -1.2838  1.2306
 9852TIP3    H250972   6.371   2.371  16.199 -0.5583 -1.6816 -1.1382
 9853TIP3   OH250973   6.197   0.894  11.952 -0.4767 -0.5812 -0.0937
 9853TIP3    H150974   6.209   0.895  11.857  0.6751  1.2683  0.0152
 9853TIP3    H250975   6.232   0.978  11.981  0.6837 -1.7470  2.1523
 9854TIP3   OH250976   3.967   0.899   5.968 -0.1013  0.4394 -0.2008
 9854TIP3    H150977   3.914   0.963   5.920  0.5827  0.2183 -1.2966
 9854TIP3    H250978   4.040   0.879   5.909 -0.0663 -1.0264  0.2836
 9855TIP3   OH250979   2.364   5.063  16.161 -0.0383  0.3068 -0.0901
 9855TIP3    H150980   2.388   5.106  16.079  1.9487 -0.3412  0.1012
 9855TIP3    H250981   2.270   5.046  16.153 -0.2291  1.8224 -1.4774
 9856TIP3   OH250982   6.698   4.326   3.459 -0.2546  0.0570 -0.1513
 9856TIP3    H150983   6.656   4.265   3.519 -0.0445 -1.1313 -1.1887
 9856TIP3    H250984   6.735   4.393   3.516  0.2323 -1.2147  1.0838
 9857TIP3   OH250985   1.549   4.681  14.437  0.1316 -0.1665  0.2100
 9857TIP3    H150986   1.613   4.683  14.365  1.5009 -2.1643  1.3018
 9857TIP3    H250987   1.545   4.589  14.463 -3.3238 -0.1474  0.1292
 9858TIP3   OH250988   0.618   0.989   2.089  0.0675  0.4305  0.2060
 9858TIP3    H150989   0.601   0.982   2.182 -2.3583 -1.2677 -0.2781
 9858TIP3    H250990   0.625   0.898   2.059  0.9180  0.9392 -1.2620
 9859TIP3   OH250991   0.859   0.500   2.746  0.5095 -0.0617  0.2674
 9859TIP3    H150992   0.891   0.588   2.726  0.1443  0.1998  0.8050
 9859TIP3    H250993   0.928   0.460   2.798 -0.2156  0.6921  1.8947
 9860TIP3   OH250994   2.836   2.548   0.175 -0.3275  0.4184  0.6303
 9860TIP3    H150995   2.788   2.612   0.228 -0.9114  0.6153 -0.1295
 9860TIP3    H250996   2.778   2.473   0.170 -0.6578  0.7408 -0.4805
 9861TIP3   OH250997   6.769   5.278   2.697 -0.1595 -0.4500 -0.5742
 9861TIP3    H150998   6.685   5.275   2.651  0.5660 -0.9602 -1.9172
 9861TIP3    H250999   6.767   5.201   2.754 -1.3600  0.5720  0.8805
 9862TIP3   OH251000   0.823   2.947   4.233 -0.0744 -0.7565 -0.4055
 9862TIP3    H151001   0.768   2.883   4.279 -1.4750 -0.0672 -1.0425
 9862TIP3    H251002   0.903   2.899   4.211  0.2571 -1.3663  1.8913
 9863TIP3   OH251003   6.632   3.586  14.907 -0.5950  0.0663 -0.3969
 9863TIP3    H151004   6.586   3.506  14.879 -2.3234  0.6850  0.4729
 9863TIP3    H251005   6.563   3.653  14.908  0.1456  0.8832  1.7150
 9864TIP3   OH251006   1.938   6.048   4.758 -0.0555 -0.2297  0.0558
 9864TIP3    H151007   1.939   6.038   4.853  1.2323  2.1299  0.3615
 9864TIP3    H251008   2.022   6.012   4.729 -0.6181 -1.3211 -0.2695
 9865TIP3   OH251009   3.353   4.559  13.591 -0.1844  0.4098  0.9573
 9865TIP3    H151010   3.424   4.495  13.600 -1.1860 -0.8522  0.2645
 9865TIP3    H251011   3.380   4.615  13.518 -0.9010 -1.5340 -0.9165
 9866TIP3   OH251012   0.512   0.061  12.287  0.4240  0.3276 -0.2468
 9866TIP3    H151013   0.468   0.135  12.330  0.7028 -0.6383  1.7959
 9866TIP3    H251014   0.452   0.036  12.217 -0.5460  1.3231  0.1828
 9867TIP3   OH251015   5.533   1.637  15.216  0.6944  0.2308  0.4045
 9867TIP3    H151016   5.627   1.659  15.214  0.6442  0.4255  0.1300
 9867TIP3    H251017   5.503   1.668  15.302  1.5118 -2.4986  1.7902
 9868TIP3   OH251018   4.260   3.407  16.413  0.2511  0.2000  0.0563
 9868TIP3    H151019   4.260   3.359  16.496 -1.5947 -0.6385 -0.3712
 9868TIP3    H251020   4.325   3.362  16.359 -0.5747 -1.1068  0.0914
 9869TIP3   OH251021   6.383   2.420   4.310 -0.3629 -0.4469 -0.2547
 9869TIP3    H151022   6.418   2.507   4.327 -1.6510  0.1614 -0.6260
 9869TIP3    H251023   6.431   2.390   4.233 -1.0380  0.6220 -1.1253
 9870TIP3   OH251024   4.568   1.613  14.550 -0.1628  0.6229  0.6289
 9870TIP3    H151025   4.512   1.644  14.479 -0.8398  1.6660  1.6036
 9870TIP3    H251026   4.561   1.517  14.545 -0.9229  0.7046 -0.1256
 9871TIP3   OH251027   3.564   2.075   1.243 -0.3702 -0.3335  0.4382
 9871TIP3    H151028   3.521   2.049   1.161  0.6660 -1.1645  0.1409
 9871TIP3    H251029   3.574   1.993   1.292  0.2569 -0.0449  0.8041
 9872TIP3   OH251030   3.446   5.060   3.886 -0.3650 -0.2963  0.1345
 9872TIP3    H151031   3.415   4.993   3.947 -1.2390  0.9202  1.0893
 9872TIP3    H251032   3.475   5.132   3.943 -0.5681  0.5929 -0.8649
 9873TIP3   OH251033   2.390   0.628  11.424  0.8135 -0.0645 -0.2314
 9873TIP3    H151034   2.467   0.573  11.408  1.9960  0.7154  2.2376
 9873TIP3    H251035   2.382   0.630  11.520 -0.8075  1.8802 -0.3476
 9874TIP3   OH251036   5.363   3.745   5.227 -0.3444 -0.4303 -0.6031
 9874TIP3    H151037   5.363   3.684   5.302 -1.8469 -0.0528 -0.2532
 9874TIP3    H251038   5.399   3.826   5.262 -0.1881 -0.5310 -0.5303
 9875TIP3   OH251039   0.074   1.588  14.416  0.3326  0.0001 -0.8461
 9875TIP3    H151040   0.012   1.604  14.345  0.3730  1.5517 -0.5600
 9875TIP3    H251041   0.098   1.496  14.406 -0.3745 -0.0566 -2.2696
 9876TIP3   OH251042   3.513   1.521  13.030 -0.4982  0.2499  0.0435
 9876TIP3    H151043   3.515   1.614  13.006 -2.4352  0.2895 -0.2032
 9876TIP3    H251044   3.602   1.501  13.058  0.0701  2.0699 -0.2972
 9877TIP3   OH251045   5.815   0.088  12.385 -1.0141 -0.4616  0.2301
 9877TIP3    H151046   5.854   0.003  12.366 -2.4168 -1.2458  0.7453
 9877TIP3    H251047   5.779   0.118  12.301 -2.2484 -1.3050  0.4419
 9878TIP3   OH251048   0.638   4.404   2.234  0.2016  0.0577 -0.1238
 9878TIP3    H151049   0.547   4.403   2.264 -0.3874 -0.2747 -1.7966
 9878TIP3    H251050   0.685   4.454   2.300 -1.3822  1.0482  0.3051
 9879TIP3   OH251051   0.099   5.497   0.322  0.0266 -0.0893 -0.3319
 9879TIP3    H151052   0.012   5.498   0.284  0.2999 -0.0131 -0.9801
 9879TIP3    H251053   0.102   5.573   0.380  0.6349  1.7566 -2.6190
 9880TIP3   OH251054   3.712   0.909   4.281  0.2894 -0.3516 -0.3299
 9880TIP3    H151055   3.797   0.944   4.256 -0.6511  1.2394 -1.4487
 9880TIP3    H251056   3.661   0.907   4.200 -1.3542  0.5807  0.6285
 9881TIP3   OH251057   1.716   5.857   2.350  0.0860  0.0138 -0.5889
 9881TIP3    H151058   1.778   5.929   2.365 -1.8383  2.0029 -1.6586
 9881TIP3    H251059   1.637   5.899   2.317 -2.1771 -2.2935  1.3953
 9882TIP3   OH251060   6.377   0.451  14.963  0.5083  0.0558  0.1123
 9882TIP3    H151061   6.323   0.428  15.039  0.3698 -0.1961 -0.0609
 9882TIP3    H251062   6.351   0.541  14.942  1.1135  0.4141  0.8469
 9883TIP3   OH251063   1.750   0.112   4.890  0.3102 -0.6518 -0.5277
 9883TIP3    H151064   1.669   0.115   4.839  1.1887 -0.0107 -1.9409
 9883TIP3    H251065   1.795   0.034   4.858  0.0959 -1.2363  0.5427
 9884TIP3   OH251066   0.243   4.098  16.892 -0.3644 -0.0889  0.2431
 9884TIP3    H151067   0.201   4.181  16.914  0.2997 -0.0408  1.4214
 9884TIP3    H251068   0.315   4.090  16.954  0.6335 -0.7416 -0.9512
 9885TIP3   OH251069   5.897   3.009  12.996  0.4198  0.2255  0.3688
 9885TIP3    H151070   5.991   2.995  12.984  0.2632 -1.9619  1.1377
 9885TIP3    H251071   5.856   2.958  12.926 -0.2127  1.2153  0.0019
 9886TIP3   OH251072   0.761   1.188   2.589  0.2973 -0.4487  0.1440
 9886TIP3    H151073   0.678   1.173   2.634 -0.0328  0.4781 -0.1470
 9886TIP3    H251074   0.827   1.158   2.652 -0.2209 -0.4362  0.7071
 9887TIP3   OH251075   2.247   1.944   6.677  0.5628  0.0680  0.7920
 9887TIP3    H151076   2.258   2.001   6.601  1.1572 -1.7564 -0.5646
 9887TIP3    H251077   2.152   1.942   6.691  0.3354 -0.4737 -0.6554
 9888TIP3   OH251078   6.632   0.997   0.751 -0.0881  0.6178  0.2406
 9888TIP3    H151079   6.701   1.000   0.817 -1.5380  0.1602  1.8637
 9888TIP3    H251080   6.566   0.940   0.789 -1.9841  2.1359 -0.6192
 9889TIP3   OH251081   2.995   2.969   2.653 -0.4995  0.6956  0.4046
 9889TIP3    H151082   2.926   2.944   2.714  0.4652 -0.5445  1.0267
 9889TIP3    H251083   3.074   2.975   2.707  0.2523  0.2094 -0.6092
 9890TIP3   OH251084   3.264   1.704  16.159  0.0978  0.2109  0.2392
 9890TIP3    H151085   3.220   1.730  16.078 -0.5655  0.6766  0.7471
 9890TIP3    H251086   3.357   1.715  16.139  0.0387 -1.0858 -0.9501
 9891TIP3   OH251087   2.508   4.783  14.322  0.6095 -1.2363  0.1178
 9891TIP3    H151088   2.457   4.793  14.402  0.9244  0.2652  0.1591
 9891TIP3    H251089   2.527   4.872  14.294 -0.0211 -1.6986 -1.9944
 9892TIP3   OH251090   5.282   6.038   3.566 -0.2531  0.4646  0.0826
 9892TIP3    H151091   5.191   6.018   3.542  0.3253 -1.8675 -0.4445
 9892TIP3    H251092   5.286   6.022   3.661 -0.0231 -1.2572 -0.1813
 9893TIP3   OH251093   5.574   4.485   2.696 -0.2321 -0.1767 -0.2134
 9893TIP3    H151094   5.640   4.461   2.761 -0.5032  0.1078  0.1740
 9893TIP3    H251095   5.565   4.408   2.641  0.7256 -0.0732 -0.5292
 9894TIP3   OH251096   3.691   3.315   1.928 -0.0455 -0.3005  0.1030
 9894TIP3    H151097   3.730   3.304   1.841  0.3297  1.7565 -0.0237
 9894TIP3    H251098   3.765   3.315   1.988 -0.2204 -0.6575  0.3230
 9895TIP3   OH251099   1.647   0.321  13.580 -0.6265  0.3815 -0.3006
 9895TIP3    H151100   1.743   0.322  13.587 -0.5152  0.0531 -1.6403
 9895TIP3    H251101   1.623   0.230  13.594 -0.8677  0.6459  1.2167
 9896TIP3   OH251102   3.596   2.808  13.548  0.0665 -0.1566  0.2423
 9896TIP3    H151103   3.506   2.801  13.582  0.2536 -0.7309  0.6401
 9896TIP3    H251104   3.605   2.732  13.490  0.2453 -0.0143  0.0858
 9897TIP3   OH251105   2.850   5.774   0.697 -0.0127  0.6323 -0.1682
 9897TIP3    H151106   2.852   5.772   0.601 -0.9419  0.6963 -0.1921
 9897TIP3    H251107   2.806   5.856   0.718  1.1283  1.1455  0.3406
 9898TIP3   OH251108   5.660   4.051  16.464 -0.2420 -0.1128  0.1709
 9898TIP3    H151109   5.582   4.045  16.408  0.3978 -1.6866 -0.6185
 9898TIP3    H251110   5.626   4.078  16.550 -1.5188  0.2037 -0.4119
 9899TIP3   OH251111   5.792   3.280  13.577 -0.6043 -0.5896 -0.1528
 9899TIP3    H151112   5.774   3.327  13.658  1.0218  0.9868 -0.6359
 9899TIP3    H251113   5.790   3.348  13.509  1.0174 -1.3290 -0.9949
 9900TIP3   OH251114   0.209   1.959  15.196 -0.0494  0.2895 -0.5425
 9900TIP3    H151115   0.213   1.864  15.210  1.2941  0.4159  0.0783
 9900TIP3    H251116   0.161   1.969  15.114 -2.0041 -0.8149  0.3969
 9901TIP3   OH251117   0.162   0.412  15.509  0.8627 -0.2770 -0.1284
 9901TIP3    H151118   0.074   0.373  15.508  0.6597 -0.0182  1.8853
 9901TIP3    H251119   0.146   0.507  15.513  1.2038 -0.2399  0.5330
 9902TIP3   OH251120   2.661   4.643  11.458 -0.0235  0.0870 -0.6242
 9902TIP3    H151121   2.666   4.738  11.450  0.1604  0.0586 -0.8793
 9902TIP3    H251122   2.697   4.624  11.545  0.6340  0.1953 -0.8653
 9903TIP3   OH251123   6.717   1.220   6.566  0.6748 -0.1126 -0.0306
 9903TIP3    H151124   6.775   1.151   6.534  1.2086 -0.1967  1.0751
 9903TIP3    H251125   6.761   1.302   6.543  0.4401 -0.1430 -0.6102
 9904TIP3   OH251126   3.409   4.116  13.464 -0.5099 -0.1296  0.5163
 9904TIP3    H151127   3.481   4.139  13.523 -1.0401  0.4163  0.9658
 9904TIP3    H251128   3.401   4.021  13.472  0.1984 -0.2071  0.4070
 9905TIP3   OH251129   5.382   5.307  14.386 -0.2518  0.1729  0.4846
 9905TIP3    H151130   5.402   5.218  14.356 -0.3648  0.6251 -0.9975
 9905TIP3    H251131   5.384   5.301  14.481  1.5034 -1.0279  0.4240
 9906TIP3   OH251132   4.859   3.441  14.178  0.2416  0.3083 -0.3552
 9906TIP3    H151133   4.890   3.353  14.160 -0.4165 -0.0898  0.3739
 9906TIP3    H251134   4.764   3.431  14.191  0.0898  1.1914 -0.7083
 9907TIP3   OH251135   0.033   5.978  11.825 -0.5381  0.3883  0.3115
 9907TIP3    H151136   0.044   5.889  11.858 -1.9890  0.1375  0.2039
 9907TIP3    H251137  -0.034   6.016  11.883 -2.0267  0.4444 -1.3563
 9908TIP3   OH251138   1.878   1.920   1.207 -0.2250  0.2408 -0.4044
 9908TIP3    H151139   1.957   1.885   1.165 -0.5350 -0.3135 -0.5382
 9908TIP3    H251140   1.832   1.842   1.240 -1.4438  0.4157 -1.6082
 9909TIP3   OH251141   3.785   1.662  14.751 -0.0568  0.4679  0.4984
 9909TIP3    H151142   3.835   1.712  14.686  0.3354 -0.5830 -0.0258
 9909TIP3    H251143   3.769   1.725  14.821  2.8943  0.6421  1.1856
 9910TIP3   OH251144   3.328   2.890   4.752  0.1404  0.2998 -0.2717
 9910TIP3    H151145   3.399   2.871   4.814 -1.0899  0.7303  1.3390
 9910TIP3    H251146   3.337   2.983   4.732 -0.6322  0.6378  0.8606
 9911TIP3   OH251147   1.442   2.003   3.408 -0.3070 -0.4048 -0.0566
 9911TIP3    H151148   1.510   2.062   3.378 -0.3816 -0.3185 -0.0582
 9911TIP3    H251149   1.452   2.001   3.503  0.3694 -1.2187 -0.1291
 9912TIP3   OH251150   3.444   2.973  16.051  0.3087 -0.1962 -0.1282
 9912TIP3    H151151   3.485   3.057  16.073  1.0398 -0.7567  0.7494
 9912TIP3    H251152   3.424   2.978  15.958  2.8199 -0.0627 -0.7089
 9913TIP3   OH251153   4.876   1.388   5.366 -0.2581 -0.1900  0.1908
 9913TIP3    H151154   4.906   1.384   5.457  0.2843  1.4635  0.1167
 9913TIP3    H251155   4.788   1.352   5.368 -0.0022 -0.8029  1.2481
 9914TIP3   OH251156   4.640   3.095   3.231  0.0224 -0.2684  0.6061
 9914TIP3    H151157   4.579   3.138   3.171 -0.2999  0.3207  1.3432
 9914TIP3    H251158   4.701   3.048   3.173  0.4531  1.2587 -0.2200
 9915TIP3   OH251159   0.094   6.551  13.124  0.1908 -0.0549 -0.3618
 9915TIP3    H151160   0.046   6.633  13.113  0.5334 -0.0719 -2.5312
 9915TIP3    H251161   0.027   6.483  13.122  0.1593 -0.2097 -5.0320
 9916TIP3   OH251162   0.680   4.705  13.963  0.3040  0.4557  0.0223
 9916TIP3    H151163   0.760   4.657  13.985 -0.2044 -0.3790  0.1049
 9916TIP3    H251164   0.674   4.700  13.868 -0.2657 -0.5410  0.0900
 9917TIP3   OH251165   4.632   2.307  12.560 -0.1451  0.0421 -0.2749
 9917TIP3    H151166   4.548   2.304  12.515  0.1961 -2.1631 -0.9114
 9917TIP3    H251167   4.697   2.310  12.490  0.3377  0.2467  0.1708
 9918TIP3   OH251168   2.493   2.364  15.524 -0.2478 -0.4179  0.1497
 9918TIP3    H151169   2.565   2.306  15.550 -0.0948 -0.4651 -0.3654
 9918TIP3    H251170   2.508   2.380  15.431  0.0510  0.9336  0.4098
 9919TIP3   OH251171   0.436   1.250  11.048  0.0481 -0.4280  0.8693
 9919TIP3    H151172   0.492   1.274  11.122  0.3277 -2.3212  1.3164
 9919TIP3    H251173   0.467   1.163  11.022 -0.4749 -0.0808 -1.0768
 9920TIP3   OH251174   1.239   1.747   6.092 -0.0505  0.5648 -0.2664
 9920TIP3    H151175   1.314   1.687   6.093 -1.3175 -1.0980 -0.9235
 9920TIP3    H251176   1.189   1.724   6.170 -0.4462  0.9104 -0.4155
 9921TIP3   OH251177   1.713   2.619   2.129  0.3601 -0.1396  0.3016
 9921TIP3    H151178   1.725   2.542   2.185 -0.6476 -0.0841  0.6143
 9921TIP3    H251179   1.757   2.690   2.177 -0.3305 -0.1344  0.9578
 9922TIP3   OH251180   0.706   0.360   3.709 -0.0872 -0.5107 -0.1055
 9922TIP3    H151181   0.736   0.304   3.781  0.2234 -1.0047 -0.6024
 9922TIP3    H251182   0.755   0.328   3.633  1.3552  1.5050 -0.1036
 9923TIP3   OH251183   6.078   2.964  12.780  0.4461 -0.0719 -0.3207
 9923TIP3    H151184   6.020   2.979  12.705 -0.3255  0.6912  0.4091
 9923TIP3    H251185   6.125   3.047  12.790 -2.2118  1.3014  2.3478
 9924TIP3   OH251186   0.743   1.209   6.036 -0.1047  0.0825 -0.6929
 9924TIP3    H151187   0.812   1.236   5.976 -1.2724  1.2194 -1.5615
 9924TIP3    H251188   0.699   1.137   5.991 -0.3921  0.3143 -0.7823
 9925TIP3   OH251189   1.345   1.732  13.378 -0.0186 -0.1925  0.1263
 9925TIP3    H151190   1.433   1.747  13.410 -0.7944  2.8830  1.2250
 9925TIP3    H251191   1.349   1.754  13.285  0.7439 -2.1083 -0.3289
 9926TIP3   OH251192   2.219   2.862  12.718 -0.1184  0.0766  0.0976
 9926TIP3    H151193   2.221   2.802  12.644  1.5640  0.4456 -0.2119
 9926TIP3    H251194   2.210   2.949  12.679  2.8244  0.4736  0.0931
 9927TIP3   OH251195   4.476   2.099   5.426 -0.0379  0.8268 -0.2864
 9927TIP3    H151196   4.462   2.043   5.350  0.6579  2.1908 -1.4733
 9927TIP3    H251197   4.391   2.139   5.443 -0.1714  0.5945 -0.4045
 9928TIP3   OH251198   0.317   6.238  13.028 -0.2258  0.3090 -0.9431
 9928TIP3    H151199   0.368   6.279  13.097 -0.9322  0.0024 -0.2188
 9928TIP3    H251200   0.335   6.144  13.038 -2.8502 -0.0980  1.0077
 9929TIP3   OH251201   1.329   4.424  13.954  0.0913 -0.0079 -0.2917
 9929TIP3    H151202   1.288   4.338  13.961 -1.0171  0.4450 -0.9538
 9929TIP3    H251203   1.318   4.463  14.041 -1.5162  0.3594 -0.6232
 9930TIP3   OH251204   2.029   1.974   4.007  0.1712 -0.0625 -0.1739
 9930TIP3    H151205   1.966   1.942   4.071 -1.8138  1.2755 -1.3524
 9930TIP3    H251206   2.025   1.910   3.935 -1.9813  1.3567 -1.4451
 9931TIP3   OH251207   3.057   6.756   5.206 -0.0847  0.1522  0.2324
 9931TIP3    H151208   2.992   6.721   5.145  0.7433 -3.1208  0.9924
 9931TIP3    H251209   3.141   6.722   5.172  0.7853  1.1757  1.2853
 9932TIP3   OH251210   4.187   3.619  12.713  0.1370  0.2745  0.0151
 9932TIP3    H151211   4.105   3.639  12.668 -0.3878 -0.6350  0.5350
 9932TIP3    H251212   4.184   3.670  12.794  0.7212  1.2988 -0.5927
 9933TIP3   OH251213   0.569   6.116  12.186  0.6306 -0.0243  0.2914
 9933TIP3    H151214   0.536   6.100  12.098  0.8705 -0.3967  0.2677
 9933TIP3    H251215   0.551   6.209  12.202  0.9439  0.1405 -0.2943
 9934TIP3   OH251216   5.019   3.846   4.010 -1.1658 -0.6101 -0.0162
 9934TIP3    H151217   4.987   3.908   4.076 -0.5097 -1.3225  1.0081
 9934TIP3    H251218   5.106   3.821   4.042 -1.3848 -1.9894 -0.4363
 9935TIP3   OH251219   2.484   3.079  12.551 -0.0510  0.7059  0.3147
 9935TIP3    H151220   2.563   3.103  12.599  0.3413 -3.5376  2.2469
 9935TIP3    H251221   2.513   3.070  12.460  0.9671  1.9069  0.4975
 9936TIP3   OH251222   1.949   0.008  11.689  0.5793  0.8151  0.1745
 9936TIP3    H151223   1.950  -0.061  11.755 -1.3023 -0.4095 -0.9685
 9936TIP3    H251224   1.889   0.074  11.724 -1.9832 -0.7166 -0.9953
 9937TIP3   OH251225   3.774   5.904   2.579 -0.0574 -0.2280 -0.7500
 9937TIP3    H151226   3.852   5.915   2.632 -1.1945  2.3987  0.5776
 9937TIP3    H251227   3.729   5.989   2.584 -2.6256 -1.3796 -2.0400
 9938TIP3   OH251228   3.528   1.513   3.994 -0.0809 -0.0704 -0.4188
 9938TIP3    H151229   3.558   1.520   4.085 -1.7882  1.1925  0.0931
 9938TIP3    H251230   3.559   1.592   3.952  1.3606 -1.0048 -1.1826
 9939TIP3   OH251231   4.845   2.685   5.407 -0.2238 -0.3722  0.1463
 9939TIP3    H151232   4.925   2.710   5.361 -0.0843  0.8598  0.9912
 9939TIP3    H251233   4.774   2.724   5.355 -0.4373 -2.5082 -1.3036
 9940TIP3   OH251234   4.270   3.942  15.985  0.5655  0.0411 -0.6116
 9940TIP3    H151235   4.297   4.001  16.055 -0.8119  1.7530 -1.4279
 9940TIP3    H251236   4.351   3.915  15.943  1.2157  1.8010 -0.5465
 9941TIP3   OH251237   2.477   0.694   0.927  0.0856 -0.1625 -0.4813
 9941TIP3    H151238   2.455   0.733   1.011  1.1992  0.1063 -0.2979
 9941TIP3    H251239   2.567   0.721   0.911 -0.5406  0.9713 -2.4403
 9942TIP3   OH251240   5.971   0.260   4.811 -0.2072  0.2764 -0.0471
 9942TIP3    H151241   5.918   0.229   4.885 -0.7374  1.6763  0.1865
 9942TIP3    H251242   6.035   0.191   4.797 -1.1013 -0.7351  0.6986
 9943TIP3   OH251243   5.463   0.199   1.690 -0.0557 -0.0681  0.2107
 9943TIP3    H151244   5.410   0.279   1.684  0.3190  0.0464 -2.2502
 9943TIP3    H251245   5.408   0.130   1.654  0.1687 -0.6708  0.9822
 9944TIP3   OH251246   4.547   4.241  12.089  0.0036  0.1813 -0.5741
 9944TIP3    H151247   4.475   4.212  12.145  0.7986 -0.9438 -0.1122
 9944TIP3    H251248   4.584   4.316  12.136  0.5924 -0.6803  0.3812
 9945TIP3   OH251249   5.570   1.514   5.500 -0.3874  0.1661 -0.0256
 9945TIP3    H151250   5.489   1.482   5.459  1.0854 -1.8093 -1.6276
 9945TIP3    H251251   5.570   1.473   5.587 -0.2131 -1.4998 -0.7642
 9946TIP3   OH251252   2.584   3.456  15.183 -0.4181 -0.1549 -0.1507
 9946TIP3    H151253   2.522   3.395  15.142  1.1675 -1.6118 -0.5146
 9946TIP3    H251254   2.615   3.510  15.111  0.3063 -0.8602 -0.3771
 9947TIP3   OH251255   1.053   6.281  14.575  0.2245  0.4731  0.8235
 9947TIP3    H151256   1.052   6.370  14.538 -0.4330  0.1454  0.0452
 9947TIP3    H251257   1.145   6.255  14.570  0.2400  0.6554 -0.0572
 9948TIP3   OH251258   6.744   1.275  16.320 -0.2913 -0.1747  0.1820
 9948TIP3    H151259   6.666   1.324  16.348 -1.6077 -2.5381  0.8865
 9948TIP3    H251260   6.757   1.209  16.388  0.9283 -1.3359 -1.1145
 9949TIP3   OH251261   1.512   1.824  14.407 -0.0752 -0.2267  0.0157
 9949TIP3    H151262   1.468   1.883  14.345 -0.7533 -0.0676  0.6375
 9949TIP3    H251263   1.557   1.882  14.467 -1.8393 -0.2509  1.4466
 9950TIP3   OH251264   1.552   3.124  16.229 -0.1426  0.0783 -0.6069
 9950TIP3    H151265   1.500   3.102  16.307 -0.8980 -0.5814 -1.2767
 9950TIP3    H251266   1.490   3.117  16.157  0.7862 -0.2905 -1.3858
 9951TIP3   OH251267   5.707   4.886  16.728 -0.3160  0.3774  0.3640
 9951TIP3    H151268   5.639   4.899  16.661 -0.2703 -0.1278  0.2170
 9951TIP3    H251269   5.787   4.917  16.686  0.0906 -1.7875 -0.5836
 9952TIP3   OH251270   5.688   2.528  14.318 -0.1030  0.2855 -0.0147
 9952TIP3    H151271   5.770   2.496  14.355  0.6266  0.0974 -1.6861
 9952TIP3    H251272   5.628   2.453  14.325  0.1461  0.1269  0.4121
 9953TIP3   OH251273   4.146   3.258  14.220  0.0013 -0.4923 -0.5741
 9953TIP3    H151274   4.131   3.350  14.196 -1.4657 -0.6059 -0.1764
 9953TIP3    H251275   4.059   3.219  14.218  0.3545 -1.4243  1.1386
 9954TIP3   OH251276   2.828   5.618  13.700 -0.7150 -0.0411 -0.5107
 9954TIP3    H151277   2.828   5.528  13.732 -2.8059 -0.6362 -1.9719
 9954TIP3    H251278   2.892   5.619  13.629  1.4132  0.4223  1.3145
 9955TIP3   OH251279   5.069   0.704  15.554  0.1381  0.2122  0.3133
 9955TIP3    H151280   5.140   0.723  15.493 -1.0189  0.7633 -0.9260
 9955TIP3    H251281   5.070   0.608  15.562  0.1512  0.0995 -0.8036
 9956TIP3   OH251282   5.686   6.393   4.573 -0.0966 -0.0535  0.1952
 9956TIP3    H151283   5.615   6.333   4.550 -1.1090  0.8447  0.8828
 9956TIP3    H251284   5.727   6.355   4.650 -0.4234 -0.1121  0.3399
 9957TIP3   OH251285   4.309   1.022  15.601  0.8022  0.3796 -0.4199
 9957TIP3    H151286   4.403   1.032  15.610  0.8847 -0.1350 -0.6847
 9957TIP3    H251287   4.276   1.024  15.690  1.1801 -0.5497 -0.2548
 9958TIP3   OH251288   0.412   0.654  15.882 -0.2751  0.0784  0.6472
 9958TIP3    H151289   0.439   0.582  15.825 -0.4636  0.4941  0.0188
 9958TIP3    H251290   0.449   0.732  15.841  0.5378  0.2721  1.7103
 9959TIP3   OH251291   6.679   2.364   4.377 -0.2520 -0.3331 -0.5515
 9959TIP3    H151292   6.680   2.446   4.328  1.6852 -0.5538 -0.9718
 9959TIP3    H251293   6.769   2.355   4.410 -1.0709 -1.0293  1.6567
 9960TIP3   OH251294   3.936   1.499   1.549  0.0771  0.7199  0.1334
 9960TIP3    H151295   3.994   1.461   1.616 -0.6308  0.4692  0.6216
 9960TIP3    H251296   3.868   1.432   1.537  0.2697  0.7136 -0.9345
 9961TIP3   OH251297   0.296   1.351   5.107  0.0122 -0.4620 -0.8090
 9961TIP3    H151298   0.299   1.326   5.015  1.0680  2.4774 -1.6818
 9961TIP3    H251299   0.381   1.391   5.124 -1.2130  1.7638  0.5504
 9962TIP3   OH251300   0.155   6.018   5.836 -0.4285  0.4791 -0.0809
 9962TIP3    H151301   0.139   6.111   5.815  0.2064  0.6360  0.1022
 9962TIP3    H251302   0.242   6.018   5.876 -0.8709 -0.0535  0.9142
 9963TIP3   OH251303   1.758   3.115  15.720 -0.2146  0.1231  0.1194
 9963TIP3    H151304   1.725   3.129  15.631  1.0546 -0.6807 -0.5057
 9963TIP3    H251305   1.848   3.145  15.718 -0.8061  2.2784  1.8041
 9964TIP3   OH251306   3.416   5.746  11.392 -0.5819 -0.2942 -0.0241
 9964TIP3    H151307   3.388   5.761  11.302  0.5265  1.4215 -0.1212
 9964TIP3    H251308   3.434   5.652  11.396  1.8484 -0.0290 -2.3575
 9965TIP3   OH251309   6.375   4.926  14.841 -0.4513  0.0556 -0.1446
 9965TIP3    H151310   6.392   4.994  14.776 -0.0116  0.2982  0.2197
 9965TIP3    H251311   6.420   4.957  14.920 -1.2329 -0.0839  0.3676
 9966TIP3   OH251312   4.461   1.183   6.515  0.4294  0.4564 -0.4797
 9966TIP3    H151313   4.455   1.270   6.474 -0.1892  1.6444  1.9095
 9966TIP3    H251314   4.371   1.161   6.536  0.3741 -1.6321 -2.5273
 9967TIP3   OH251315   5.242   0.172  12.988 -0.1207  0.0800  0.3735
 9967TIP3    H151316   5.167   0.119  13.014 -1.5173  0.6191 -2.2357
 9967TIP3    H251317   5.314   0.109  12.980 -1.1326 -1.0351 -0.2732
 9968TIP3   OH251318   0.057   1.128  14.345 -0.1648 -0.0174  0.3379
 9968TIP3    H151319   0.003   1.050  14.327 -0.6971  0.1424  1.1848
 9968TIP3    H251320   0.093   1.112  14.432  0.9233  0.0251 -0.0901
 9969TIP3   OH251321   0.317   4.742   3.147  0.3656  0.2059 -0.4128
 9969TIP3    H151322   0.334   4.828   3.184  1.0987  0.5513 -1.5078
 9969TIP3    H251323   0.357   4.745   3.060 -0.1633 -1.0194 -0.7167
 9970TIP3   OH251324   4.493   4.736   0.865  0.0977  0.8682 -0.5488
 9970TIP3    H151325   4.528   4.802   0.804  0.4296  1.5594  0.3766
 9970TIP3    H251326   4.399   4.755   0.869  0.0822  0.8499 -0.8101
 9971TIP3   OH251327   3.926   1.431   0.575 -0.0082 -0.5098  0.1144
 9971TIP3    H151328   3.990   1.493   0.609  0.5050 -1.5859  1.1822
 9971TIP3    H251329   3.864   1.485   0.526  0.9105  0.7245  0.2653
 9972TIP3   OH251330   0.575   0.143  15.531  0.0073  0.3994 -0.1420
 9972TIP3    H151331   0.613   0.055  15.538  1.1329  0.8680 -0.0984
 9972TIP3    H251332   0.499   0.132  15.473  0.0951 -0.6066 -0.0895
 9973TIP3   OH251333   5.914   2.307  14.128  0.4355  0.0660  0.2305
 9973TIP3    H151334   5.933   2.394  14.164 -1.9177  0.9942 -0.6008
 9973TIP3    H251335   5.878   2.325  14.041 -0.4077 -1.7206  0.1792
 9974TIP3   OH251336   2.765   3.432   4.904  0.1281  0.3911  0.2806
 9974TIP3    H151337   2.733   3.452   4.816  0.4482  0.7060  0.2302
 9974TIP3    H251338   2.716   3.490   4.962 -0.6690 -0.3889  0.4083
 9975TIP3   OH251339   4.377   4.297  17.026 -0.0496  0.4949  0.0052
 9975TIP3    H151340   4.375   4.234  16.954 -0.3458 -0.7917  1.1144
 9975TIP3    H251341   4.470   4.315  17.041 -0.0050  1.5726 -1.3431
 9976TIP3   OH251342   2.526   0.935  15.376 -0.0163 -0.1079 -0.4945
 9976TIP3    H151343   2.554   1.000  15.311  0.8820  2.4107  2.1748
 9976TIP3    H251344   2.437   0.961  15.399 -0.1566 -0.6982 -0.3553
 9977TIP3   OH251345   3.686   0.227   1.467 -0.1432  0.0665 -0.1651
 9977TIP3    H151346   3.771   0.269   1.480 -0.7334  1.0267  0.7755
 9977TIP3    H251347   3.664   0.191   1.553 -0.1209 -1.3359 -0.7101
 9978TIP3   OH251348   0.206   2.939   0.130 -0.1146 -0.3909  0.4217
 9978TIP3    H151349   0.199   2.874   0.200 -0.5361  0.2539  0.9929
 9978TIP3    H251350   0.192   2.889   0.050  0.8141 -1.2210  0.7488
 9979TIP3   OH251351   0.021   3.516   4.687  0.1453 -0.1910  0.6011
 9979TIP3    H151352  -0.026   3.496   4.605 -0.0528  2.4447 -0.0275
 9979TIP3    H251353  -0.048   3.518   4.754  0.2565 -1.9969  0.8136
 9980TIP3   OH251354   3.616   5.201   3.675 -0.8379  0.7978 -0.2665
 9980TIP3    H151355   3.555   5.184   3.747 -0.7664  0.1339 -0.3553
 9980TIP3    H251356   3.701   5.213   3.718 -0.8338  0.6142 -0.2212
 9981TIP3   OH251357   0.749   2.607   5.260  0.2598  0.2298 -0.2255
 9981TIP3    H151358   0.781   2.658   5.334 -1.2063  0.0046  0.5840
 9981TIP3    H251359   0.775   2.517   5.279 -0.0410  0.1842 -0.0461
 9982TIP3   OH251360   4.684   3.456  11.375 -0.2581 -0.7330 -0.1037
 9982TIP3    H151361   4.672   3.507  11.456 -1.4610  0.4696 -0.9780
 9982TIP3    H251362   4.779   3.447  11.366 -0.0707 -0.0026  0.9166
 9983TIP3   OH251363   5.269   5.598  11.486 -0.3490 -0.4040  0.2414
 9983TIP3    H151364   5.259   5.670  11.424 -0.0168 -0.6988 -0.1618
 9983TIP3    H251365   5.363   5.577  11.483 -0.4402 -0.8408  0.3692
 9984TIP3   OH251366   6.391   1.606  11.831  0.4303 -0.2647 -0.3971
 9984TIP3    H151367   6.419   1.566  11.914  0.2463 -0.6264 -0.5048
 9984TIP3    H251368   6.312   1.654  11.853  0.8901  0.4032 -0.1774
 9985TIP3   OH251369   1.590   6.529   4.233  0.4084  0.3369 -0.0707
 9985TIP3    H151370   1.684   6.538   4.217  0.4811 -0.1531  0.0487
 9985TIP3    H251371   1.583   6.456   4.295  0.1058  1.8576  1.7861
 9986TIP3   OH251372   2.411   6.415   0.078 -0.0026  0.2679  0.4358
 9986TIP3    H151373   2.417   6.320   0.090  0.5982  0.3828  1.1015
 9986TIP3    H251374   2.317   6.432   0.073 -0.1225 -0.7205 -2.8996
 9987TIP3   OH251375   2.001   4.368   3.781  0.1985  0.1930 -0.0317
 9987TIP3    H151376   1.959   4.380   3.696 -2.3774 -1.1464  0.9638
 9987TIP3    H251377   1.976   4.446   3.831 -1.4893 -0.7517  0.6651
 9988TIP3   OH251378   2.283   2.939   4.745 -0.3684 -0.4595  0.3483
 9988TIP3    H151379   2.308   2.930   4.653  0.4893  3.4964  0.0347
 9988TIP3    H251380   2.365   2.947   4.792 -0.8302 -1.5095  1.3903
 9989TIP3   OH251381   0.324   6.711  13.925 -0.3731 -0.1552 -0.3452
 9989TIP3    H151382   0.369   6.683  13.845 -1.4002 -0.4766 -0.8303
 9989TIP3    H251383   0.231   6.713  13.901 -0.5213  1.8906  0.2072
 9990TIP3   OH251384   3.354   6.745  14.817  0.4064 -0.2656  0.0058
 9990TIP3    H151385   3.317   6.782  14.898 -0.5347 -0.6113 -0.2601
 9990TIP3    H251386   3.424   6.687  14.848  0.3310 -0.0788  0.5504
 9991TIP3   OH251387   6.223   3.063  17.076 -0.0751 -0.2587 -0.4043
 9991TIP3    H151388   6.287   3.033  17.141 -0.5251 -1.0853 -0.3369
 9991TIP3    H251389   6.171   3.129  17.123 -0.3613 -0.8083  0.0655
 9992TIP3   OH251390   0.221   5.489  13.658 -0.4550 -0.2672 -0.1379
 9992TIP3    H151391   0.242   5.404  13.697 -0.5709 -0.3403 -0.2341
 9992TIP3    H251392   0.137   5.514  13.698 -0.4640 -0.2389 -0.1743
 9993TIP3   OH251393   3.343   5.220  15.305 -0.7700  0.0537 -0.0080
 9993TIP3    H151394   3.413   5.164  15.271 -1.2987 -0.3266 -0.4909
 9993TIP3    H251395   3.345   5.207  15.400  1.6155  2.1515  0.3231
 9994TIP3   OH251396   5.347   0.218   3.766  0.1649 -0.0768 -0.5114
 9994TIP3    H151397   5.432   0.239   3.806  0.8037  0.6254 -2.1072
 9994TIP3    H251398   5.358   0.245   3.675 -1.5248 -0.7345 -0.9304
 9995TIP3   OH251399   5.802   6.403  13.473  0.3314 -0.1886 -0.4924
 9995TIP3    H151400   5.744   6.341  13.428 -0.7718  0.4858 -0.0481
 9995TIP3    H251401   5.883   6.400  13.423  0.0421 -1.4208 -0.9324
 9996TIP3   OH251402   4.739   4.980  10.718  0.3278  0.3915 -0.0018
 9996TIP3    H151403   4.648   5.005  10.699  0.0626 -0.4635  0.1129
 9996TIP3    H251404   4.731   4.905  10.776  1.0635 -1.1823 -1.8247
 9997TIP3   OH251405   2.202   3.768  11.551 -0.4879  0.2745 -0.1360
 9997TIP3    H151406   2.239   3.680  11.549 -1.2781 -0.1320  1.2699
 9997TIP3    H251407   2.266   3.822  11.506  0.5623 -0.8383 -0.0391
 9998TIP3   OH251408   5.967   0.356   5.520  0.2609 -0.2636  0.5525
 9998TIP3    H151409   6.014   0.421   5.468 -0.6365 -0.2774 -0.2937
 9998TIP3    H251410   5.960   0.280   5.462 -1.3165 -0.0541  0.4259
 9999TIP3   OH251411   4.369   1.190   4.905  0.0102  0.1980 -0.6260
 9999TIP3    H151412   4.371   1.174   4.810  0.7641 -2.4191 -0.2529
 9999TIP3    H251413   4.295   1.138   4.935  0.2668  0.3734  0.3171
10000TIP3   OH251414   5.184   4.295  13.081  0.0628 -0.2156 -0.1321
10000TIP3    H151415   5.158   4.280  12.990  1.9247  1.0752 -0.9335
10000TIP3    H251416   5.125   4.363  13.112  1.4048  1.6429 -1.4529
10001TIP3   OH251417   6.331   1.826  11.642  0.0579  0.2859 -0.1496
10001TIP3    H151418   6.335   1.754  11.704 -0.3330 -0.5762 -1.0977
10001TIP3    H251419   6.419   1.865  11.645  1.1268 -1.8119 -1.4401
10002TIP3   OH251420   4.815   0.073  10.987 -0.9923 -0.9108  0.6076
10002TIP3    H151421   4.735   0.059  11.037 -0.0195 -2.7446  1.7595
10002TIP3    H251422   4.865   0.135  11.040 -0.8218 -1.2963  0.9031
10003TIP3   OH251423   5.919   2.894   2.904  0.0807 -0.4014 -0.1898
10003TIP3    H151424   5.889   2.922   2.990  1.8753  0.8463  0.0763
10003TIP3    H251425   5.930   2.799   2.912  3.4333  0.0100  2.0990
10004TIP3   OH251426   1.774   2.480  16.836 -0.9342 -0.5491 -0.0249
10004TIP3    H151427   1.837   2.431  16.888  0.6050  0.4414 -0.8855
10004TIP3    H251428   1.810   2.480  16.747 -2.3498 -0.2797 -0.6340
10005TIP3   OH251429   0.173   2.278  17.174  0.2563 -0.1365  0.1186
10005TIP3    H151430   0.254   2.277  17.225  2.1267  1.4871 -2.5718
10005TIP3    H251431   0.156   2.371  17.157 -2.2914 -0.4229  0.7070
10006TIP3   OH251432   5.807   2.460   2.041 -0.1041 -0.3032  0.1206
10006TIP3    H151433   5.865   2.384   2.041  1.1460  0.6150 -0.2616
10006TIP3    H251434   5.826   2.505   2.123  0.3339  0.4233 -0.3587
10007TIP3   OH251435   6.132   4.770   1.705 -0.3687 -0.1297 -0.0146
10007TIP3    H151436   6.217   4.786   1.746  0.0876 -1.5497 -0.3204
10007TIP3    H251437   6.090   4.855   1.701  0.9445  0.5582  0.3658
10008TIP3   OH251438   4.537   5.260  16.077 -0.1277 -0.1428 -0.1218
10008TIP3    H151439   4.498   5.276  16.163  1.0178 -0.9813  0.5847
10008TIP3    H251440   4.467   5.218  16.027 -0.5298 -0.4920  0.7089
10009TIP3   OH251441   3.395   0.029   1.640  0.7342 -0.4365  0.5463
10009TIP3    H151442   3.449  -0.028   1.585  1.0391 -0.9342  1.3434
10009TIP3    H251443   3.452   0.054   1.712 -0.0224 -0.8145  1.3068
10010TIP3   OH251444   0.820   5.284  10.745  0.8465 -0.0347  0.3700
10010TIP3    H151445   0.735   5.281  10.701  0.3362  0.7780  1.2676
10010TIP3    H251446   0.861   5.200  10.723 -0.5254 -0.7929  0.5863
10011TIP3   OH251447   0.070   3.029  13.523  0.1881  0.4673  0.1592
10011TIP3    H151448   0.086   3.024  13.618 -0.4470  0.3325  0.2612
10011TIP3    H251449   0.158   3.035  13.485  0.5351 -0.8477  0.6775
10012TIP3   OH251450   1.339   4.149   1.023 -0.0800 -0.1004  0.4050
10012TIP3    H151451   1.320   4.059   1.048  0.5228 -0.5753 -0.7363
10012TIP3    H251452   1.358   4.144   0.929  1.5899  0.9498  0.6464
10013TIP3   OH251453   6.779   2.941   3.910 -0.2193 -1.0643  0.1549
10013TIP3    H151454   6.844   2.901   3.853  1.1701 -0.0162  0.9306
10013TIP3    H251455   6.758   3.025   3.868  0.5439 -0.4500  0.9579
10014TIP3   OH251456   5.985   3.258   5.631  0.0614 -0.1434  0.0583
10014TIP3    H151457   5.955   3.314   5.703 -1.7421  0.0018 -0.7591
10014TIP3    H251458   5.909   3.206   5.607  0.0565  1.0383 -2.8946
10015TIP3   OH251459   2.835   6.413  13.336 -0.0669  0.2201  0.0446
10015TIP3    H151460   2.903   6.348  13.316 -0.7027 -0.4345 -0.0362
10015TIP3    H251461   2.862   6.491  13.288  1.7417  0.6635  1.6563
10016TIP3   OH251462   3.833   0.444   3.761 -0.1878 -0.3244 -0.3792
10016TIP3    H151463   3.848   0.530   3.722 -0.7594 -1.2823 -2.9668
10016TIP3    H251464   3.918   0.418   3.796 -0.2538  1.6943  1.4591
10017TIP3   OH251465   2.206   3.841  16.010  0.6892 -0.4700 -0.1536
10017TIP3    H151466   2.237   3.825  16.099 -0.6078  1.0088  0.6135
10017TIP3    H251467   2.283   3.874  15.963  1.1964 -0.5335  0.6255
10018TIP3   OH251468   3.901   6.312  16.199  0.1039 -0.3061  0.1186
10018TIP3    H151469   3.881   6.284  16.109  0.7286 -0.9474  0.1718
10018TIP3    H251470   3.982   6.363  16.190  0.9781 -1.5780  0.4874
10019TIP3   OH251471   2.358   0.135   0.047 -0.4065 -0.0817  0.6167
10019TIP3    H151472   2.270   0.174   0.043  0.2588  1.4648 -0.1266
10019TIP3    H251473   2.390   0.142  -0.043 -0.3382 -2.7278  0.3755
10020TIP3   OH251474   2.348   0.592  11.160 -0.2751  0.2299 -0.3011
10020TIP3    H151475   2.360   0.608  11.253  0.0312 -0.3466 -0.2408
10020TIP3    H251476   2.357   0.679  11.120 -0.3068  0.4640  0.1895
10021TIP3   OH251477   6.424   4.581  14.465 -0.1164 -0.6344  0.3314
10021TIP3    H151478   6.493   4.515  14.467  0.5392  0.0519  1.3309
10021TIP3    H251479   6.410   4.603  14.557 -0.4995  0.4339  0.0244
10022TIP3   OH251480   1.022   3.516  15.891  0.5600  0.0935  0.0933
10022TIP3    H151481   1.053   3.558  15.810 -2.1905  1.6435 -0.2877
10022TIP3    H251482   1.094   3.528  15.953  1.5460  1.6769 -1.2530
10023TIP3   OH251483   4.444   0.096  10.812 -0.4863 -0.3994 -0.0489
10023TIP3    H151484   4.416   0.012  10.850  1.2593 -0.4745  1.2063
10023TIP3    H251485   4.363   0.137  10.782 -1.6008 -1.7138  1.0172
10024TIP3   OH251486   5.818   2.156  15.979  0.3800 -0.2101 -0.1637
10024TIP3    H151487   5.735   2.139  16.023  1.2988 -3.9453  0.4237
10024TIP3    H251488   5.878   2.181  16.049  1.0004 -2.8179  0.3084
10025TIP3   OH251489   0.600   6.280  17.027 -0.3582 -0.3428  0.2658
10025TIP3    H151490   0.607   6.353  16.966  1.7123  0.6033  1.5270
10025TIP3    H251491   0.661   6.215  16.993 -1.2945 -0.9984 -0.1838
10026TIP3   OH251492   3.276   3.104  16.702 -0.4620 -0.1455  0.2451
10026TIP3    H151493   3.311   3.087  16.614 -1.4890 -0.5828 -0.1057
10026TIP3    H251494   3.350   3.092  16.761  0.0735 -0.5917 -0.5043
10027TIP3   OH251495   0.555   4.082  12.437  0.1063 -0.0975  0.8173
10027TIP3    H151496   0.477   4.032  12.415  0.6016 -0.0248 -1.3263
10027TIP3    H251497   0.615   4.017  12.475  0.3807 -0.9896 -1.0455
10028TIP3   OH251498   1.694   1.940  11.966  0.3357 -0.6741  0.1461
10028TIP3    H151499   1.681   1.956  11.873 -0.2756  0.6448  0.4320
10028TIP3    H251500   1.621   1.883  11.991 -0.5042  0.3540  0.1383
10029TIP3   OH251501   2.748   0.861   5.264 -0.4347 -0.0645  0.0900
10029TIP3    H151502   2.736   0.808   5.185 -1.1207  1.6418 -0.9950
10029TIP3    H251503   2.670   0.842   5.316  0.5054 -1.9900  0.9024
10030TIP3   OH251504   0.306   5.404   4.505  0.2593  0.1860  0.2163
10030TIP3    H151505   0.287   5.497   4.497  1.6322  0.4893  0.2447
10030TIP3    H251506   0.306   5.371   4.415  1.3772  0.5807  0.0440
10031TIP3   OH251507   3.488   5.077  16.924 -0.0820  0.2084  0.0675
10031TIP3    H151508   3.512   5.083  17.016  1.1122  0.3175 -0.2355
10031TIP3    H251509   3.557   5.023  16.885 -0.5788  0.1564 -0.7570
10032TIP3   OH251510   6.273   4.613   3.587 -0.1298 -0.4458 -0.2567
10032TIP3    H151511   6.354   4.624   3.536 -0.1621  1.6080  0.0236
10032TIP3    H251512   6.207   4.592   3.522  0.5202 -1.6149 -0.5624
10033TIP3   OH251513   6.604   0.315  16.411  0.5711 -0.1963  0.0502
10033TIP3    H151514   6.642   0.390  16.457 -2.4838  1.0795  0.7675
10033TIP3    H251515   6.592   0.249  16.479 -1.0205  0.5074  0.5173
10034TIP3   OH251516   3.216   6.291  12.917 -0.0519 -0.4327 -0.7580
10034TIP3    H151517   3.219   6.385  12.933  0.2980 -0.5441 -0.1526
10034TIP3    H251518   3.132   6.276  12.875  0.4141  0.3351 -2.0241
10035TIP3   OH251519   3.268   2.589   5.553 -0.2463 -0.4424 -0.3057
10035TIP3    H151520   3.344   2.632   5.513 -0.8756 -0.4443 -1.5467
10035TIP3    H251521   3.268   2.501   5.516 -0.4564 -0.6707  0.2282
10036TIP3   OH251522   2.565   4.085  15.692  0.3949 -0.4221  0.7332
10036TIP3    H151523   2.640   4.044  15.648  1.0609 -0.0712  1.5249
10036TIP3    H251524   2.570   4.177  15.667  0.2286 -0.3970  0.7907
10037TIP3   OH251525   3.925   2.323  11.453  0.3671 -1.0921 -0.2514
10037TIP3    H151526   3.942   2.404  11.406 -0.7984 -0.1161  0.9469
10037TIP3    H251527   3.843   2.290  11.416 -0.3340 -0.5378  0.7781
10038TIP3   OH251528   6.465   5.938   5.272  0.0752  0.5188  0.1956
10038TIP3    H151529   6.417   5.856   5.266 -1.9665  1.6091  0.7539
10038TIP3    H251530   6.481   5.950   5.365  0.9923  0.4212  0.0552
10039TIP3   OH251531   2.237   0.484  15.247  0.1983  0.3251  0.2162
10039TIP3    H151532   2.330   0.483  15.270 -0.0602 -0.8247  1.3746
10039TIP3    H251533   2.228   0.558  15.188  1.7198  0.9184  0.6571
10040TIP3   OH251534   3.172   1.886  11.432  0.7599  0.4812 -0.7134
10040TIP3    H151535   3.207   1.797  11.420  0.9115 -0.0879  3.0006
10040TIP3    H251536   3.248   1.943  11.422  1.5386 -0.2099  0.9065
10041TIP3   OH251537   5.963   3.940   5.480 -0.1536  0.8374  0.5139
10041TIP3    H151538   6.026   4.009   5.461 -0.1189  1.1239  1.6368
10041TIP3    H251539   5.905   3.939   5.404  0.4858  1.3705  0.0068
10042TIP3   OH251540   6.019   3.476  12.237 -0.4445  0.1130 -0.2700
10042TIP3    H151541   6.114   3.481  12.223 -0.4963  0.9103 -0.3857
10042TIP3    H251542   6.010   3.452  12.329 -0.1311 -0.2802 -0.3382
10043TIP3   OH251543   3.080   0.696   1.295 -0.2404 -0.5775  0.3273
10043TIP3    H151544   3.036   0.613   1.281 -1.5106  0.3437 -1.5290
10043TIP3    H251545   3.024   0.743   1.357  0.9777 -1.3986  2.1508
10044TIP3   OH251546   6.254   0.398  14.255 -0.0348 -0.0751 -0.5718
10044TIP3    H151547   6.191   0.451  14.206 -0.0874 -0.7857 -1.2915
10044TIP3    H251548   6.263   0.443  14.339 -2.4669 -0.6162  0.0539
10045TIP3   OH251549   4.099   2.392  17.132 -0.1938 -0.9478 -0.0451
10045TIP3    H151550   4.123   2.308  17.172 -1.5671 -3.1607 -3.4036
10045TIP3    H251551   4.173   2.414  17.076 -0.2016 -0.2953  0.1863
10046TIP3   OH251552   5.758   2.655  16.669  0.0854 -0.1494  0.3126
10046TIP3    H151553   5.751   2.599  16.747 -2.4808 -0.2949  0.0638
10046TIP3    H251554   5.841   2.631  16.630 -0.2317 -2.7560  1.0410
10047TIP3   OH251555   3.715   5.190  15.429 -0.0080  0.3589  0.2634
10047TIP3    H151556   3.733   5.262  15.368  0.4247 -1.3959 -1.7842
10047TIP3    H251557   3.694   5.234  15.511  1.2687  2.8054 -0.6021
10048TIP3   OH251558   4.246   5.385  10.852 -0.6229 -0.0749  0.6099
10048TIP3    H151559   4.289   5.332  10.784 -0.7794 -0.5320  0.8628
10048TIP3    H251560   4.313   5.393  10.920 -0.9011 -0.7299  0.9741
10049TIP3   OH251561   5.941   1.440   5.987  0.0221  0.0339 -0.4737
10049TIP3    H151562   5.987   1.400   6.061  1.0051  0.3889 -0.8746
10049TIP3    H251563   5.853   1.456   6.020  0.2422 -0.4565  0.3950
10050TIP3   OH251564   5.164   2.608   5.548 -0.5291  0.0809  0.0239
10050TIP3    H151565   5.227   2.637   5.482 -0.6912 -1.2166 -0.7205
10050TIP3    H251566   5.079   2.621   5.507 -0.5987 -2.0436 -0.6426
10051TIP3   OH251567   5.246   3.935  14.371 -0.2857  0.2310  0.3773
10051TIP3    H151568   5.216   4.026  14.382 -0.9996 -0.0669  0.9728
10051TIP3    H251569   5.173   3.882  14.402  0.1262 -0.5554  0.0244
10052TIP3   OH251570   3.539   3.676   5.247  0.0569  0.4594  0.1967
10052TIP3    H151571   3.456   3.723   5.252 -1.0746 -1.2942 -0.9071
10052TIP3    H251572   3.572   3.675   5.337 -0.7952  1.7250  0.5373
10053TIP3   OH251573   1.402   5.781  12.528 -0.2359 -0.2181  0.3582
10053TIP3    H151574   1.395   5.711  12.592  0.5701 -0.1612  0.5260
10053TIP3    H251575   1.391   5.738  12.443  1.1825 -0.7339  0.4031
10054TIP3   OH251576   0.823   0.943   1.216  0.4116 -0.2122  0.7006
10054TIP3    H151577   0.772   1.019   1.188  1.5404  0.5111  0.5475
10054TIP3    H251578   0.866   0.912   1.136  1.3380  0.0698  1.0832
10055TIP3   OH251579   0.621   1.708   0.822 -0.9290  0.3246 -0.1646
10055TIP3    H151580   0.626   1.661   0.906 -1.4245  0.4949 -0.0400
10055TIP3    H251581   0.697   1.766   0.824 -0.6578 -0.0290 -0.0495
10056TIP3   OH251582   3.543   3.313  12.983 -0.5831 -0.8774 -0.4920
10056TIP3    H151583   3.508   3.265  12.908 -0.7233  1.6390 -2.1410
10056TIP3    H251584   3.479   3.382  12.999 -0.3594 -1.1298  1.7597
10057TIP3   OH251585   2.475   5.044  11.972 -0.0508  0.4022 -0.3582
10057TIP3    H151586   2.559   5.001  11.957 -0.3384 -1.0243  1.6800
10057TIP3    H251587   2.468   5.108  11.901  2.1131 -0.3643 -1.3623
10058TIP3   OH251588   3.437   5.609  11.931 -0.0231  0.3549 -0.1352
10058TIP3    H151589   3.457   5.632  11.841  1.3538  1.6893  0.4748
10058TIP3    H251590   3.495   5.535  11.950 -1.4607 -0.9975 -0.7986
10059TIP3   OH251591   5.000   3.453  16.617  0.5349  0.2032  0.2893
10059TIP3    H151592   4.981   3.375  16.668  0.8726 -1.0829 -1.4386
10059TIP3    H251593   5.064   3.502  16.669  2.1704 -1.8889  0.3981
10060TIP3   OH251594   6.509   6.644   1.186 -0.2569  0.1513 -0.3030
10060TIP3    H151595   6.479   6.569   1.238  0.0470 -0.0476 -0.4155
10060TIP3    H251596   6.603   6.631   1.176 -0.2893  0.2634 -0.7803
10061TIP3   OH251597   4.616   0.411   2.376  0.0062 -0.2752 -0.5587
10061TIP3    H151598   4.549   0.440   2.314 -0.8027 -0.8682  0.0327
10061TIP3    H251599   4.615   0.477   2.445 -1.5594 -1.4329  0.5867
10062TIP3   OH251600   3.301   4.936  15.705  0.1662 -0.2679  0.0846
10062TIP3    H151601   3.344   4.901  15.783 -0.0962  0.0657  0.3854
10062TIP3    H251602   3.219   4.972  15.738 -0.1643 -0.5442 -0.4195
10063TIP3   OH251603   1.677   6.599   5.486  0.8540  0.0682  0.4546
10063TIP3    H151604   1.608   6.639   5.538 -0.0428 -1.2442  0.3171
10063TIP3    H251605   1.758   6.635   5.522  0.1870  0.3101  1.7730
10064TIP3   OH251606   1.198   4.244  15.648 -0.2235  0.2926 -0.5472
10064TIP3    H151607   1.229   4.326  15.609 -1.1569  1.9133  1.8552
10064TIP3    H251608   1.260   4.178  15.617  1.3880  2.1261 -1.4960
10065TIP3   OH251609   5.993   2.058  12.894 -0.4737  0.0159 -0.0108
10065TIP3    H151610   6.054   2.062  12.967 -1.7583 -1.4434  1.2218
10065TIP3    H251611   5.999   2.144  12.852  1.5498  0.2893  0.7511
10066TIP3   OH251612   5.565   4.559   5.659  0.5897 -0.2680 -0.2792
10066TIP3    H151613   5.517   4.607   5.591 -0.5229 -0.1334  0.5606
10066TIP3    H251614   5.520   4.475   5.664 -0.1996  0.2128  1.1763
10067TIP3   OH251615   5.700   2.949  16.050  0.8577  0.2793 -0.2527
10067TIP3    H151616   5.773   2.927  15.992  0.7705 -0.4923 -0.0796
10067TIP3    H251617   5.686   3.042  16.037  2.2094  0.5445  0.0917
10068TIP3   OH251618   4.916   5.855  13.487  0.3258  0.2585 -0.2437
10068TIP3    H151619   4.968   5.901  13.554  0.7206  0.4029 -0.6454
10068TIP3    H251620   4.970   5.860  13.408 -0.6515  1.1182 -0.8763
10069TIP3   OH251621   3.073   4.457   3.074  0.2371  0.3745 -0.0012
10069TIP3    H151622   3.080   4.418   2.987 -1.2490 -0.0334  0.0476
10069TIP3    H251623   3.119   4.541   3.067  1.2127 -0.2073 -0.8203
10070TIP3   OH251624   1.785   0.799  16.309  0.1225 -0.1348  0.3061
10070TIP3    H151625   1.745   0.824  16.392 -0.4234  0.0695 -0.0154
10070TIP3    H251626   1.712   0.767  16.255  0.4717 -0.2738 -0.0933
10071TIP3   OH251627   4.286   1.613   3.266 -0.2897  0.2951  0.0148
10071TIP3    H151628   4.371   1.655   3.254 -0.1682 -0.1283 -0.6482
10071TIP3    H251629   4.263   1.632   3.357 -0.6902  2.6156 -0.5063
10072TIP3   OH251630   5.451   2.893  16.123  0.1733  0.1765  0.4865
10072TIP3    H151631   5.390   2.931  16.059  2.2285 -0.2837 -1.8823
10072TIP3    H251632   5.538   2.916  16.090  1.4539 -3.5394  0.8331
10073TIP3   OH251633   1.272   3.742  15.438  0.2966  0.1563 -0.5192
10073TIP3    H151634   1.207   3.761  15.370 -0.8132  0.0242  0.4759
10073TIP3    H251635   1.312   3.827  15.456  0.3885  0.2461 -1.1185
10074TIP3   OH251636   0.355   1.756   4.513  0.1969 -0.6402 -0.6011
10074TIP3    H151637   0.375   1.848   4.532  0.1504 -0.6226 -0.6375
10074TIP3    H251638   0.289   1.760   4.444  3.5005 -0.7387 -4.0693
10075TIP3   OH251639   2.794   2.132  11.592  0.1203  0.3256 -0.8200
10075TIP3    H151640   2.714   2.084  11.571 -1.3470  2.2570  0.1017
10075TIP3    H251641   2.846   2.128  11.511 -0.7512 -1.1751 -1.3563
10076TIP3   OH251642   5.028   1.278  13.955 -0.0303 -0.0631  0.6927
10076TIP3    H151643   4.947   1.276  14.005 -0.9598 -1.1120 -0.8024
10076TIP3    H251644   5.082   1.344  14.000 -1.5820  0.4691  1.8509
10077TIP3   OH251645   6.266   5.666  13.826  0.6274 -0.3070 -0.0148
10077TIP3    H151646   6.302   5.615  13.899  1.1123 -0.0742 -0.0892
10077TIP3    H251647   6.189   5.616  13.798 -0.3608  0.2856  1.5204
10078TIP3   OH251648   0.674   3.969   4.113  0.1377 -0.1112  0.2984
10078TIP3    H151649   0.681   3.878   4.142  0.1675 -0.5742 -1.1026
10078TIP3    H251650   0.758   4.008   4.136  0.0732 -0.3832  1.0364
10079TIP3   OH251651   2.806   3.223  12.179  0.0951 -0.0724  0.3940
10079TIP3    H151652   2.742   3.293  12.166  1.2438  0.7665 -1.0943
10079TIP3    H251653   2.764   3.146  12.140 -0.9595 -0.1320  1.5759
10080TIP3   OH251654   3.029   0.177   3.203 -0.1011  0.4529  0.4315
10080TIP3    H151655   3.052   0.084   3.211  0.9076  0.8001  1.8751
10080TIP3    H251656   3.113   0.222   3.196 -0.6007  1.1739 -1.9511
10081TIP3   OH251657   0.980   1.536  10.884 -0.3013 -0.6497  0.2690
10081TIP3    H151658   0.917   1.598  10.847 -0.1286 -0.6094  0.0371
10081TIP3    H251659   1.041   1.591  10.934 -0.5784 -0.7123  0.6770
10082TIP3   OH251660   1.894   1.373   1.081  0.0142  0.1850  0.2025
10082TIP3    H151661   1.973   1.377   1.134  1.2561 -0.1027 -1.5191
10082TIP3    H251662   1.847   1.454   1.100  1.9355  1.5385 -0.4751
10083TIP3   OH251663   3.580   2.524   1.064  0.4644 -0.1781 -0.1102
10083TIP3    H151664   3.532   2.606   1.058 -0.1773 -0.4911  0.6589
10083TIP3    H251665   3.513   2.456   1.057  0.7640 -0.6201  1.0506
10084TIP3   OH251666   3.967   2.259  12.226  0.5036  0.3874  0.0536
10084TIP3    H151667   3.914   2.300  12.295  0.2539  0.2300 -0.0449
10084TIP3    H251668   3.936   2.301  12.146 -0.7130 -0.9591 -0.2136
10085TIP3   OH251669   0.354   6.315   4.259  0.3906 -0.1061 -0.4657
10085TIP3    H151670   0.274   6.326   4.207  0.3925  0.5354 -0.3536
10085TIP3    H251671   0.327   6.336   4.349  0.5017 -0.6980 -0.2882
10086TIP3   OH251672   1.791   1.211   5.067 -0.1276  0.3013 -0.4540
10086TIP3    H151673   1.753   1.260   5.140 -1.9104 -0.6085 -0.7268
10086TIP3    H251674   1.809   1.124   5.102  0.3504  0.2825 -0.7282
10087TIP3   OH251675   0.159   2.142   4.756 -0.5510 -0.1612  0.2818
10087TIP3    H151676   0.208   2.218   4.725 -1.3798  0.2836  0.0156
10087TIP3    H251677   0.078   2.179   4.792 -0.3049 -0.8007  1.5516
10088TIP3   OH251678   6.505   0.970   3.928 -0.0945 -0.0333 -0.2569
10088TIP3    H151679   6.544   1.030   3.865 -0.1849  0.0068 -0.2749
10088TIP3    H251680   6.442   1.023   3.977  1.0981  0.3250  0.9439
10089TIP3   OH251681   0.065   2.356  14.714 -0.4761  0.0974 -0.0447
10089TIP3    H151682  -0.019   2.362  14.669 -1.3574 -1.5524  1.2550
10089TIP3    H251683   0.101   2.272  14.686 -0.5351 -0.4455  1.4448
10090TIP3   OH251684   2.343   2.496   5.435 -0.3059  0.2163 -0.4577
10090TIP3    H151685   2.322   2.428   5.371  0.9414 -0.0962 -0.5569
10090TIP3    H251686   2.403   2.453   5.496  0.0947  1.0963 -0.2253
10091TIP3   OH251687   1.867   0.275  16.637  0.1383 -0.3205  0.3317
10091TIP3    H151688   1.883   0.185  16.609  2.2056  0.4026 -1.0895
10091TIP3    H251689   1.828   0.317  16.561 -0.8073  0.0115  0.9878
10092TIP3   OH251690   3.046   3.988   5.571 -0.1986  0.1191  0.1533
10092TIP3    H151691   3.139   3.973   5.553  0.5482  3.0732  1.0461
10092TIP3    H251692   3.001   3.946   5.498  1.7925 -1.3658 -0.3292
10093TIP3   OH251693   0.289   4.467  10.811  0.5278  0.7488  0.4584
10093TIP3    H151694   0.383   4.483  10.811  0.7763 -0.3192 -1.6650
10093TIP3    H251695   0.280   4.377  10.778 -1.2524  1.1334 -0.1946
10094TIP3   OH251696   0.564   3.152  14.130 -0.3750 -0.7627  0.6298
10094TIP3    H151697   0.599   3.174  14.043  0.4211  0.4768  1.2340
10094TIP3    H251698   0.567   3.056  14.133  2.7771 -0.7823  0.5117
10095TIP3   OH251699   3.742   2.478   0.651  0.0255  0.9637 -0.0509
10095TIP3    H151700   3.783   2.465   0.736  1.8422  3.0676 -0.5093
10095TIP3    H251701   3.776   2.408   0.597  0.6175  0.8962  0.3942
10096TIP3   OH251702   5.701   3.450  14.952  0.3632 -0.3146  0.1056
10096TIP3    H151703   5.679   3.509  15.024 -2.0629  0.5644 -1.2503
10096TIP3    H251704   5.621   3.401  14.936  0.7901 -0.4187 -2.0200
10097TIP3   OH251705   0.531   4.107   1.601 -0.0317  0.3759  0.5576
10097TIP3    H151706   0.609   4.152   1.569 -0.7585  0.0003 -1.9238
10097TIP3    H251707   0.564   4.025   1.639  0.7284 -0.6608 -2.1214
10098TIP3   OH251708   0.356   4.204   0.658 -0.1252  0.0789  0.1236
10098TIP3    H151709   0.310   4.234   0.579 -1.3999 -0.8810  0.4737
10098TIP3    H251710   0.291   4.154   0.706  0.6639  0.5716  1.7680
10099TIP3   OH251711   1.845   6.553   2.820 -0.1942  0.8671 -0.3985
10099TIP3    H151712   1.781   6.577   2.752 -0.6553 -1.7245 -1.0053
10099TIP3    H251713   1.905   6.628   2.824 -0.0711  1.1179 -3.7778
10100TIP3   OH251714   6.017   1.543   2.230 -0.4229 -0.6959  0.2102
10100TIP3    H151715   6.043   1.473   2.170 -1.1023 -1.6382  0.9741
10100TIP3    H251716   6.093   1.600   2.235 -0.2365 -0.7837 -1.2736
10101TIP3   OH251717   1.913   2.241  13.733  0.1736  0.1912 -0.5850
10101TIP3    H151718   1.949   2.285  13.657  1.4560 -0.5985 -0.4763
10101TIP3    H251719   1.826   2.279  13.745  0.5314  1.3629 -1.5515
10102TIP3   OH251720   4.274   5.251   2.512  0.0777 -0.4132  0.1081
10102TIP3    H151721   4.328   5.321   2.477 -0.4302 -0.2649 -0.4049
10102TIP3    H251722   4.191   5.258   2.463 -0.3210 -0.7687  0.7168
10103TIP3   OH251723   6.207   1.968  14.899  0.2121 -0.2333 -0.0601
10103TIP3    H151724   6.287   1.917  14.889  1.0643  1.2387 -1.2472
10103TIP3    H251725   6.184   1.995  14.810  0.7094  2.7081  0.5911
10104TIP3   OH251726   3.189   4.695   3.100 -0.4473  0.7165 -0.3957
10104TIP3    H151727   3.281   4.719   3.106 -0.7489  1.4865  1.6789
10104TIP3    H251728   3.149   4.730   3.179 -2.1530 -1.3115 -0.2781
10105TIP3   OH251729   5.678   5.948  16.378 -0.0840 -0.4917  0.1864
10105TIP3    H151730   5.618   5.903  16.319  0.3024  0.2443 -0.7970
10105TIP3    H251731   5.624   6.012  16.424 -0.0509  0.3103 -0.8441
10106TIP3   OH251732   2.064   5.131  16.183  0.4307  0.5043  0.4588
10106TIP3    H151733   2.080   5.070  16.255  2.8805  0.8498  0.3133
10106TIP3    H251734   2.083   5.217  16.221 -1.5672  1.0787  0.2661
10107TIP3   OH251735   3.323   6.011  14.731 -0.2201 -0.0448  0.7209
10107TIP3    H151736   3.367   5.943  14.680 -1.8544 -0.8529  0.3531
10107TIP3    H251737   3.395   6.069  14.759  1.3912 -2.4195  1.8878
10108TIP3   OH251738   6.328   6.640  14.822  0.3808 -0.1741 -0.3230
10108TIP3    H151739   6.330   6.679  14.735  0.4688  1.6323  0.4518
10108TIP3    H251740   6.391   6.568  14.818 -0.1113 -0.5492 -1.9229
10109TIP3   OH251741   1.494   2.795   4.125 -0.7842 -0.2407 -0.4871
10109TIP3    H151742   1.445   2.834   4.052  1.5767  0.3880 -1.8452
10109TIP3    H251743   1.577   2.768   4.086  1.2832  1.6129  2.2640
10110TIP3   OH251744   2.031   4.087   4.750  0.2281 -0.1980  0.5428
10110TIP3    H151745   2.097   4.060   4.686 -0.7180  1.6410 -1.3279
10110TIP3    H251746   2.040   4.182   4.757 -2.0806  0.1120  0.3256
10111TIP3   OH251747   6.652   5.114   5.001 -0.1364  0.1117  1.1820
10111TIP3    H151748   6.746   5.107   4.983 -0.0162 -0.8745  2.0904
10111TIP3    H251749   6.647   5.171   5.078 -0.3170  0.4990  0.8861
10112TIP3   OH251750   1.943   1.647   4.464  0.5706  0.1022  0.0872
10112TIP3    H151751   1.853   1.627   4.438  0.3159  0.2245  0.8593
10112TIP3    H251752   1.964   1.582   4.531  2.3958 -2.4127 -2.6437
10113TIP3   OH251753   6.447   3.147  11.723  0.3965 -0.8666 -0.1562
10113TIP3    H151754   6.363   3.117  11.756  0.3545  0.4062  0.9972
10113TIP3    H251755   6.433   3.239  11.702  1.2838 -0.8569 -0.7891
10114TIP3   OH251756   2.110   6.279  12.607  0.0906  0.0638  0.2825
10114TIP3    H151757   2.060   6.340  12.552 -0.4023 -0.9397 -0.4189
10114TIP3    H251758   2.166   6.231  12.546 -0.0883 -0.7080  0.7064
10115TIP3   OH251759   1.054   2.979   3.474 -0.5932  0.3130  0.1485
10115TIP3    H151760   1.102   2.917   3.419  0.0609 -1.3963  2.4650
10115TIP3    H251761   0.973   2.933   3.496 -0.6623  0.7774  0.9028
10116TIP3   OH251762   3.506   4.031  12.220 -0.3931  0.6371  0.0751
10116TIP3    H151763   3.516   3.937  12.235 -0.4002  0.9359  2.2810
10116TIP3    H251764   3.596   4.064  12.212 -0.4063  0.3847 -1.3298
10117TIP3   OH251765   2.969   0.527   6.315  0.7749 -0.8609  0.1893
10117TIP3    H151766   3.048   0.489   6.355  0.8851 -1.6163 -0.7054
10117TIP3    H251767   2.900   0.511   6.379  1.4454  0.3498  1.2595
10118TIP3   OH251768   5.798   1.352  13.777  0.0725  0.1388  0.5109
10118TIP3    H151769   5.714   1.328  13.817 -0.3434  0.2348 -0.2651
10118TIP3    H251770   5.790   1.320  13.687  0.3316  1.3677  0.0391
10119TIP3   OH251771   0.879   1.335  16.115 -0.2944  0.3004  0.4554
10119TIP3    H151772   0.922   1.420  16.122  2.9194 -1.0296 -0.8919
10119TIP3    H251773   0.803   1.350  16.060 -0.2492  2.3848  0.8642
10120TIP3   OH251774   6.006   1.772   4.646 -0.1682  0.1587 -0.0594
10120TIP3    H151775   6.051   1.856   4.655  1.0631 -0.4756 -0.0196
10120TIP3    H251776   6.051   1.730   4.573  0.4008 -1.1692  1.0203
10121TIP3   OH251777   3.245   0.681  14.919  0.1325  0.3593 -0.4582
10121TIP3    H151778   3.322   0.710  14.870  0.3443  2.7464  1.1336
10121TIP3    H251779   3.195   0.628  14.856  1.0434  2.1513 -2.8228
10122TIP3   OH251780   5.547   1.632  15.841 -0.4355 -0.6812  0.4637
10122TIP3    H151781   5.578   1.558  15.788  0.0270 -0.7458  0.8192
10122TIP3    H251782   5.488   1.593  15.905 -0.5903 -0.6718  0.3285
10123TIP3   OH251783   4.746   0.251   4.446  0.6613 -0.5167  0.3772
10123TIP3    H151784   4.688   0.240   4.370  1.2251 -1.9202  0.1160
10123TIP3    H251785   4.818   0.190   4.430  0.6488 -1.0507  2.1970
10124TIP3   OH251786   6.266   2.118   6.486  0.2359  0.2929 -0.1521
10124TIP3    H151787   6.270   2.023   6.495  0.4516  0.1006 -1.9424
10124TIP3    H251788   6.354   2.148   6.509  1.0781 -0.2618 -2.3600
10125TIP3   OH251789   1.816   0.581   5.833  0.3345 -0.4871  0.0311
10125TIP3    H151790   1.836   0.640   5.906  1.2861  0.2441 -0.8027
10125TIP3    H251791   1.720   0.572   5.836  0.0124  1.9901 -0.4607
10126TIP3   OH251792   4.965   5.360  14.309 -0.6796  0.1501  1.0808
10126TIP3    H151793   4.916   5.442  14.310  1.6315  1.6726 -0.1087
10126TIP3    H251794   4.941   5.318  14.226  0.3093  1.1488  0.2476
10127TIP3   OH251795   5.833   1.284   4.711  0.5627 -0.0982 -0.0802
10127TIP3    H151796   5.748   1.242   4.697  0.6863 -0.9376  1.4405
10127TIP3    H251797   5.848   1.335   4.631 -1.3708  0.0932 -0.3819
10128TIP3   OH251798   0.977   0.788   1.886 -0.0427 -0.1643 -0.1584
10128TIP3    H151799   0.975   0.710   1.941  0.5100 -0.0479  0.0361
10128TIP3    H251800   1.066   0.791   1.851 -0.4435 -0.3599 -1.2537
10129TIP3   OH251801   4.493   0.661  13.172 -0.4211  0.0928 -0.6073
10129TIP3    H151802   4.419   0.627  13.121 -1.5400  1.7139 -0.1305
10129TIP3    H251803   4.466   0.749  13.198 -0.3767 -0.9621  3.6812
10130TIP3   OH251804   3.788   3.465   5.919 -0.4054  0.2013 -0.4255
10130TIP3    H151805   3.784   3.468   6.015 -1.7919 -3.5340 -0.1901
10130TIP3    H251806   3.836   3.385   5.900  0.5466  1.2828 -2.9451
10131TIP3   OH251807   6.393   4.964   2.539  0.3136 -0.4495 -0.1593
10131TIP3    H151808   6.386   4.930   2.629  3.1214  1.8988  1.0875
10131TIP3    H251809   6.483   4.945   2.513 -0.6659 -1.8764 -2.9649
10132TIP3   OH251810   4.007   4.685  13.369  0.3161  0.1608  0.0197
10132TIP3    H151811   3.993   4.608  13.315 -1.2411 -1.2695  2.2865
10132TIP3    H251812   4.033   4.651  13.454  1.7540  2.2617  0.5027
10133TIP3   OH251813   0.032   5.817  13.043  0.3894 -0.3161 -0.0015
10133TIP3    H151814   0.016   5.877  13.116 -1.9810  1.2560 -1.6487
10133TIP3    H251815   0.008   5.868  12.965  0.3359 -2.7372 -1.6743
10134TIP3   OH251816   3.237   6.727  16.243  0.6051 -0.4982  0.2901
10134TIP3    H151817   3.160   6.718  16.298  1.0936  2.2603  1.5742
10134TIP3    H251818   3.311   6.725  16.304  1.2104  1.7513 -0.2934
10135TIP3   OH251819   5.659   6.149   2.772 -0.1370  0.4179  0.1089
10135TIP3    H151820   5.703   6.090   2.710  0.5457  0.9374  0.0773
10135TIP3    H251821   5.669   6.236   2.733 -2.7885  0.3866 -0.7990
10136TIP3   OH251822   5.158   3.376   0.849  0.6206 -0.1853  0.7100
10136TIP3    H151823   5.130   3.465   0.830  0.2288 -0.0884  1.7003
10136TIP3    H251824   5.253   3.381   0.853  0.5980  0.1942  0.7939
10137TIP3   OH251825   0.184   3.424  16.538  0.1354  0.1340  0.1725
10137TIP3    H151826   0.169   3.480  16.614  0.8078  0.3838  0.1312
10137TIP3    H251827   0.262   3.373  16.561 -0.1427 -0.3861 -0.0168
10138TIP3   OH251828   1.360   2.609  16.167  0.2009  0.0583 -0.0279
10138TIP3    H151829   1.438   2.637  16.215 -1.6710  0.8606  2.8232
10138TIP3    H251830   1.316   2.690  16.143 -1.0932 -0.3589  0.8492
10139TIP3   OH251831   3.985   5.005   2.407 -0.0006 -0.0878 -0.6052
10139TIP3    H151832   3.977   5.003   2.502  3.1560  2.3898 -0.0873
10139TIP3    H251833   3.916   5.064   2.378  0.2243  0.7203  0.4359
10140TIP3   OH251834   1.819   0.861  11.561 -0.3123 -0.2115 -0.1488
10140TIP3    H151835   1.886   0.793  11.575 -0.2052 -0.4215 -1.5382
10140TIP3    H251836   1.755   0.846  11.631 -0.3007 -1.7801 -0.4319
10141TIP3   OH251837   4.298   4.613  15.501 -0.1574  0.2544 -0.0121
10141TIP3    H151838   4.366   4.679  15.485 -1.1055  0.8100 -2.0755
10141TIP3    H251839   4.217   4.657  15.475 -1.1464 -0.8624  1.0926
10142TIP3   OH251840   0.894   3.569   5.559  0.3246 -0.3456  0.7240
10142TIP3    H151841   0.861   3.522   5.483  2.9665 -0.3884 -0.5127
10142TIP3    H251842   0.931   3.502   5.616  1.6486 -0.0444  0.2549
10143TIP3   OH251843   4.002   3.539   0.870 -0.0763  0.1722  0.2965
10143TIP3    H151844   3.978   3.458   0.916 -1.1412  0.5978  0.5091
10143TIP3    H251845   4.060   3.510   0.800  3.3047 -0.3282  3.0351
10144TIP3   OH251846   5.898   3.664   2.840 -0.3157 -0.0830  0.6690
10144TIP3    H151847   5.923   3.584   2.794  2.4258 -0.0853  1.9767
10144TIP3    H251848   5.839   3.635   2.909  0.4051 -0.9466  0.9398
10145TIP3   OH251849   1.553   6.307   5.489 -0.3722 -0.4253  0.1546
10145TIP3    H151850   1.562   6.370   5.561  0.1576 -0.3172 -0.0045
10145TIP3    H251851   1.599   6.348   5.415 -0.4601 -0.7732 -0.0963
10146TIP3   OH251852   5.797   2.701   1.529 -0.4352  0.6344  0.3572
10146TIP3    H151853   5.803   2.624   1.584  1.8073  0.5998  0.1202
10146TIP3    H251854   5.787   2.774   1.591  0.5237  0.4468  0.7390
10147TIP3   OH251855   1.333   4.440  14.259 -0.0118  0.0628  0.0772
10147TIP3    H151856   1.282   4.361  14.240  1.0119 -0.8265  0.9002
10147TIP3    H251857   1.273   4.495  14.308 -0.6183 -0.3672 -0.1555
10148TIP3   OH251858   3.201   6.369   4.522 -0.2349 -0.3336  0.1020
10148TIP3    H151859   3.277   6.362   4.464  0.6304 -2.3981  1.3718
10148TIP3    H251860   3.220   6.444   4.578  1.0373 -0.9617  0.5591
10149TIP3   OH251861   3.165   4.334  12.132 -0.2789  0.4345  0.2220
10149TIP3    H151862   3.257   4.323  12.107  0.0166 -1.5585  1.8687
10149TIP3    H251863   3.119   4.346  12.050  1.3919  0.9545 -0.6903
10150TIP3   OH251864   1.366   2.029   0.883 -0.1023  0.3575 -0.4218
10150TIP3    H151865   1.278   2.065   0.875 -0.1188  0.0726 -1.7233
10150TIP3    H251866   1.389   2.043   0.975 -0.4965  2.7344 -0.6304
10151TIP3   OH251867   5.745   6.694   4.664  0.1899 -0.1721  0.2849
10151TIP3    H151868   5.770   6.675   4.754  0.2030 -3.3262 -0.2653
10151TIP3    H251869   5.721   6.609   4.627  1.4472  0.7499 -3.0754
10152TIP3   OH251870   0.094   5.920   1.229 -0.0811 -0.3950 -0.3574
10152TIP3    H151871   0.075   6.009   1.200 -2.7188 -0.9374 -0.5728
10152TIP3    H251872   0.183   5.903   1.199  1.2042  2.7311  1.2279
10153TIP3   OH251873   5.406   4.761  10.884  0.5612  0.1323 -0.2166
10153TIP3    H151874   5.498   4.765  10.908  1.3714 -1.7529 -2.7109
10153TIP3    H251875   5.390   4.841  10.834  0.6713  0.7121  0.6565
10154TIP3   OH251876   4.608   4.258  16.702  0.2359 -0.3736 -0.3357
10154TIP3    H151877   4.665   4.207  16.645  0.9794  1.0866 -0.9389
10154TIP3    H251878   4.660   4.271  16.782  0.7599  0.9528 -0.8831
10155TIP3   OH251879   4.715   1.015  14.585 -0.0745 -0.0632  0.4645
10155TIP3    H151880   4.668   0.988  14.664 -1.1498  0.1849 -0.0657
10155TIP3    H251881   4.723   0.935  14.533  1.1230 -0.3461  1.0342
10156TIP3   OH251882   3.332   2.579   0.402 -0.0396 -0.3226  0.2774
10156TIP3    H151883   3.389   2.609   0.331 -1.0735  1.4955  0.1332
10156TIP3    H251884   3.374   2.612   0.482 -0.1108 -0.3037  0.3069
10157TIP3   OH251885   1.021   4.116  12.363  0.4472  0.5049  0.3269
10157TIP3    H151886   1.016   4.092  12.270 -3.5988  2.1156 -0.0738
10157TIP3    H251887   1.039   4.033  12.407  0.5448 -0.6790 -1.7715
10158TIP3   OH251888   3.258   4.700   2.813 -0.1356  0.3440  0.2739
10158TIP3    H151889   3.243   4.695   2.908  1.1178  0.1967  0.4758
10158TIP3    H251890   3.300   4.785   2.800  0.7745 -0.1291  0.0192
10159TIP3   OH251891   0.031   2.121  13.922 -0.7038 -0.1627  0.0120
10159TIP3    H151892  -0.037   2.151  13.862 -1.3880  0.3249  0.9995
10159TIP3    H251893  -0.012   2.118  14.008  0.7771  1.2322  0.8705
10160TIP3   OH251894   5.094   0.856  12.282 -0.4211 -0.5412  0.3192
10160TIP3    H151895   5.000   0.866  12.267 -0.1754  1.0444 -0.4045
10160TIP3    H251896   5.104   0.768  12.319 -2.3016 -0.3054  1.4991
10161TIP3   OH251897   2.095   3.755   3.649  0.2397 -0.3219 -0.1990
10161TIP3    H151898   2.006   3.790   3.645  0.9250  1.3974 -1.9108
10161TIP3    H251899   2.125   3.774   3.739 -0.7337  0.0768  0.0502
10162TIP3   OH251900   4.959   4.365   5.487  0.2171 -0.3768  0.2478
10162TIP3    H151901   4.919   4.441   5.529  1.1194 -1.0975  2.5707
10162TIP3    H251902   5.029   4.402   5.432 -0.2399  0.5327  0.2628
10163TIP3   OH251903   6.762   0.152  15.036 -0.6628  0.1876 -0.0328
10163TIP3    H151904   6.715   0.096  14.975  0.5612  1.7001 -2.5349
10163TIP3    H251905   6.756   0.107  15.120 -1.6305 -2.4934 -1.4302
10164TIP3   OH251906   6.225   1.107  13.117 -0.5776  0.0244  0.2970
10164TIP3    H151907   6.184   1.119  13.031  0.9257  0.9954 -0.3198
10164TIP3    H251908   6.169   1.156  13.177 -0.3647  1.3014 -0.5148
10165TIP3   OH251909   3.877   3.381   6.217  0.5114  0.3842  0.3463
10165TIP3    H151910   3.943   3.321   6.184 -0.6193 -0.3516 -0.6549
10165TIP3    H251911   3.816   3.326   6.265 -0.0018  0.8749  0.2769
10166TIP3   OH251912   0.486   2.524  15.598  0.5437 -0.3396 -0.5362
10166TIP3    H151913   0.565   2.579  15.592  0.1444  0.2117 -0.8075
10166TIP3    H251914   0.464   2.503  15.507  0.2107 -0.2486 -0.4779
10167TIP3   OH251915   5.936   3.141   2.715 -0.2063  0.0922 -0.3339
10167TIP3    H151916   5.899   3.104   2.796  3.3732  0.6920  1.8296
10167TIP3    H251917   5.976   3.066   2.672  0.2625  0.1788 -0.0610
10168TIP3   OH251918   3.772   6.742   4.775 -0.7965 -0.2715  0.2795
10168TIP3    H151919   3.828   6.789   4.838 -1.8007  1.2863  0.0573
10168TIP3    H251920   3.815   6.657   4.764  1.0590  0.5450  0.7689
10169TIP3   OH251921   3.513   6.639   4.782 -0.5093 -0.4049  0.7146
10169TIP3    H151922   3.599   6.677   4.797 -0.8230 -0.0316  1.6497
10169TIP3    H251923   3.463   6.709   4.739 -0.2411 -0.7504 -0.1764
10170TIP3   OH251924   6.179   1.407  12.057 -0.4600  0.9474 -0.1073
10170TIP3    H151925   6.268   1.437  12.070  0.3001 -1.2003 -0.0047
10170TIP3    H251926   6.151   1.450  11.976  1.0092  0.9100 -0.6655
10171TIP3   OH251927   0.062   0.660  13.788 -0.1203  0.0005 -0.1551
10171TIP3    H151928   0.035   0.640  13.878 -0.0292 -0.7992 -0.3030
10171TIP3    H251929  -0.015   0.642  13.735 -0.5004  1.4319 -0.1430
10172TIP3   OH251930   1.614   5.500   2.019  0.5812 -0.0528 -0.0809
10172TIP3    H151931   1.552   5.524   1.951  0.5365  1.1565  0.3556
10172TIP3    H251932   1.561   5.492   2.098  0.8708  0.2737  0.1493
10173TIP3   OH251933   0.786   6.409   2.828  0.6396  0.2838 -1.1119
10173TIP3    H151934   0.840   6.330   2.827 -1.1572 -1.0223 -1.0518
10173TIP3    H251935   0.729   6.397   2.905 -0.2927  1.1792 -1.6456
10174TIP3   OH251936   1.364   0.333   6.042  0.2118 -0.5204  0.0232
10174TIP3    H151937   1.430   0.401   6.031 -1.3934  1.3602  1.2835
10174TIP3    H251938   1.374   0.304   6.133 -0.5254 -0.3677  0.1598
10175TIP3   OH251939   2.802   2.382  11.532  0.1742  0.5831  0.6410
10175TIP3    H151940   2.793   2.363  11.439  0.6921 -0.2432  0.7489
10175TIP3    H251941   2.776   2.301  11.576 -1.2140  1.3392  1.2690
10176TIP3   OH251942   6.417   1.845  13.672  1.2451 -0.4945 -0.3033
10176TIP3    H151943   6.497   1.801  13.702  1.2571  0.2314  0.7851
10176TIP3    H251944   6.346   1.789  13.702  1.2561  0.2488  1.1754
10177TIP3   OH251945   6.604   3.892  12.196 -0.4661 -0.4446  0.0901
10177TIP3    H151946   6.525   3.925  12.153 -0.5881  0.8654  1.2304
10177TIP3    H251947   6.572   3.831  12.262 -0.5137 -0.1676  0.3269
10178TIP3   OH251948   1.265   3.987   1.890  0.2898 -0.1489 -0.2888
10178TIP3    H151949   1.329   3.979   1.960 -1.7962 -1.0944  1.6383
10178TIP3    H251950   1.213   4.064   1.913 -0.0869 -0.1398 -1.1116
10179TIP3   OH251951   2.758   5.762   1.598 -0.2865  0.3452 -0.4581
10179TIP3    H151952   2.824   5.755   1.529 -0.5927 -0.4947 -0.6744
10179TIP3    H251953   2.809   5.767   1.679  0.0563 -0.3624 -0.6187
10180TIP3   OH251954   1.111   1.682   5.537  0.3758 -0.4278  0.3611
10180TIP3    H151955   1.109   1.744   5.609  1.1967  0.4769 -0.3717
10180TIP3    H251956   1.091   1.734   5.459  2.9719 -0.6470 -0.5382
10181TIP3   OH251957   1.811   2.876   4.444 -0.3626  0.0097 -0.1807
10181TIP3    H151958   1.748   2.814   4.480 -0.1885 -0.4775 -0.7013
10181TIP3    H251959   1.895   2.852   4.485 -0.2919 -0.1116 -0.3961
10182TIP3   OH251960   1.984   3.949   5.812 -0.9201 -0.1327  0.3084
10182TIP3    H151961   2.008   3.868   5.856 -2.0373 -0.3754  0.5017
10182TIP3    H251962   1.918   3.923   5.747 -1.4445  0.6323  0.5120
10183TIP3   OH251963   2.739   3.287   2.857  0.2726  0.3963 -0.3571
10183TIP3    H151964   2.734   3.362   2.916  0.6084  0.2943 -0.1980
10183TIP3    H251965   2.650   3.251   2.857  0.4939 -0.2179  0.8987
10184TIP3   OH251966   4.985   6.747   5.522  0.2096  0.1840 -0.4402
10184TIP3    H151967   4.982   6.662   5.565 -0.8101  0.3925 -0.0741
10184TIP3    H251968   5.059   6.792   5.562 -0.5943  0.2939  0.9757
10185TIP3   OH251969   2.529   0.603   2.471  0.2167  0.1614 -0.0980
10185TIP3    H151970   2.610   0.621   2.519 -0.0205  0.6100  0.1456
10185TIP3    H251971   2.534   0.510   2.448 -0.9355 -0.8851  3.2606
10186TIP3   OH251972   5.810   3.754   4.936 -0.2340 -0.4834 -0.8550
10186TIP3    H151973   5.901   3.768   4.963 -0.0858 -0.5931 -1.2935
10186TIP3    H251974   5.759   3.780   5.012  0.2040 -1.6004 -0.1503
10187TIP3   OH251975   3.915   1.514   2.171  0.1382 -0.5195 -0.0167
10187TIP3    H151976   3.936   1.570   2.246  0.2678 -1.9659  1.0641
10187TIP3    H251977   3.821   1.526   2.158  0.2279  0.2077 -0.0236
10188TIP3   OH251978   1.958   3.405  15.630  0.0757 -0.2986  0.3036
10188TIP3    H151979   1.986   3.315  15.645 -1.8385 -0.7244  1.6736
10188TIP3    H251980   1.884   3.398  15.571  0.7503  0.5147 -0.6673
10189TIP3   OH251981   0.098   0.170   3.277  0.9025 -0.2164  0.4968
10189TIP3    H151982   0.076   0.088   3.320 -3.5063  0.4163 -0.1678
10189TIP3    H251983   0.134   0.144   3.192  1.2769 -1.3920  0.9936
10190TIP3   OH251984   3.946   3.501  12.407  0.3796 -0.4243  0.4375
10190TIP3    H151985   3.925   3.452  12.486  3.7753  0.4570  2.1112
10190TIP3    H251986   3.867   3.496  12.353 -1.0834 -3.5714  2.5580
10191TIP3   OH251987   0.388   2.640   0.833 -0.0112  0.2835  0.2127
10191TIP3    H151988   0.339   2.561   0.857 -0.2117  0.2668 -0.2377
10191TIP3    H251989   0.330   2.712   0.855 -0.6274  0.2364 -1.1445
10192TIP3   OH251990   3.437   1.843  16.517  0.0155 -0.0108 -0.2973
10192TIP3    H151991   3.464   1.884  16.435  0.4960  0.5598  0.1369
10192TIP3    H251992   3.388   1.911  16.563 -0.5570 -0.4397 -0.2551
10193TIP3   OH251993   5.480   1.972   1.867 -0.4824  0.1273 -0.3629
10193TIP3    H151994   5.468   1.880   1.844 -0.2899  0.3940 -1.5772
10193TIP3    H251995   5.509   2.014   1.786  0.0651  1.1409  0.3310
10194TIP3   OH251996   1.680   4.195   4.168 -0.3549  0.0344  0.2632
10194TIP3    H151997   1.629   4.160   4.240  0.8946  1.0122  1.6784
10194TIP3    H251998   1.758   4.232   4.209  0.7781 -0.0625 -1.6638
10195TIP3   OH251999   5.295   2.738  14.145 -0.2980  0.4376  0.5204
10195TIP3    H152000   5.300   2.832  14.125  1.6651  0.0103 -1.5260
10195TIP3    H252001   5.370   2.722  14.202 -0.1970  0.0133  0.2723
10196TIP3   OH252002   4.966   1.451   2.224 -0.2175 -0.2574  0.1726
10196TIP3    H152003   4.894   1.490   2.273  0.2074 -0.3607  0.8872
10196TIP3    H252004   4.981   1.366   2.267  0.8929  0.1357  0.5736
10197TIP3   OH252005   4.397   4.557   5.037 -0.2809 -0.0497 -0.1500
10197TIP3    H152006   4.313   4.529   5.002 -0.7501  1.8806 -0.7014
10197TIP3    H252007   4.383   4.562   5.132 -0.5697 -0.3823 -0.1741
10198TIP3   OH252008   4.694   4.472  11.436  0.1065  0.3113  0.0024
10198TIP3    H152009   4.737   4.441  11.516  0.1897 -0.6290 -0.3978
10198TIP3    H252010   4.760   4.525  11.392  0.4515 -0.1135  0.0014
10199TIP3   OH252011   5.437   4.773  16.814  0.0634 -0.5278 -0.8521
10199TIP3    H152012   5.426   4.702  16.751  0.7201  0.0344 -1.6261
10199TIP3    H252013   5.530   4.796  16.809  0.3810 -1.2124  1.1562
10200TIP3   OH252014   6.183   4.672  14.978  0.1048 -0.1159 -0.2720
10200TIP3    H152015   6.245   4.601  14.965 -2.1452 -2.5920  1.3477
10200TIP3    H252016   6.126   4.669  14.901 -0.6311 -0.8665  0.2741
10201TIP3   OH252017   5.176   1.449   2.500  0.1009 -0.4672 -0.4806
10201TIP3    H152018   5.120   1.396   2.557  0.4370 -1.0969 -0.7185
10201TIP3    H252019   5.161   1.539   2.528 -0.5803 -0.6767 -0.1476
10202TIP3   OH252020   2.630   5.375   2.303 -0.3970  0.1080 -0.4528
10202TIP3    H152021   2.589   5.436   2.364  0.2916 -0.9920  1.1816
10202TIP3    H252022   2.572   5.375   2.226 -0.8757  2.1125 -0.1590
10203TIP3   OH252023   6.737   0.400  11.956  0.1869 -0.0616 -0.2559
10203TIP3    H152024   6.677   0.373  12.025 -0.9338  3.9629  0.6260
10203TIP3    H252025   6.707   0.352  11.878 -3.3059  0.6342  0.4881
10204TIP3   OH252026   1.185   5.646  14.832 -0.5999  0.4169  0.9976
10204TIP3    H152027   1.198   5.571  14.890  1.4990 -0.0323  0.0559
10204TIP3    H252028   1.113   5.621  14.774 -0.7591 -0.3414  1.5154
10205TIP3   OH252029   5.831   1.404   5.408 -0.2251 -0.4851 -0.3907
10205TIP3    H152030   5.743   1.429   5.435 -1.0224 -2.5588 -0.8773
10205TIP3    H252031   5.889   1.462   5.457 -1.8163  0.1374  0.8319
10206TIP3   OH252032   6.483   5.164   3.553 -0.0496 -0.0264 -0.0218
10206TIP3    H152033   6.448   5.080   3.524  0.6144 -0.8888  1.5400
10206TIP3    H252034   6.468   5.224   3.479  0.4485 -1.7794 -1.6086
10207TIP3   OH252035   1.174   5.277   1.121 -0.0507 -0.4360 -0.2836
10207TIP3    H152036   1.269   5.280   1.107 -0.0675 -0.8549 -0.5078
10207TIP3    H252037   1.158   5.343   1.189  0.2218  0.6320 -1.2233
10208TIP3   OH252038   1.958   3.677   3.296  0.2258  0.0812 -0.5689
10208TIP3    H152039   1.891   3.609   3.306 -0.2936  0.8839  2.8297
10208TIP3    H252040   2.039   3.628   3.281 -0.6661 -1.0675 -1.8471
10209TIP3   OH252041   6.488   3.606  16.948 -0.3942  0.4505  0.5062
10209TIP3    H152042   6.579   3.608  16.919 -0.4274 -1.3427  0.2085
10209TIP3    H252043   6.444   3.674  16.896  0.3583 -0.0391 -0.7830
10210TIP3   OH252044   2.909   1.880   0.091 -0.0031 -0.2472 -0.3091
10210TIP3    H152045   2.980   1.818   0.071  2.2798  2.4915 -1.4582
10210TIP3    H252046   2.862   1.890   0.008  0.4546  0.4710 -0.4914
10211TIP3   OH252047   3.345   6.297   0.239 -0.4325  1.1003 -0.3561
10211TIP3    H152048   3.427   6.345   0.227 -0.7146  1.4224 -1.0429
10211TIP3    H252049   3.327   6.259   0.152 -0.3133 -0.0919  0.1234
10212TIP3   OH252050   6.230   4.664  12.540 -0.1151  0.3053  0.0049
10212TIP3    H152051   6.179   4.697  12.466  1.6027  0.5997 -1.1215
10212TIP3    H252052   6.198   4.574  12.553 -1.8068  0.9171  0.2314
10213TIP3   OH252053   6.377   3.711   5.006  0.0011 -0.2517  0.1809
10213TIP3    H152054   6.364   3.765   4.929 -0.3431  0.6095  0.8194
10213TIP3    H252055   6.356   3.769   5.080  2.2310 -0.4202  1.0340
10214TIP3   OH252056   1.827   1.884  13.039  0.3691  0.3340  0.4520
10214TIP3    H152057   1.732   1.898  13.040  0.5687  1.8430  0.1308
10214TIP3    H252058   1.853   1.907  12.950  1.0593  0.0242  0.5723
10215TIP3   OH252059   3.007   1.021   2.612  0.3143 -0.1474  0.4692
10215TIP3    H152060   2.932   1.079   2.600 -0.6211 -1.2457  0.9016
10215TIP3    H252061   3.004   0.996   2.704 -0.6170 -2.6047 -0.1464
10216TIP3   OH252062   2.046   3.348  12.466  0.0581  0.1803 -0.0756
10216TIP3    H152063   2.016   3.407  12.396 -2.2001  2.6981  2.7201
10216TIP3    H252064   2.137   3.373  12.481 -0.8853  3.4040  1.1892
10217TIP3   OH252065   6.261   5.602   0.408 -0.2451 -0.6118 -0.1579
10217TIP3    H152066   6.172   5.611   0.374 -0.0358  1.5928 -0.2448
10217TIP3    H252067   6.318   5.633   0.338  0.2930  2.4304  1.4550
10218TIP3   OH252068   2.129   1.854   3.540  0.4059  0.4208 -0.1186
10218TIP3    H152069   2.143   1.806   3.459 -1.5283 -0.9460  0.2788
10218TIP3    H252070   2.216   1.882   3.568  1.0975  1.2167 -2.7967
10219TIP3   OH252071   0.497   5.964  14.186  0.3459  0.8532  0.1047
10219TIP3    H152072   0.484   6.046  14.137 -1.5815  1.1118  0.9344
10219TIP3    H252073   0.408   5.935  14.206  1.0503 -0.3097  1.6984
10220TIP3   OH252074   5.107   1.958   3.336  0.1779 -0.1292  0.3544
10220TIP3    H152075   5.068   1.977   3.251  2.1446  0.9149 -0.3814
10220TIP3    H252076   5.056   1.884   3.370 -1.6448  0.4302 -1.0031
10221TIP3   OH252077   3.982   0.038  14.746 -0.4318  0.1246  0.2625
10221TIP3    H152078   3.968   0.133  14.752 -0.3052  0.1036  0.9778
10221TIP3    H252079   4.006   0.023  14.655  1.8871  1.1189  0.6144
10222TIP3   OH252080   4.320   5.257   2.791 -0.1885 -0.0540  0.3139
10222TIP3    H152081   4.238   5.236   2.835 -0.4027 -1.2726 -0.6160
10222TIP3    H252082   4.301   5.245   2.698  1.8206 -3.5578  0.1929
10223TIP3   OH252083   4.155   6.275  16.749 -0.4323  0.1876  0.4104
10223TIP3    H152084   4.168   6.214  16.821  0.8285  2.4691  2.2641
10223TIP3    H252085   4.243   6.295  16.718 -0.8614  0.5352 -0.6379
10224TIP3   OH252086   6.264   2.394   2.898  0.0570  0.4049 -0.5127
10224TIP3    H152087   6.276   2.386   2.993  2.1741  2.9599 -0.4531
10224TIP3    H252088   6.270   2.305   2.866  2.2968 -0.2857  1.5087
10225TIP3   OH252089   5.575   1.303  14.468  0.0103  0.7417 -0.0320
10225TIP3    H152090   5.485   1.273  14.455  0.3799 -0.4934  0.1016
10225TIP3    H252091   5.585   1.307  14.563  0.7132 -1.1946  0.0170
10226TIP3   OH252092   0.100   1.003  11.151  0.8657  0.0115 -0.0183
10226TIP3    H152093   0.169   0.997  11.217  1.2132 -3.1801 -0.5229
10226TIP3    H252094   0.147   1.023  11.070  1.0921 -0.9147 -0.1316
10227TIP3   OH252095   3.106   1.015   4.938  0.7404  0.1065 -0.0854
10227TIP3    H152096   3.098   0.920   4.943  1.6171  0.0480  0.4102
10227TIP3    H252097   3.021   1.047   4.970  0.9600 -0.5024  1.1884
10228TIP3   OH252098   0.612   2.807   6.346 -0.9181 -0.0144 -0.2502
10228TIP3    H152099   0.694   2.822   6.393 -1.8855  0.0340  1.5124
10228TIP3    H252100   0.577   2.726   6.384 -1.1946 -0.6075 -1.7119
10229TIP3   OH252101   0.980   2.891   0.562  0.5504 -0.1837 -0.1607
10229TIP3    H152102   1.026   2.856   0.638 -0.9620 -1.0225  0.3943
10229TIP3    H252103   0.993   2.824   0.494 -2.4799 -2.1005  0.9472
10230TIP3   OH252104   4.940   6.703  13.158  0.1958  0.1706 -0.3379
10230TIP3    H152105   5.006   6.635  13.149  0.3214  0.3039 -0.4212
10230TIP3    H252106   4.856   6.656  13.153  0.2792  0.0675 -0.7537
10231TIP3   OH252107   6.244   6.052   5.626 -0.3076 -0.1548 -0.3392
10231TIP3    H152108   6.178   6.117   5.601 -0.0226  0.5454  0.6979
10231TIP3    H252109   6.296   6.095   5.694 -0.8400 -1.8716  1.2121
10232TIP3   OH252110   3.097   3.815  11.624  0.6021  0.1193 -0.6738
10232TIP3    H152111   3.178   3.819  11.675  1.0858 -1.4238 -1.2668
10232TIP3    H252112   3.119   3.857  11.541  0.3217  1.0601 -0.2921
10233TIP3   OH252113   0.340   4.114  14.684 -0.0914 -0.7060  0.1634
10233TIP3    H152114   0.272   4.083  14.743  0.3862  0.4633  1.3920
10233TIP3    H252115   0.413   4.140  14.741  0.3781  0.5083 -0.9054
10234TIP3   OH252116   5.415   1.163  11.833 -0.4008  0.4938 -0.3477
10234TIP3    H152117   5.448   1.204  11.913 -1.6994  1.3523 -0.2282
10234TIP3    H252118   5.488   1.109  11.802  0.3857  0.7466  0.9917
10235TIP3   OH252119   1.414   1.691   1.899 -0.2115  0.8375 -0.3313
10235TIP3    H152120   1.501   1.702   1.861 -0.3722  1.5300 -0.4983
10235TIP3    H252121   1.411   1.754   1.971 -0.9447  1.5524 -0.9749
10236TIP3   OH252122   6.639   0.212  13.008  0.3260 -0.1091 -0.0543
10236TIP3    H152123   6.623   0.243  12.919 -0.8174 -1.4392 -0.3395
10236TIP3    H252124   6.624   0.289  13.063 -1.0085  0.2296 -0.8444
10237TIP3   OH252125   5.145   4.787  13.137 -0.1431  0.4106  0.3458
10237TIP3    H152126   5.116   4.876  13.117  0.1979  0.5755  0.5832
10237TIP3    H252127   5.125   4.737  13.057 -0.3674  0.6887  0.2257
10238TIP3   OH252128   5.928   6.220  14.283 -0.1900  0.5272  0.0634
10238TIP3    H152129   6.017   6.219  14.250 -0.1032  0.2519  0.3064
10238TIP3    H252130   5.935   6.255  14.372 -0.2168 -0.2382  0.3788
10239TIP3   OH252131   1.821   1.420   2.994  0.1320 -0.2519 -0.2654
10239TIP3    H152132   1.876   1.454   3.065 -2.6067  0.1938  1.8467
10239TIP3    H252133   1.741   1.392   3.038 -2.2194  1.1183 -3.2864
10240TIP3   OH252134   5.147   3.646   2.253  0.5004  0.4614  0.3236
10240TIP3    H152135   5.206   3.636   2.328  1.8818 -0.2671 -0.8176
10240TIP3    H252136   5.132   3.741   2.247 -0.5346  0.4571  2.1590
10241TIP3   OH252137   5.630   3.559   1.644  0.4736 -0.2617 -0.1537
10241TIP3    H152138   5.632   3.475   1.599  3.1445 -0.2740 -0.1475
10241TIP3    H252139   5.696   3.551   1.713  2.6863  2.6106 -1.7255
10242TIP3   OH252140   2.611   2.410   0.227  0.6335  0.7102 -0.5075
10242TIP3    H152141   2.540   2.469   0.200 -0.4879  0.4010  1.5218
10242TIP3    H252142   2.593   2.328   0.183  0.8766  1.1951 -1.5377
10243TIP3   OH252143   3.865   6.404  12.035  0.5405 -0.1571  0.8124
10243TIP3    H152144   3.833   6.451  11.957  2.8311  0.9080  0.4352
10243TIP3    H252145   3.804   6.429  12.104 -0.3703  0.5113 -0.1918
10244TIP3   OH252146   3.869   5.929  17.150  0.1270 -0.3913  0.3863
10244TIP3    H152147   3.950   5.930  17.202  0.2306 -0.4378  0.2263
10244TIP3    H252148   3.802   5.959  17.211  0.5259  1.2053  0.0797
10245TIP3   OH252149   0.679   6.374   3.102 -0.2700  0.4409 -0.4334
10245TIP3    H152150   0.741   6.326   3.157  0.0562 -0.1061 -1.2609
10245TIP3    H252151   0.601   6.383   3.156  0.7722  1.8301  0.9306
10246TIP3   OH252152   3.793   1.197   3.592  0.0275  0.1211 -0.6880
10246TIP3    H152153   3.772   1.213   3.684 -0.3524 -0.7445 -0.6169
10246TIP3    H252154   3.813   1.103   3.588  0.4931  0.2441 -1.4067
10247TIP3   OH252155   0.374   1.508  13.913 -0.0740 -0.0304  0.1766
10247TIP3    H152156   0.335   1.420  13.917  0.8370 -0.4921 -0.7214
10247TIP3    H252157   0.463   1.496  13.946  0.8588  0.0444 -2.1223
10248TIP3   OH252158   6.363   6.764   1.435  0.3498  0.4057 -0.0005
10248TIP3    H152159   6.383   6.793   1.346 -0.2892  1.3059  0.1411
10248TIP3    H252160   6.414   6.822   1.492 -0.7419  1.1158  0.2769
10249TIP3   OH252161   2.050   2.469  11.278  0.3065  0.1438  0.3393
10249TIP3    H152162   2.130   2.479  11.330  0.5260  0.9643 -0.1315
10249TIP3    H252163   2.053   2.379  11.247 -0.1636 -0.5846  2.2644
10250TIP3   OH252164   3.419   4.644  10.502  0.1967 -0.6236  0.0549
10250TIP3    H152165   3.384   4.728  10.533  0.7077 -0.6193  0.6550
10250TIP3    H252166   3.514   4.652  10.515  0.2761 -1.1795 -0.1726
10251TIP3   OH252167   4.583   0.059   3.978  0.6130  0.2546  0.7179
10251TIP3    H152168   4.567   0.126   4.044  0.1325 -0.1135  0.9808
10251TIP3    H252169   4.577   0.106   3.895 -2.4468  0.1195  0.7320
10252TIP3   OH252170   4.375   1.180   2.978 -0.2406  0.1667 -0.9310
10252TIP3    H152171   4.343   1.263   3.012  0.5808  0.3820 -0.6557
10252TIP3    H252172   4.375   1.191   2.883  0.5589  0.7590 -0.8741
10253TIP3   OH252173   5.648   6.645   3.694 -0.2117 -0.2725  0.0527
10253TIP3    H152174   5.689   6.572   3.740  2.4825  0.6513 -0.7070
10253TIP3    H252175   5.554   6.626   3.698  0.2998 -3.1205  0.9406
10254TIP3   OH252176   5.532   3.363  13.903 -0.4339  0.3944  0.2199
10254TIP3    H152177   5.576   3.279  13.899 -0.7295  0.2372  0.2416
10254TIP3    H252178   5.439   3.341  13.915 -0.3487  0.7308  1.8056
10255TIP3   OH252179   3.104   5.013  11.884  0.1300 -1.0433  0.7067
10255TIP3    H152180   3.161   4.970  11.821 -0.4544  0.5489 -0.9907
10255TIP3    H252181   3.130   5.105  11.881 -0.5767 -0.7673  2.0915
10256TIP3   OH252182   5.155   1.813  14.472 -0.0335 -0.0838  0.0889
10256TIP3    H152183   5.167   1.905  14.495 -0.7816  0.0081  0.1307
10256TIP3    H252184   5.061   1.804  14.460  0.1200 -0.6661 -0.6898
10257TIP3   OH252185   1.917   5.743  12.705  0.6866  0.5938  0.0120
10257TIP3    H152186   1.841   5.751  12.647  0.2947  2.2742  0.6962
10257TIP3    H252187   1.968   5.823  12.689  1.2882  0.4232  0.9877
10258TIP3   OH252188   2.716   2.342  16.042  0.1128  0.3571 -0.1931
10258TIP3    H152189   2.659   2.264  16.042  0.8472 -0.1989  0.4969
10258TIP3    H252190   2.674   2.402  15.981 -1.0991 -0.1232  0.1317
10259TIP3   OH252191   5.135   3.241   2.081  0.6223  0.1456 -0.1732
10259TIP3    H152192   5.131   3.148   2.058  0.7539  0.2228 -0.5244
10259TIP3    H252193   5.054   3.277   2.045  0.4673  0.1253  0.1572
10260TIP3   OH252194   2.739   4.943  12.644  0.1457 -0.4950  0.0591
10260TIP3    H152195   2.819   4.890  12.635  0.8271  0.3326  0.9679
10260TIP3    H252196   2.694   4.905  12.719  0.7802  0.3535  0.8942
10261TIP3   OH252197   6.313   0.251  17.088  0.2686  0.0356 -0.6842
10261TIP3    H152198   6.293   0.223  17.177 -3.4510 -0.2655 -1.4796
10261TIP3    H252199   6.391   0.199  17.064  0.8452 -0.5141  2.0181
10262TIP3   OH252200   6.415   2.756  13.717 -0.0370 -0.6478 -0.0867
10262TIP3    H152201   6.400   2.842  13.678 -1.7481 -1.7042 -1.9369
10262TIP3    H252202   6.428   2.774  13.810 -0.8405  1.5546 -0.3383
10263TIP3   OH252203   5.215   6.245  16.668 -0.1778 -0.0818 -0.0973
10263TIP3    H152204   5.293   6.229  16.721  1.2514 -0.0165 -2.0596
10263TIP3    H252205   5.237   6.322  16.616 -1.6411  0.0642 -0.5493
10264TIP3   OH252206   3.252   3.957  12.897  0.2618 -0.0556  0.4051
10264TIP3    H152207   3.261   3.978  12.804  3.1184  0.1970  0.6343
10264TIP3    H252208   3.281   3.866  12.903  0.7453  0.1390  1.1039
10265TIP3   OH252209   0.206   2.156   3.158 -0.2481  0.5610  0.0555
10265TIP3    H152210   0.277   2.218   3.141 -1.5922  1.5032 -2.6427
10265TIP3    H252211   0.135   2.211   3.191 -0.1665 -0.2048  1.5851
10266TIP3   OH252212   1.253   3.811   4.807  0.3971  0.9054  0.2564
10266TIP3    H152213   1.199   3.849   4.738 -1.0423  0.2559  0.9919
10266TIP3    H252214   1.343   3.820   4.775 -0.1622  1.6635 -1.1632
10267TIP3   OH252215   3.083   6.400  15.940  0.1967  0.6424 -0.0519
10267TIP3    H152216   3.088   6.361  16.028  1.0531 -0.2939 -0.4950
10267TIP3    H252217   3.157   6.461  15.937  0.1568  0.6870 -0.1273
10268TIP3   OH252218   2.996   2.785  11.696  0.4729 -0.3248 -0.3082
10268TIP3    H152219   3.084   2.749  11.691  0.9521  0.4932  1.3099
10268TIP3    H252220   2.982   2.827  11.611  1.4098 -0.9321 -0.7814
10269TIP3   OH252221   3.014   3.547  17.042  0.6080  0.2557 -0.4437
10269TIP3    H152222   2.942   3.486  17.025  0.9423 -0.3537  0.2745
10269TIP3    H252223   3.030   3.590  16.958 -1.9317  1.9069 -0.1775
10270TIP3   OH252224   4.746   0.537  15.098  0.5884 -0.3764  0.2445
10270TIP3    H152225   4.798   0.544  15.178  0.8004  0.3859  0.0535
10270TIP3    H252226   4.695   0.457  15.110  0.1016  0.0877  1.4457
10271TIP3   OH252227   1.182   5.345   0.130 -0.3450 -0.4243 -0.1334
10271TIP3    H152228   1.196   5.260   0.172  3.3547  0.3053  0.4830
10271TIP3    H252229   1.111   5.384   0.181 -1.2251 -2.5765  0.4304
10272TIP3   OH252230   2.885   5.907   5.905  0.2183 -0.3272 -0.2219
10272TIP3    H152231   2.893   5.943   5.817  1.7306 -0.0562 -0.0076
10272TIP3    H252232   2.828   5.969   5.951  0.8643  0.5201 -0.5285
10273TIP3   OH252233   5.176   6.076  13.031 -0.9408 -0.2106  0.2099
10273TIP3    H152234   5.092   6.100  12.993 -0.8536  0.1969  0.2699
10273TIP3    H252235   5.234   6.063  12.956 -0.5005  1.5629  0.1947
10274TIP3   OH252236   3.958   0.301   1.532 -0.0615 -0.0014 -0.8753
10274TIP3    H152237   3.942   0.389   1.566  0.5709  0.3230 -1.3866
10274TIP3    H252238   4.042   0.276   1.570 -0.6982 -0.7910  0.0434
10275TIP3   OH252239   5.418   2.811   5.650 -0.2111 -0.0542 -0.0812
10275TIP3    H152240   5.402   2.860   5.731 -1.3049  0.7776 -0.7748
10275TIP3    H252241   5.417   2.719   5.677 -2.3667  0.1205  0.5939
10276TIP3   OH252242   3.589   0.771   3.818 -0.1393  0.5946 -0.5682
10276TIP3    H152243   3.631   0.690   3.846 -0.8866 -0.0121 -1.1400
10276TIP3    H252244   3.495   0.750   3.819 -0.5264  2.1279  1.4246
10277TIP3   OH252245   3.310   1.251   4.557 -0.1026 -0.4643 -0.5874
10277TIP3    H152246   3.216   1.249   4.538 -0.5012 -0.1138  1.1663
10277TIP3    H252247   3.317   1.304   4.636  1.4375 -1.5370  0.0326
10278TIP3   OH252248   1.810   4.593  12.317  0.2224 -0.0310 -0.1995
10278TIP3    H152249   1.903   4.610  12.336  0.1387 -0.5415  0.7441
10278TIP3    H252250   1.785   4.662  12.255  0.7410  1.2499  0.9648
10279TIP3   OH252251   0.800   1.872  16.826  0.0574  0.1733 -0.3670
10279TIP3    H152252   0.778   1.787  16.788  0.1532  0.2610 -0.6211
10279TIP3    H252253   0.844   1.919  16.755 -0.0748  0.4681 -0.2559
10280TIP3   OH252254   5.358   5.303  16.306 -0.4951 -0.4733 -0.4182
10280TIP3    H152255   5.294   5.240  16.270  1.2932 -1.4483 -2.0547
10280TIP3    H252256   5.435   5.292  16.251  1.5965 -0.2956  2.3101
10281TIP3   OH252257   1.981   4.784  12.090  0.1903 -0.1006 -0.0277
10281TIP3    H152258   1.922   4.720  12.052 -0.5750  0.5659  0.0013
10281TIP3    H252259   2.062   4.736  12.108 -0.7280 -1.3302  1.0129
10282TIP3   OH252260   4.064   2.097  12.449  0.3032 -0.3037 -0.3738
10282TIP3    H152261   4.093   2.182  12.416  0.3396  1.2975  3.3376
10282TIP3    H252262   3.969   2.098  12.437  0.2788  0.3921 -0.1511
10283TIP3   OH252263   3.903   0.250   2.757 -0.1744  0.6011  0.1116
10283TIP3    H152264   3.813   0.234   2.728 -0.2595  0.2316  0.5748
10283TIP3    H252265   3.901   0.237   2.852  0.9616 -2.3323 -0.1552
10284TIP3   OH252266   4.158   6.008  16.924 -0.3672 -0.6660 -0.1467
10284TIP3    H152267   4.251   5.984  16.920 -0.1794 -0.9878  3.2152
10284TIP3    H252268   4.154   6.076  16.992 -2.5937 -0.7596 -0.1294
10285TIP3   OH252269   3.474   6.310  12.000 -0.5158 -0.3306  0.3520
10285TIP3    H152270   3.549   6.284  11.945  0.0813  1.0651  0.4777
10285TIP3    H252271   3.494   6.273  12.086  0.3575  0.5772  0.5492
10286TIP3   OH252272   0.358   6.760   5.635 -0.1114  0.0883  0.1527
10286TIP3    H152273   0.289   6.788   5.575 -0.1894 -0.1897  0.1072
10286TIP3    H252274   0.358   6.825   5.705 -1.1793 -0.5048  0.7317
10287TIP3   OH252275   0.616   0.001   4.605 -0.4793  0.3322  0.4972
10287TIP3    H152276   0.577  -0.067   4.549  0.1769  0.7400 -0.4765
10287TIP3    H252277   0.653  -0.048   4.679  0.9176 -0.5347 -0.7073
10288TIP3   OH252278   6.119   5.440   5.097 -0.4900 -0.2434 -0.4455
10288TIP3    H152279   6.190   5.447   5.161 -1.0589 -0.2348  0.1917
10288TIP3    H252280   6.131   5.515   5.039  0.8456 -0.9940 -1.2047
10289TIP3   OH252281   4.240   5.071  16.302 -0.2775  0.5782  0.5366
10289TIP3    H152282   4.240   4.977  16.288 -1.5706  0.5261  0.7397
10289TIP3    H252283   4.173   5.086  16.369 -0.8120  1.7295 -0.2169
10290TIP3   OH252284   6.302   0.176   2.782 -0.3440  0.1077  0.0363
10290TIP3    H152285   6.371   0.112   2.768 -0.3416 -0.1613  1.2101
10290TIP3    H252286   6.291   0.180   2.877 -1.3970  0.7253 -0.0919
10291TIP3   OH252287   0.965   2.157   5.558  0.5151  0.0121 -0.2143
10291TIP3    H152288   0.959   2.082   5.498  3.3424 -1.8997  1.6341
10291TIP3    H252289   0.997   2.229   5.503  1.1388 -1.1284 -1.4045
10292TIP3   OH252290   6.696   4.509  13.913 -0.2230 -0.1539 -0.1365
10292TIP3    H152291   6.718   4.597  13.944 -0.9889 -0.3307  0.9608
10292TIP3    H252292   6.780   4.470  13.891  0.1483  0.7595 -0.3971
10293TIP3   OH252293   4.658   4.752  11.846  0.4956  0.1885  0.4074
10293TIP3    H152294   4.703   4.799  11.776 -2.5120  0.4108 -1.5881
10293TIP3    H252295   4.656   4.814  11.919  2.0968  0.6709  0.0769
10294TIP3   OH252296   5.434   5.648   2.716 -0.2513  0.4736 -0.0900
10294TIP3    H152297   5.498   5.633   2.785  0.3478  2.1474 -0.2410
10294TIP3    H252298   5.357   5.684   2.762 -0.7910 -0.7459 -0.0116
10295TIP3   OH252299   0.148   5.388   0.609 -0.2151 -0.6543  0.3455
10295TIP3    H152300   0.134   5.315   0.670 -0.5991 -0.5191  0.4190
10295TIP3    H252301   0.139   5.350   0.522 -0.2374 -0.7300  0.3812
10296TIP3   OH252302   0.258   6.191   3.010  0.4060 -0.1079  0.1595
10296TIP3    H152303   0.230   6.276   3.043  0.1332 -0.0130 -0.3025
10296TIP3    H252304   0.321   6.159   3.075  1.1674  0.8283 -0.0899
10297TIP3   OH252305   0.701   6.770   0.769  0.3136 -0.0995  0.4490
10297TIP3    H152306   0.677   6.774   0.677  0.8059  0.5707  0.3430
10297TIP3    H252307   0.636   6.825   0.813  1.0962  1.0247  0.2657
10298TIP3   OH252308   6.540   3.583   0.580 -0.1168  0.1050 -0.0645
10298TIP3    H152309   6.547   3.663   0.631 -0.7390  1.1333 -1.5439
10298TIP3    H252310   6.585   3.517   0.633  0.3449  1.3965  1.2097
10299TIP3   OH252311   1.859   5.268   4.227  0.3608  0.3083 -0.1632
10299TIP3    H152312   1.845   5.220   4.145  1.1636 -0.5019  0.1504
10299TIP3    H252313   1.942   5.235   4.260  0.5775  1.4100  0.4466
10300TIP3   OH252314   4.670   6.020  13.342  0.1171 -0.2855 -0.1937
10300TIP3    H152315   4.706   6.107  13.326  0.0443 -0.5963 -2.2679
10300TIP3    H252316   4.625   5.997  13.261 -0.5927 -1.9129  0.6188
10301TIP3   OH252317   3.293   0.129   3.080  0.3359  0.0985  0.6679
10301TIP3    H152318   3.247   0.050   3.105  1.6333 -1.3318 -1.1553
10301TIP3    H252319   3.376   0.125   3.127  1.4180 -0.9480 -1.1956
10302TIP3   OH252320   1.297   3.185   1.248 -0.1637  0.5418 -0.5683
10302TIP3    H152321   1.209   3.165   1.282 -0.0627  1.2966  0.1761
10302TIP3    H252322   1.304   3.132   1.169 -1.2717  0.4263 -0.6152
10303TIP3   OH252323   4.955   2.243  13.134 -0.8233 -0.6469  0.5899
10303TIP3    H152324   5.020   2.189  13.179  0.5304  0.1224 -0.3466
10303TIP3    H252325   4.928   2.189  13.059 -0.7775 -0.7227  0.6275
10304TIP3   OH252326   3.045   1.693   1.879  0.0557  0.6615  0.2852
10304TIP3    H152327   3.097   1.614   1.892 -1.0759 -0.2356 -0.3788
10304TIP3    H252328   3.106   1.765   1.892  1.0367 -0.3151  1.2418
10305TIP3   OH252329   6.633   6.603  12.507  0.5701 -0.6407 -0.5041
10305TIP3    H152330   6.622   6.560  12.591 -3.2961  2.2065  0.7494
10305TIP3    H252331   6.722   6.637  12.509  1.0340 -1.8002  1.8385
10306TIP3   OH252332   0.346   2.736   2.842 -0.1318  0.4322 -0.3763
10306TIP3    H152333   0.301   2.664   2.798  0.4999 -0.3838  0.2666
10306TIP3    H252334   0.285   2.809   2.838 -0.5789  0.0238 -1.5104
10307TIP3   OH252335   6.223   4.638  10.259  0.1176 -0.0222 -0.2728
10307TIP3    H152336   6.165   4.562  10.270  0.7874 -0.5118 -0.1210
10307TIP3    H252337   6.293   4.625  10.322  0.6428  0.3331 -0.7686
10308TIP3   OH252338   2.480   3.188   1.141  0.1924  0.5877 -0.1804
10308TIP3    H152339   2.425   3.175   1.064 -0.1680 -0.2188  0.2059
10308TIP3    H252340   2.568   3.164   1.111  0.2286  1.2128 -0.6033
10309TIP3   OH252341   2.288   6.323   2.567 -0.3466  0.2499 -0.0813
10309TIP3    H152342   2.202   6.365   2.564 -0.2901  0.3983  0.3415
10309TIP3    H252343   2.341   6.376   2.507  0.0117  1.4662  1.2591
10310TIP3   OH252344   2.858   2.729  15.247  0.0009  0.1504 -0.5045
10310TIP3    H152345   2.847   2.729  15.342  1.3522 -0.5139 -0.3338
10310TIP3    H252346   2.799   2.660  15.216 -0.8677  0.7497 -0.2160
10311TIP3   OH252347   0.887   3.759  14.294 -0.5809  0.2189 -0.0517
10311TIP3    H152348   0.951   3.705  14.340 -0.7124  0.3462  0.2854
10311TIP3    H252349   0.932   3.788  14.215  0.0972  1.0402  0.6142
10312TIP3   OH252350   2.129   4.488   6.228 -0.7871 -0.0974 -0.5534
10312TIP3    H152351   2.167   4.531   6.304 -1.6694 -0.8378  0.3293
10312TIP3    H252352   2.182   4.410   6.215 -0.9809 -0.2652 -0.3446
10313TIP3   OH252353   0.030   6.507   4.203 -1.9124 -0.0061  0.4116
10313TIP3    H152354  -0.044   6.563   4.228 -1.3395  2.1703 -2.2571
10313TIP3    H252355   0.107   6.560   4.222 -1.1929 -0.9651  0.2315
10314TIP3   OH252356   5.663   6.356  16.039 -0.2549 -0.0492  0.1407
10314TIP3    H152357   5.698   6.271  16.065 -0.9544 -0.2691  0.3943
10314TIP3    H252358   5.725   6.419  16.074  0.2519 -0.4533 -0.0161
10315TIP3   OH252359   6.763   5.835   2.517 -0.0528  0.3726  0.0891
10315TIP3    H152360   6.804   5.867   2.437 -0.3125  1.4357  0.3663
10315TIP3    H252361   6.686   5.891   2.529 -0.0981  0.1351  0.9950
10316TIP3   OH252362   0.905   0.247   6.274  0.2989 -0.4390 -0.4425
10316TIP3    H152363   0.987   0.215   6.310 -0.8013 -1.3710  1.3845
10316TIP3    H252364   0.864   0.296   6.346 -1.1353 -0.7189 -1.0193
10317TIP3   OH252365   3.981   0.762  15.227  0.5863 -0.1754  0.3593
10317TIP3    H152366   3.902   0.716  15.253 -0.1894  0.8857 -0.0385
10317TIP3    H252367   4.004   0.815  15.304  0.3293  0.2642  0.1405
10318TIP3   OH252368   6.276   0.882   2.923  0.0866 -0.2211 -0.1861
10318TIP3    H152369   6.208   0.817   2.942  0.4066 -0.2411  0.9491
10318TIP3    H252370   6.228   0.964   2.911 -0.1190 -0.1126  1.2032
10319TIP3   OH252371   3.573   4.037  15.470 -0.3843  0.7279 -0.1671
10319TIP3    H152372   3.590   4.118  15.421  0.5246  1.0247  0.6117
10319TIP3    H252373   3.526   4.066  15.549 -1.1288  0.3446 -0.4574
10320TIP3   OH252374   4.249   4.305  15.955 -0.4845 -0.0293 -0.2236
10320TIP3    H152375   4.344   4.313  15.964 -0.5704  1.5174 -0.3846
10320TIP3    H252376   4.227   4.362  15.881 -1.6685  0.5340  0.5352
10321TIP3   OH252377   2.001   3.866  12.330 -0.1959  0.1104 -0.4279
10321TIP3    H152378   2.003   3.901  12.241  1.5631  0.7356 -0.1810
10321TIP3    H252379   1.960   3.934  12.383  1.5584  1.0946 -0.2636
10322TIP3   OH252380   2.770   3.536  16.010 -0.5491 -0.5349 -0.6550
10322TIP3    H152381   2.807   3.470  15.951  0.3639 -1.2918  0.6866
10322TIP3    H252382   2.706   3.487  16.062  0.4929 -0.5549  0.6974
10323TIP3   OH252383   1.010   2.710  12.342 -0.1523  0.3141 -0.5142
10323TIP3    H152384   0.985   2.800  12.324  0.1728  0.5224  0.0254
10323TIP3    H252385   1.105   2.708  12.328 -0.4675 -0.5607 -2.9300
10324TIP3   OH252386   6.522   0.957  15.881 -0.4370  0.8394 -0.5660
10324TIP3    H152387   6.443   0.971  15.829 -0.5911 -0.7709 -0.8045
10324TIP3    H252388   6.501   0.995  15.967 -1.3540  0.7180 -0.7229
10325TIP3   OH252389   0.242   4.298   0.416 -0.2220 -0.2059 -0.1467
10325TIP3    H152390   0.198   4.370   0.370 -1.6460 -0.0861  1.3018
10325TIP3    H252391   0.198   4.219   0.384 -0.2096 -0.2393 -0.0819
10326TIP3   OH252392   1.454   1.660  12.567 -0.0572 -0.0470 -0.0006
10326TIP3    H152393   1.428   1.746  12.534 -1.1646  0.3444  1.7601
10326TIP3    H252394   1.519   1.629  12.505 -1.3694  1.0107 -2.0057
10327TIP3   OH252395   3.073   0.747   4.968 -0.5150  0.7433  0.3814
10327TIP3    H152396   3.105   0.709   5.049 -0.6078 -3.0271 -1.1757
10327TIP3    H252397   3.126   0.707   4.900 -3.5344  0.0393 -1.7502
10328TIP3   OH252398   6.155   1.400  16.613  0.4914 -0.4027  0.1845
10328TIP3    H152399   6.181   1.354  16.692 -1.6860 -1.2244  0.4699
10328TIP3    H252400   6.065   1.371  16.596 -0.1956  2.0779 -0.8545
10329TIP3   OH252401   6.224   6.500   0.856 -0.3657 -0.1903  0.3318
10329TIP3    H152402   6.284   6.556   0.904 -0.2831  1.3554 -1.4665
10329TIP3    H252403   6.165   6.465   0.922  2.2395 -1.5250  2.1411
10330TIP3   OH252404   2.485   2.257  11.983  0.3254  0.1232 -0.7412
10330TIP3    H152405   2.523   2.169  11.972 -1.7881 -0.7733 -1.5878
10330TIP3    H252406   2.558   2.317  11.968  1.7455 -1.4802 -0.5541
10331TIP3   OH252407   5.813   1.181   1.520 -0.2406  0.6539 -0.1684
10331TIP3    H152408   5.820   1.269   1.483  0.5550  0.5572 -0.2807
10331TIP3    H252409   5.845   1.190   1.609 -0.9098  0.6306  0.0734
10332TIP3   OH252410   1.159   1.637   0.051  0.3569 -0.8083 -0.3084
10332TIP3    H152411   1.248   1.667   0.030  0.6008 -0.1621  1.4517
10332TIP3    H252412   1.160   1.625   0.146 -1.2372 -1.5087 -0.3540
10333TIP3   OH252413   0.983   3.917   3.116 -0.1018  0.4749 -0.5124
10333TIP3    H152414   0.974   4.009   3.140 -0.0055  1.2751 -3.2177
10333TIP3    H252415   1.025   3.876   3.192  1.5341  3.0298  0.0768
10334TIP3   OH252416   3.475   6.345  12.372  0.2053  0.0891  0.2385
10334TIP3    H152417   3.508   6.356  12.461 -2.1072 -1.5569  1.4253
10334TIP3    H252418   3.457   6.251  12.365  1.1360  0.0311 -2.3165
10335TIP3   OH252419   6.607   6.456   3.267  0.0685  0.4349  0.5324
10335TIP3    H152420   6.559   6.524   3.314 -1.9911  0.9117 -2.0192
10335TIP3    H252421   6.554   6.377   3.277 -1.5286  0.9791 -2.3586
10336TIP3   OH252422   0.388   6.376   2.363 -0.4599  0.0702 -0.8909
10336TIP3    H152423   0.303   6.407   2.330 -1.6467 -1.3274  0.6276
10336TIP3    H252424   0.373   6.283   2.383  1.8530 -0.5771 -1.8302
10337TIP3   OH252425   1.097   1.988  13.347 -0.5322 -0.0428  0.7697
10337TIP3    H152426   1.088   2.076  13.383  1.4476  2.4652 -3.9499
10337TIP3    H252427   1.008   1.962  13.324 -1.0405  1.3703  1.0407
10338TIP3   OH252428   3.613   2.026   3.023 -0.4034  0.0804 -0.3587
10338TIP3    H152429   3.557   2.103   3.026  1.8707  1.8008  2.3275
10338TIP3    H252430   3.568   1.961   3.076 -0.6676  0.8477  0.3730
10339TIP3   OH252431   4.490   6.225   1.276 -0.6070 -0.0005  0.5003
10339TIP3    H152432   4.528   6.181   1.351 -0.4492 -0.0223  0.4074
10339TIP3    H252433   4.559   6.225   1.210 -0.5907  0.4222  0.5148
10340TIP3   OH252434   0.323   1.424  14.881  0.1555 -0.1954  0.4582
10340TIP3    H152435   0.283   1.489  14.939  0.8260  0.6538 -0.0150
10340TIP3    H252436   0.387   1.379  14.936  0.7403  0.5613  0.4171
10341TIP3   OH252437   0.883   2.165   1.325 -0.0802 -0.2430 -0.4801
10341TIP3    H152438   0.830   2.210   1.259 -1.0945 -2.6669 -1.4502
10341TIP3    H252439   0.967   2.150   1.283 -0.1330 -0.2446 -0.5854
10342TIP3   OH252440   3.531   3.809   3.220  0.2741  0.6367  0.3114
10342TIP3    H152441   3.586   3.738   3.255  1.6870  1.5051 -0.0416
10342TIP3    H252442   3.542   3.804   3.125  0.3348  1.2569  0.2781
10343TIP3   OH252443   2.211   3.981  12.147 -0.8308  0.9698  0.1466
10343TIP3    H152444   2.267   4.034  12.205 -1.0329  0.0712  1.2070
10343TIP3    H252445   2.267   3.909  12.120 -1.3832  0.1806  1.0449
10344TIP3   OH252446   0.468   2.179  13.809 -0.0774  0.0666 -0.5057
10344TIP3    H152447   0.447   2.092  13.775 -1.0151  0.1167 -0.1082
10344TIP3    H252448   0.404   2.193  13.880  1.4005  0.2235  0.8437
10345TIP3   OH252449   3.224   0.410  12.235  0.2840 -0.3676  0.4034
10345TIP3    H152450   3.259   0.467  12.167  0.4421 -1.6653 -0.6426
10345TIP3    H252451   3.132   0.398  12.211 -0.5076  1.5694  2.1361
10346TIP3   OH252452   0.169   6.181  10.383  0.2341 -0.3360  0.4640
10346TIP3    H152453   0.152   6.164  10.476 -0.0906 -0.9247  0.3003
10346TIP3    H252454   0.104   6.247  10.359 -0.4047 -0.9865  0.3856
10347TIP3   OH252455   6.308   0.762   5.256 -0.3526 -0.3269  0.2852
10347TIP3    H152456   6.391   0.739   5.297 -0.6772 -1.0909  0.5201
10347TIP3    H252457   6.285   0.847   5.294 -1.0089 -1.3380  2.2598
10348TIP3   OH252458   4.565   4.573  16.243  0.1097  0.3341  0.5469
10348TIP3    H152459   4.563   4.652  16.297  2.9372  1.6135 -0.9924
10348TIP3    H252460   4.525   4.599  16.161  1.9945  0.6103 -0.3542
10349TIP3   OH252461   1.934   4.550   4.020  0.3408  0.6440 -0.2754
10349TIP3    H152462   1.964   4.476   4.072 -0.4133  0.0959 -0.5982
10349TIP3    H252463   1.861   4.587   4.070  1.5914  2.0555  0.5809
10350TIP3   OH252464   6.290   2.404  13.192 -0.4399  0.2951 -0.3526
10350TIP3    H152465   6.321   2.351  13.266  0.4924  1.4840  0.1319
10350TIP3    H252466   6.203   2.434  13.218 -0.2704  0.3996  0.0975
10351TIP3   OH252467   5.863   1.954  14.098  0.3499 -0.3872 -0.6722
10351TIP3    H152468   5.893   1.871  14.135  0.6758 -0.0735 -0.2213
10351TIP3    H252469   5.942   1.993  14.060 -0.4369 -2.0339 -4.3843
10352TIP3   OH252470   1.798   5.494  15.270 -0.3840  0.5242  0.1569
10352TIP3    H152471   1.790   5.562  15.337 -0.9267  0.3378  0.2852
10352TIP3    H252472   1.862   5.529  15.208 -0.5692  1.0950  0.2844
10353TIP3   OH252473   3.322   4.792  15.474  0.3664  0.4464 -0.1381
10353TIP3    H152474   3.305   4.843  15.554  0.3718  0.5002 -0.1712
10353TIP3    H252475   3.290   4.847  15.403  1.5004  0.9434 -0.2773
10354TIP3   OH252476   3.883   1.276  12.754  0.3271  0.4593 -0.4787
10354TIP3    H152477   3.859   1.356  12.800  2.6159  1.2666 -0.5522
10354TIP3    H252478   3.803   1.225  12.752 -1.0700  2.4834  0.0949
10355TIP3   OH252479   4.966   1.667  16.122  0.0020 -0.1723  0.1633
10355TIP3    H152480   4.874   1.647  16.103 -0.1961  0.9156 -0.0685
10355TIP3    H252481   5.000   1.586  16.161 -0.7397 -0.9704 -0.7883
10356TIP3   OH252482   1.859   1.262  12.034  0.0459  0.5504  0.7268
10356TIP3    H152483   1.954   1.267  12.027  0.1633 -0.4874  1.2859
10356TIP3    H252484   1.830   1.225  11.951  0.2276  0.0757  0.8666
10357TIP3   OH252485   2.866   1.144  15.442 -0.3995  0.3907  0.6165
10357TIP3    H152486   2.926   1.208  15.479  1.6146  0.1649 -1.9980
10357TIP3    H252487   2.820   1.108  15.518 -0.3116  3.5566  2.3380
10358TIP3   OH252488   4.377   5.277  16.600 -0.8223  0.8258  0.5235
10358TIP3    H152489   4.470   5.297  16.584 -0.2066 -2.4577 -0.7948
10358TIP3    H252490   4.373   5.259  16.693  0.2356 -0.3869  0.3693
10359TIP3   OH252491   1.258   4.492   0.025 -0.0760  0.1007 -0.0669
10359TIP3    H152492   1.313   4.548   0.080  1.4973  0.4268 -1.8570
10359TIP3    H252493   1.226   4.424   0.083  1.0328  0.7600  1.3592
10360TIP3   OH252494   6.412   0.306  12.850  0.8288  0.0166  0.1089
10360TIP3    H152495   6.353   0.370  12.890 -0.6599 -0.8716 -0.5964
10360TIP3    H252496   6.390   0.223  12.892 -0.2603 -0.8036 -1.9544
10361TIP3   OH252497   1.051   5.085   1.697  0.0647 -0.2086 -0.5088
10361TIP3    H152498   1.071   5.047   1.783 -0.9538 -0.8420 -0.5357
10361TIP3    H252499   0.977   5.143   1.713 -0.5869 -0.8631 -1.0657
10362TIP3   OH252500   6.743   2.992  15.427 -0.2549 -0.7637  0.1877
10362TIP3    H152501   6.783   3.074  15.456 -0.4660 -0.7799  0.5331
10362TIP3    H252502   6.817   2.935  15.409 -0.1028 -0.4309 -0.2579
10363TIP3   OH252503   0.987   4.178   4.535  0.4140  0.6882 -0.5940
10363TIP3    H152504   1.065   4.143   4.577 -1.0656  1.7858  3.5012
10363TIP3    H252505   0.985   4.270   4.559 -2.1251  0.6724 -0.4630
10364TIP3   OH252506   4.512   4.912   2.398 -0.4145  0.8217 -0.0865
10364TIP3    H152507   4.570   4.984   2.422 -0.9372  0.9476  0.8420
10364TIP3    H252508   4.427   4.937   2.433 -0.2378 -1.0362  1.8237
10365TIP3   OH252509   1.902   1.430  15.253 -0.3484 -0.2057 -0.4557
10365TIP3    H152510   1.945   1.401  15.173  0.2213 -0.7951  0.0482
10365TIP3    H252511   1.819   1.467  15.224  0.8236  1.7642 -1.5683
10366TIP3   OH252512   4.924   6.031   2.647  0.2542 -0.5311 -0.1379
10366TIP3    H152513   4.920   6.121   2.615  0.9563 -0.5361 -0.2558
10366TIP3    H252514   4.942   6.039   2.741 -0.5558 -0.5376  0.0225
10367TIP3   OH252515   4.039   3.682   4.001 -0.4228 -0.1329  0.0038
10367TIP3    H152516   4.080   3.610   4.050 -2.2198 -0.8814  0.4623
10367TIP3    H252517   4.085   3.760   4.032  2.5182 -1.1179 -1.4860
10368TIP3   OH252518   5.394   6.645   5.180  0.0185 -0.1815  0.3662
10368TIP3    H152519   5.455   6.647   5.253  1.6348  1.8269 -0.9324
10368TIP3    H252520   5.331   6.715   5.199  0.3696  0.2633 -0.1029
10369TIP3   OH252521   1.798   0.460  15.163  0.5697 -0.2615  0.6113
10369TIP3    H152522   1.756   0.414  15.235 -0.3251  1.3057  1.1511
10369TIP3    H252523   1.746   0.438  15.086  2.3948 -3.1355  0.0624
10370TIP3   OH252524   4.798   1.424   5.862  0.4928  0.3415  0.4960
10370TIP3    H152525   4.744   1.441   5.939  0.8603  2.4084  0.3592
10370TIP3    H252526   4.736   1.418   5.789  0.2996  0.4866  0.6485
10371TIP3   OH252527   2.758   5.767   3.537 -0.7269  0.0972  0.3570
10371TIP3    H152528   2.802   5.684   3.520  0.4982  0.4314  1.7159
10371TIP3    H252529   2.735   5.763   3.630 -2.0986  0.6298  0.0588
10372TIP3   OH252530   0.677   1.092  14.796  0.4056 -0.5985 -0.2113
10372TIP3    H152531   0.703   1.010  14.838  2.5818  0.4522  0.6508
10372TIP3    H252532   0.671   1.071  14.703  0.5285 -1.8217  0.0406
10373TIP3   OH252533   2.025   0.013   4.234  0.2607  0.5074 -0.1330
10373TIP3    H152534   2.091   0.022   4.165  0.6845  0.3864  0.2515
10373TIP3    H252535   1.972   0.093   4.227  1.6114  1.5223  0.7600
10374TIP3   OH252536   3.776   0.023   3.642 -0.3723  0.3544 -0.0598
10374TIP3    H152537   3.863   0.062   3.649  0.6901 -2.0498  1.4685
10374TIP3    H252538   3.787  -0.052   3.584 -1.3715 -0.1291  0.3426
10375TIP3   OH252539   2.361   0.620  16.171 -0.3110  0.0152  0.3882
10375TIP3    H152540   2.398   0.532  16.170  1.3909  0.6753 -1.4713
10375TIP3    H252541   2.291   0.618  16.106  0.3508  0.2507 -0.3449
10376TIP3   OH252542   6.437   1.040   0.366  0.0918  0.2455 -0.2450
10376TIP3    H152543   6.414   1.061   0.456 -1.2132  1.4102 -0.8155
10376TIP3    H252544   6.484   1.117   0.335  1.1491 -0.4300 -0.3779
10377TIP3   OH252545   1.280   1.175  10.915 -0.5461  0.2539  0.2646
10377TIP3    H152546   1.251   1.168  11.006 -0.7252  1.2458  0.2957
10377TIP3    H252547   1.262   1.266  10.891  0.4810  0.2844 -0.4330
10378TIP3   OH252548   5.932   3.664  16.987 -0.1897  0.3333  0.1725
10378TIP3    H152549   5.993   3.738  16.980 -1.7607  1.6841 -0.0795
10378TIP3    H252550   5.969   3.597  16.930  0.9882  1.1574 -0.0713
10379TIP3   OH252551   0.851   1.042   5.078 -0.1746 -0.3180  0.2910
10379TIP3    H152552   0.788   1.109   5.101 -0.2593 -0.7870  1.4780
10379TIP3    H252553   0.861   1.051   4.983 -1.5266  0.1912  0.1665
10380TIP3   OH252554   5.953   2.821  13.296 -0.0333  0.0848  0.4040
10380TIP3    H152555   5.866   2.800  13.261 -0.0040  1.2060 -0.4061
10380TIP3    H252556   5.936   2.887  13.364  0.2400  1.0747 -0.4619
10381TIP3   OH252557   4.474   5.139  16.842  0.0821  0.5506 -0.0658
10381TIP3    H152558   4.516   5.076  16.784 -2.2854  0.6660 -2.0278
10381TIP3    H252559   4.514   5.123  16.928  2.1635 -1.0721 -1.2552
10382TIP3   OH252560   4.114   5.827  11.347  0.0336  0.0583  0.1275
10382TIP3    H152561   4.082   5.759  11.288  1.1526  0.4408 -0.9639
10382TIP3    H252562   4.136   5.900  11.289 -1.5949  1.5704  1.3021
10383TIP3   OH252563   1.646   0.106  15.964  0.5839  0.0992  0.3134
10383TIP3    H152564   1.719   0.047  15.981 -0.5498 -1.2763  0.5992
10383TIP3    H252565   1.572   0.048  15.948 -0.5985  1.4523  0.7134
10384TIP3   OH252566   2.558   4.806   0.984  0.2978 -0.2050  0.1167
10384TIP3    H152567   2.549   4.893   1.023  1.9797  1.9566 -3.6957
10384TIP3    H252568   2.490   4.803   0.917  0.1335 -1.9708  0.3318
10385TIP3   OH252569   3.071   3.361   4.069  0.4350  0.0057  0.8283
10385TIP3    H152570   3.008   3.297   4.099  0.6728 -0.6516 -0.0419
10385TIP3    H252571   3.036   3.393   3.986 -1.1085  3.0733  2.4962
10386TIP3   OH252572   1.052   5.314  11.966  0.0866  0.0321 -0.0179
10386TIP3    H152573   1.055   5.400  11.923  0.3038 -0.1962 -0.4615
10386TIP3    H252574   0.967   5.278  11.942  0.5312 -0.4300 -0.9099
10387TIP3   OH252575   4.583   3.317  16.992 -0.3029 -0.4324  0.2392
10387TIP3    H152576   4.663   3.272  17.017 -0.3499 -1.2230 -0.9682
10387TIP3    H252577   4.567   3.379  17.063  1.6904  0.1599  0.2374
10388TIP3   OH252578   0.914   2.882  15.444 -0.3295  0.2814  0.3176
10388TIP3    H152579   0.907   2.893  15.538  0.8612 -1.6704  0.6916
10388TIP3    H252580   0.968   2.803  15.433 -0.7583  0.2400 -1.9821
10389TIP3   OH252581   0.249   2.182   2.398 -0.4230  0.3900 -0.2286
10389TIP3    H152582   0.227   2.142   2.314 -1.2139  0.4926 -0.0728
10389TIP3    H252583   0.235   2.113   2.463  2.8264 -0.5945 -0.3974
10390TIP3   OH252584   0.550   4.378   1.472  0.1034  0.4544  0.2380
10390TIP3    H152585   0.480   4.377   1.537 -2.4336  2.9312 -2.1602
10390TIP3    H252586   0.612   4.444   1.504  0.0180  0.1262  1.1118
10391TIP3   OH252587   5.146   6.638  15.808  0.0680  0.7566  0.7280
10391TIP3    H152588   5.083   6.565  15.813 -0.2780  0.8678 -1.1362
10391TIP3    H252589   5.221   6.608  15.859 -0.1316 -0.8783  0.1566
10392TIP3   OH252590   6.234   6.699  13.711 -0.0443 -0.3590 -0.2075
10392TIP3    H152591   6.148   6.738  13.725  0.8377  1.1187  1.5120
10392TIP3    H252592   6.293   6.774  13.703  1.0817 -1.3381 -1.6039
10393TIP3   OH252593   6.204   6.102  11.385 -0.5625  0.1954  0.4209
10393TIP3    H152594   6.167   6.128  11.301 -0.1504  2.2692  0.8228
10393TIP3    H252595   6.142   6.137  11.450  0.4576  0.9211  1.0287
10394TIP3   OH252596   0.224   3.720  11.887  0.0243 -0.1223  0.2509
10394TIP3    H152597   0.153   3.738  11.825  0.2491 -0.1479 -0.0156
10394TIP3    H252598   0.208   3.780  11.960 -0.4751 -0.3762  0.3554
10395TIP3   OH252599   1.957   5.479  12.519 -0.0128  0.2609 -0.7301
10395TIP3    H152600   1.874   5.437  12.494  0.2478 -0.6209 -0.1492
10395TIP3    H252601   1.938   5.572  12.516 -1.1722  0.0601 -0.1173
10396TIP3   OH252602   2.179   5.691   2.819  0.0068 -0.1813  0.1264
10396TIP3    H152603   2.225   5.758   2.868  0.9068 -1.2182  0.7253
10396TIP3    H252604   2.095   5.682   2.863  0.2479 -0.1020  0.6013
10397TIP3   OH252605   4.297   0.103  16.354  0.2108  0.4291 -0.2592
10397TIP3    H152606   4.214   0.150  16.342 -0.6342 -0.8831  0.2060
10397TIP3    H252607   4.357   0.144  16.291 -0.6407  1.7204 -0.2707
10398TIP3   OH252608   1.740   2.384  10.552 -0.0683 -0.5417  0.4375
10398TIP3    H152609   1.833   2.361  10.555 -0.2372 -1.1860  1.9561
10398TIP3    H252610   1.737   2.469  10.508  1.2352 -0.5031  0.3927
10399TIP3   OH252611   4.671   0.198  14.836 -0.2715  0.3705  0.2728
10399TIP3    H152612   4.626   0.151  14.907 -0.1401 -0.1514  0.0140
10399TIP3    H252613   4.658   0.290  14.857  1.0249  0.2450  1.8024
10400TIP3   OH252614   3.009   0.777  12.421  0.4528  0.5000 -0.2302
10400TIP3    H152615   2.972   0.711  12.362 -1.2648  0.5705  0.6945
10400TIP3    H252616   3.030   0.851  12.364 -1.9200  0.8816 -0.7259
10401TIP3   OH252617   3.683   4.612  10.862 -0.5150  0.3178 -0.3134
10401TIP3    H152618   3.768   4.657  10.861 -0.7869  0.8219 -0.6743
10401TIP3    H252619   3.618   4.681  10.871 -1.0356  0.1714 -2.3947
10402TIP3   OH252620   6.724   2.021  16.928  0.1169 -0.0710 -0.8595
10402TIP3    H152621   6.732   1.994  16.836  2.4026  0.8518 -1.0032
10402TIP3    H252622   6.757   1.946  16.978 -0.4864 -0.3124 -0.8147
10403TIP3   OH252623   3.110   2.376  15.278  0.5738  0.2657 -0.1851
10403TIP3    H152624   3.158   2.458  15.279  1.1509 -0.0656 -0.0711
10403TIP3    H252625   3.046   2.385  15.349  1.1031  0.3515  0.2920
10404TIP3   OH252626   2.801   0.857  13.730 -0.2035  0.2064 -0.0033
10404TIP3    H152627   2.786   0.881  13.821  1.1479  1.4382 -0.0601
10404TIP3    H252628   2.861   0.783  13.733 -0.7684 -0.2440  0.1207
10405TIP3   OH252629   4.871   2.619   5.739  0.4118 -0.0545  0.8884
10405TIP3    H152630   4.858   2.685   5.806 -0.6799  1.9068 -1.1073
10405TIP3    H252631   4.928   2.661   5.674 -1.3489 -0.4967 -1.0653
10406TIP3   OH252632   2.085   2.031   5.662  0.6079 -0.1003 -0.5276
10406TIP3    H152633   2.118   2.087   5.593  1.8773  2.5008  2.0052
10406TIP3    H252634   2.066   2.090   5.735 -0.4881 -2.6846  1.4673
10407TIP3   OH252635   3.868   3.823  12.086  0.9028 -0.4082  0.0057
10407TIP3    H152636   3.963   3.811  12.086  1.4314  2.9157  0.1304
10407TIP3    H252637   3.847   3.851  12.175 -0.0722 -0.3611 -0.2233
10408TIP3   OH252638   6.561   1.607   1.363 -0.8183 -0.2219 -0.2426
10408TIP3    H152639   6.466   1.618   1.370 -0.6172  1.3490  0.3352
10408TIP3    H252640   6.591   1.601   1.454 -0.2662  0.2487 -0.3917
10409TIP3   OH252641   0.004   2.711   1.222  0.1467  0.4859  0.5649
10409TIP3    H152642   0.026   2.796   1.261  0.2046  0.8082 -0.1444
10409TIP3    H252643  -0.061   2.674   1.281  0.9154  0.5328  1.4711
10410TIP3   OH252644   4.995   5.531   5.816 -0.4359 -0.2041 -0.1651
10410TIP3    H152645   5.021   5.439   5.818 -0.1575 -0.1703 -1.3682
10410TIP3    H252646   4.982   5.554   5.908  0.8910 -1.0548  0.2703
10411TIP3   OH252647   3.760   5.903  13.744  0.0020  0.1388 -0.0382
10411TIP3    H152648   3.755   5.827  13.685  0.1928  0.3969 -0.3939
10411TIP3    H252649   3.670   5.919  13.770  0.2105 -2.0995  2.5000
10412TIP3   OH252650   4.274   5.870  12.417 -0.6335 -0.0701 -0.4407
10412TIP3    H152651   4.284   5.922  12.337  1.4029 -1.3749 -1.1150
10412TIP3    H252652   4.201   5.811  12.398 -0.2068 -0.3291 -1.3481
10413TIP3   OH252653   3.019   1.903   2.482 -0.2088  0.0532 -0.5791
10413TIP3    H152654   3.044   1.960   2.409  1.9409  1.1447  0.8942
10413TIP3    H252655   3.087   1.835   2.482 -1.4068 -1.1845 -0.8534
10414TIP3   OH252656   5.011   3.387  13.444 -0.6159  0.7357  0.5584
10414TIP3    H152657   5.006   3.347  13.357 -0.2333  1.0938  0.3691
10414TIP3    H252658   4.921   3.391  13.474 -0.9056  1.8828 -0.4041
10415TIP3   OH252659   1.337   5.143  13.794 -0.0540  0.2266 -0.3005
10415TIP3    H152660   1.379   5.147  13.708  1.1909  0.8725  0.3059
10415TIP3    H252661   1.389   5.079  13.843 -0.2342  0.4827  0.2300
10416TIP3   OH252662   4.699   3.072  13.105 -0.0229 -0.0920  0.4066
10416TIP3    H152663   4.657   3.158  13.102  1.8689  0.8991  0.6950
10416TIP3    H252664   4.758   3.071  13.029  0.9447 -0.5714  1.1374
10417TIP3   OH252665   6.552   4.979   4.513 -0.1536 -0.0263  0.8306
10417TIP3    H152666   6.606   4.937   4.447 -2.8155 -3.0704  0.3277
10417TIP3    H252667   6.600   4.967   4.595  0.5325 -1.4793  0.2439
10418TIP3   OH252668   0.963   2.259  15.894  0.1472 -0.2897 -0.2834
10418TIP3    H152669   0.903   2.310  15.949 -0.1514 -0.6145 -0.3008
10418TIP3    H252670   0.925   2.171  15.893  1.5060 -0.9378  1.0526
10419TIP3   OH252671   3.175   1.726  13.023  0.4149  0.4657 -0.1826
10419TIP3    H152672   3.134   1.684  13.098  0.9223  1.6182  0.7822
10419TIP3    H252673   3.109   1.790  12.993  0.1871 -0.0376 -0.7700
10420TIP3   OH252674   2.325   3.877  14.091 -0.0788 -0.3830 -0.3819
10420TIP3    H152675   2.320   3.818  14.016  0.2478  1.1822 -1.6864
10420TIP3    H252676   2.235   3.892  14.117 -0.2309 -0.4478 -0.8660
10421TIP3   OH252677   6.713   2.721  12.463  0.2742 -0.0228  0.2543
10421TIP3    H152678   6.671   2.807  12.474 -0.4429 -0.3054 -0.1996
10421TIP3    H252679   6.788   2.739  12.407  0.9781  0.5472  1.3420
10422TIP3   OH252680   4.256   4.498  16.391 -0.6814 -0.2763 -0.0806
10422TIP3    H152681   4.272   4.564  16.459 -0.6059  0.8529 -1.1632
10422TIP3    H252682   4.341   4.454  16.380  0.0100  1.2524 -1.1900
10423TIP3   OH252683   4.691   4.380  16.985  0.2034  0.0586 -0.6283
10423TIP3    H152684   4.698   4.362  17.078 -0.0110 -0.8187 -0.7702
10423TIP3    H252685   4.775   4.420  16.961  0.4645 -0.2057 -0.1664
10424TIP3   OH252686   1.282   5.309  14.716  0.2722  0.6747  0.6120
10424TIP3    H152687   1.187   5.303  14.703 -0.2409  2.9283  2.4562
10424TIP3    H252688   1.315   5.223  14.691 -2.4455 -0.7419  1.4071
10425TIP3   OH252689   6.527   4.602   1.714  0.3376 -0.0592  0.3834
10425TIP3    H152690   6.595   4.602   1.781  1.4976 -0.7212 -0.7484
10425TIP3    H252691   6.479   4.684   1.729  1.6958  0.6775  0.9132
10426TIP3   OH252692   4.146   2.558  12.122  0.2635  0.1432 -0.6037
10426TIP3    H152693   4.177   2.639  12.082  3.5320 -0.3320  0.6423
10426TIP3    H252694   4.146   2.577  12.216 -1.2085 -0.6307 -0.4259
10427TIP3   OH252695   0.985   3.740   2.904 -0.0950  0.1476 -0.0233
10427TIP3    H152696   1.015   3.823   2.942  0.6177  0.7933 -1.8886
10427TIP3    H252697   0.938   3.697   2.976  0.3787  1.7006  1.2927
10428TIP3   OH252698   3.381   5.157  14.637 -0.0722  0.6184 -0.0571
10428TIP3    H152699   3.289   5.138  14.625  0.2258 -2.5446  1.5382
10428TIP3    H252700   3.424   5.122  14.559 -0.0364 -0.3108  0.3628
10429TIP3   OH252701   3.538   3.920  14.164  0.3658 -0.1461 -0.0520
10429TIP3    H152702   3.490   3.878  14.234 -1.3820  2.3503  0.3733
10429TIP3    H252703   3.619   3.951  14.205  0.5663 -0.9978  0.1983
10430TIP3   OH252704   1.932   0.616  13.117  0.1245  0.1844  0.2453
10430TIP3    H152705   1.915   0.635  13.025  1.2448 -1.1648 -0.2704
10430TIP3    H252706   1.922   0.521  13.124  0.3624  0.2352  1.4520
10431TIP3   OH252707   1.723   5.806  12.485  0.2188 -0.3371  0.3696
10431TIP3    H152708   1.798   5.769  12.437 -0.3395 -2.3024  0.9390
10431TIP3    H252709   1.648   5.757  12.453 -0.7934  1.3023  0.1527
10432TIP3   OH252710   2.911   4.993  12.164  0.0485 -0.0203  0.0364
10432TIP3    H152711   2.911   4.899  12.145 -2.0790 -0.2170  0.6617
10432TIP3    H252712   3.003   5.019  12.162  0.6130 -1.9458 -0.9448
10433TIP3   OH252713   6.184   0.006  12.546 -0.0410  0.0858 -0.2649
10433TIP3    H152714   6.095  -0.023  12.566 -0.5200  1.9557  0.5465
10433TIP3    H252715   6.233  -0.011  12.627  0.0767  0.0234 -0.3490
10434TIP3   OH252716   0.094   5.207  14.333 -0.7473 -0.5218  0.0022
10434TIP3    H152717   0.013   5.155  14.333 -0.5846 -0.8571  2.0548
10434TIP3    H252718   0.065   5.296  14.314 -1.5495 -0.7063  0.3219
10435TIP3   OH252719   1.919   5.958  13.354 -0.1444 -0.1452  0.1754
10435TIP3    H152720   1.837   5.955  13.403  1.0802  0.4042  2.3663
10435TIP3    H252721   1.899   6.013  13.278 -1.7555  0.1433  0.7666
10436TIP3   OH252722   1.608   6.733   1.055 -0.1978 -0.0142 -0.3365
10436TIP3    H152723   1.520   6.742   1.091 -0.3644 -0.2630 -0.6843
10436TIP3    H252724   1.599   6.671   0.983  0.1740  0.3079 -0.6674
10437TIP3   OH252725   0.542   5.852  14.566  0.6351  0.4160 -0.3268
10437TIP3    H152726   0.466   5.903  14.537  0.2578  0.5856  0.9214
10437TIP3    H252727   0.504   5.773  14.605  1.0665  0.8104  0.9131
10438TIP3   OH252728   5.157   1.619   1.586  0.3292  0.1681  0.5568
10438TIP3    H152729   5.215   1.678   1.539  0.1240  0.2838  0.4476
10438TIP3    H252730   5.215   1.569   1.644  0.9992 -2.0899 -1.8944
10439TIP3   OH252731   2.419   1.039   1.311 -0.4265 -0.4902 -0.0342
10439TIP3    H152732   2.377   1.103   1.253 -0.3719  0.3654  0.8414
10439TIP3    H252733   2.504   1.077   1.331 -0.4082 -0.8184  0.5352
10440TIP3   OH252734   6.521   6.285  11.887 -0.1840 -0.3210 -0.5805
10440TIP3    H152735   6.481   6.292  11.973 -0.7438  1.2969 -0.9451
10440TIP3    H252736   6.613   6.264  11.905 -0.1371  0.6943  0.4486
10441TIP3   OH252737   5.781   2.623  13.386  0.4426  0.5195  0.5439
10441TIP3    H152738   5.706   2.565  13.397  2.0653 -1.7642  0.2427
10441TIP3    H252739   5.815   2.634  13.474  0.3876  0.6650  0.5469
10442TIP3   OH252740   0.088   6.684   2.426  0.3593  0.5838  0.4593
10442TIP3    H152741   0.132   6.618   2.479  2.1030  2.5426  1.5606
10442TIP3    H252742   0.158   6.730   2.380 -0.8398  1.4470 -0.6029
10443TIP3   OH252743   5.049   5.798  10.558  0.6101  0.3067  0.2278
10443TIP3    H152744   4.982   5.770  10.620 -0.6465  0.6063 -0.9194
10443TIP3    H252745   4.999   5.835  10.485  2.0470  0.5770 -0.6615
10444TIP3   OH252746   0.926   1.358  13.701 -0.4621  0.0824  0.1505
10444TIP3    H152747   0.944   1.264  13.712  0.7330  0.1202 -1.1758
10444TIP3    H252748   1.007   1.400  13.730 -0.0910  0.5535 -1.5119
10445TIP3   OH252749   2.942   1.158   1.517 -0.1970 -0.9079  0.1875
10445TIP3    H152750   3.005   1.221   1.551 -1.0083  0.7279 -1.1854
10445TIP3    H252751   2.910   1.112   1.594 -0.7218  1.4660  1.4869
10446TIP3   OH252752   4.897   2.172  11.273 -0.2092  0.1077 -0.3832
10446TIP3    H152753   4.879   2.162  11.367  2.2329  0.8246  0.2500
10446TIP3    H252754   4.861   2.258  11.251 -0.0201  0.3228  0.1218
10447TIP3   OH252755   3.459   5.461   1.182 -0.7593 -0.1543  0.3983
10447TIP3    H152756   3.381   5.451   1.126 -0.1523  3.7226 -1.4427
10447TIP3    H252757   3.440   5.537   1.236  1.0556 -0.2535  1.2409
10448TIP3   OH252758   2.564   3.026   5.208 -0.0057 -0.2991 -0.2298
10448TIP3    H152759   2.582   3.067   5.293  0.5471  1.1657 -1.0132
10448TIP3    H252760   2.648   2.990   5.181 -0.1114 -0.4871 -0.3093
10449TIP3   OH252761   6.167   1.701  11.203  0.3645  0.2894  0.1361
10449TIP3    H152762   6.253   1.664  11.186  1.0132  1.6860  0.2106
10449TIP3    H252763   6.153   1.687  11.297  0.5381  0.1239  0.1374
10450TIP3   OH252764   4.174   1.472   3.630  0.3548  0.4446  0.1159
10450TIP3    H152765   4.208   1.515   3.708  0.5939  1.5116 -0.5385
10450TIP3    H252766   4.231   1.397   3.617  0.1441  0.1028  1.1101
10451TIP3   OH252767   1.197   3.780   0.624  0.2450 -0.0591 -0.1306
10451TIP3    H152768   1.286   3.745   0.622  0.0260 -0.6841  0.3961
10451TIP3    H252769   1.155   3.733   0.696 -1.5502 -2.4101 -2.4951
10452TIP3   OH252770   4.227   6.756  13.815 -0.2213 -0.6761 -0.3693
10452TIP3    H152771   4.178   6.835  13.838  1.1140  0.3651 -1.0006
10452TIP3    H252772   4.298   6.752  13.879  0.9042 -0.2085 -1.5428
10453TIP3   OH252773   2.499   0.842  14.165 -0.0767 -0.0457  0.0545
10453TIP3    H152774   2.477   0.887  14.247 -1.3700  1.6370 -1.1510
10453TIP3    H252775   2.416   0.807  14.133  0.5885 -1.5956 -0.0603
10454TIP3   OH252776   3.294   6.603  15.968 -0.2465  0.1343 -0.1361
10454TIP3    H152777   3.344   6.682  15.947  0.0897  0.2658  1.0623
10454TIP3    H252778   3.258   6.621  16.055 -1.7479 -0.2708 -0.6500
10455TIP3   OH252779   1.724   2.024   1.000  0.1689 -0.5164  0.3304
10455TIP3    H152780   1.719   2.116   0.973  1.5899 -0.4572  0.1728
10455TIP3    H252781   1.770   2.026   1.084  0.0668 -1.0700  0.4029
10456TIP3   OH252782   2.993   0.160   4.932 -0.1434  0.0418  0.3991
10456TIP3    H152783   3.055   0.222   4.970  0.0192  1.0878 -1.4390
10456TIP3    H252784   2.937   0.213   4.875 -0.5402 -1.3756 -0.5987
10457TIP3   OH252785   0.742   5.095   5.840  0.0390 -0.2374 -0.0861
10457TIP3    H152786   0.736   5.191   5.840 -0.0647 -0.2431 -0.0905
10457TIP3    H252787   0.832   5.076   5.866 -0.0853 -0.1454  0.4181
10458TIP3   OH252788   5.136   0.293   0.217  0.5257 -0.3141  0.6223
10458TIP3    H152789   5.076   0.332   0.280 -1.1065 -0.0861 -1.0081
10458TIP3    H252790   5.110   0.201   0.211 -1.6313  0.3499 -2.1195
10459TIP3   OH252791   6.252   5.291  10.908  0.0982  0.5464 -0.0816
10459TIP3    H152792   6.312   5.361  10.934 -0.5358  1.0183  0.1421
10459TIP3    H252793   6.286   5.261  10.823  1.3028  0.0256  0.5655
10460TIP3   OH252794   4.538   0.684  14.947 -0.2520 -0.0306  0.5111
10460TIP3    H152795   4.603   0.653  15.009  0.4759 -0.9975 -0.6897
10460TIP3    H252796   4.488   0.750  14.995  1.6549  0.8049  1.4431
10461TIP3   OH252797   2.163   2.815  13.957 -0.0804  0.4962  0.1264
10461TIP3    H152798   2.229   2.814  14.027  0.9740  1.9910 -0.7886
10461TIP3    H252799   2.079   2.817  14.002  0.3955 -2.5229  1.3439
10462TIP3   OH252800   2.111   3.662   0.301 -0.2940  0.7843  0.0291
10462TIP3    H152801   2.205   3.679   0.290 -0.1584 -1.2025 -3.1174
10462TIP3    H252802   2.105   3.606   0.378  1.3832 -0.4669 -0.6791
10463TIP3   OH252803   4.709   1.811  12.299  0.4216 -0.2287 -0.2987
10463TIP3    H152804   4.676   1.738  12.247  0.8744 -0.6437 -0.0070
10463TIP3    H252805   4.699   1.887  12.242 -3.0863  0.0922  0.5098
10464TIP3   OH252806   0.197   6.219   4.749  0.7160 -0.1723  0.5365
10464TIP3    H152807   0.290   6.206   4.772  0.8956  1.9116  1.1842
10464TIP3    H252808   0.150   6.173   4.818  1.3028  1.3112  1.9970
10465TIP3   OH252809   5.891   0.366   6.364 -0.8375  0.4538  0.4124
10465TIP3    H152810   5.870   0.380   6.456  0.2565 -0.9108  0.9054
10465TIP3    H252811   5.980   0.400   6.354 -0.9905  0.6948 -0.1701
10466TIP3   OH252812   0.121   2.352  15.542 -0.0404 -0.0519 -0.1100
10466TIP3    H152813   0.146   2.261  15.525 -0.2786 -0.1874  0.2710
10466TIP3    H252814   0.163   2.401  15.471 -0.9613 -0.6045 -1.0785
10467TIP3   OH252815   3.736   4.865  13.091  0.4123  0.2708 -0.5556
10467TIP3    H152816   3.647   4.900  13.084 -0.2045 -0.2645  2.9084
10467TIP3    H252817   3.781   4.927  13.148  2.0048 -0.0019 -1.4552
10468TIP3   OH252818   2.082   1.519   5.720  0.6182 -0.9543 -0.4597
10468TIP3    H152819   2.114   1.443   5.768 -0.3887 -1.3935 -0.4667
10468TIP3    H252820   2.017   1.559   5.778  0.4183 -0.6757 -0.8732
10469TIP3   OH252821   5.693   0.269   0.913  0.4217 -0.3818  0.5345
10469TIP3    H152822   5.607   0.306   0.933  0.6720  2.1687 -2.3616
10469TIP3    H252823   5.752   0.309   0.977 -0.2069 -0.4578  1.1712
10470TIP3   OH252824   4.739   4.431   4.564 -0.4688  0.3207 -0.0442
10470TIP3    H152825   4.725   4.481   4.644 -0.3005  1.3221 -0.6280
10470TIP3    H252826   4.657   4.440   4.515 -0.2592  0.4431 -0.3784
10471TIP3   OH252827   3.649   0.918  14.683  0.7166  0.3877  0.0542
10471TIP3    H152828   3.682   0.837  14.645  0.6994  0.7964 -0.8769
10471TIP3    H252829   3.709   0.938  14.754  1.3972  0.1555 -0.4385
10472TIP3   OH252830   0.585   0.911  13.462 -0.1077 -0.4663 -0.4509
10472TIP3    H152831   0.621   0.832  13.501 -0.2720 -1.6859 -2.6111
10472TIP3    H252832   0.626   0.983  13.511  1.1130 -1.8552  0.6569
10473TIP3   OH252833   3.391   5.310   3.461  0.2059  0.0010 -0.1363
10473TIP3    H152834   3.478   5.350   3.469  0.1020 -0.0159  1.2255
10473TIP3    H252835   3.383   5.256   3.540 -1.5625  1.0025  0.4101
10474TIP3   OH252836   4.437   3.512   5.075 -0.5010  0.3405 -0.3969
10474TIP3    H152837   4.484   3.432   5.052  3.4893  2.5518 -0.7929
10474TIP3    H252838   4.353   3.506   5.028  1.8620 -1.2224 -4.9918
10475TIP3   OH252839   5.192   2.774  11.355 -0.3589  0.2053  0.1644
10475TIP3    H152840   5.170   2.837  11.286  2.2163  1.5689  0.4531
10475TIP3    H252841   5.184   2.824  11.437 -0.5836 -0.5617  0.6265
10476TIP3   OH252842   1.907   0.914   0.843 -0.1483 -0.4458 -0.1996
10476TIP3    H152843   1.883   1.007   0.841  0.8120 -0.1752 -2.1057
10476TIP3    H252844   1.825   0.868   0.860 -0.4036  0.7691  2.2693
10477TIP3   OH252845   1.035   6.523   3.104 -0.1466 -0.0313  0.0533
10477TIP3    H152846   0.989   6.599   3.139  1.1465  0.7631  0.0986
10477TIP3    H252847   1.050   6.466   3.180  0.2192  0.3984  0.3102
10478TIP3   OH252848   5.022   1.149   2.985  0.3501 -0.2517 -0.1691
10478TIP3    H152849   4.984   1.066   2.957 -0.6108  0.0590  0.1828
10478TIP3    H252850   5.006   1.153   3.080 -1.1217  1.0778 -0.4341
10479TIP3   OH252851   5.871   5.513   3.966  0.3117  0.2069 -0.0039
10479TIP3    H152852   5.808   5.475   4.028 -0.4436  1.7352  0.2129
10479TIP3    H252853   5.924   5.439   3.937  1.2389 -0.4952  3.0879
10480TIP3   OH252854   3.961   2.245   2.453  0.0728  0.3221 -0.2453
10480TIP3    H152855   3.890   2.306   2.434  1.4167  1.4303 -2.0901
10480TIP3    H252856   4.021   2.254   2.379  0.7865 -2.6359 -0.1707
10481TIP3   OH252857   5.645   3.513  14.483 -0.3911 -0.3780 -0.2043
10481TIP3    H152858   5.658   3.442  14.546  0.9520  0.8170  0.9325
10481TIP3    H252859   5.724   3.567  14.490 -1.2473  1.0892 -1.2163
10482TIP3   OH252860   3.178   0.969  15.280  0.2616 -0.2373 -0.2460
10482TIP3    H152861   3.168   0.876  15.260  0.5202 -0.5264  0.8892
10482TIP3    H252862   3.268   0.990  15.254  1.1964 -1.0356  2.0337
10483TIP3   OH252863   4.312   4.284  15.599  0.1197  0.0457  0.0968
10483TIP3    H152864   4.274   4.299  15.513  0.4296  0.9732  0.1125
10483TIP3    H252865   4.295   4.365  15.647  0.0400 -0.4244  0.8780
10484TIP3   OH252866   1.650   2.960   2.121  0.0249 -0.1619 -0.0113
10484TIP3    H152867   1.597   2.934   2.196  2.4240 -0.1474  1.8230
10484TIP3    H252868   1.641   3.055   2.116 -0.1796 -0.1700  0.2419
10485TIP3   OH252869   5.483   4.021   5.096  0.7274  0.4722  0.4140
10485TIP3    H152870   5.490   3.930   5.069 -1.8595 -0.1315  1.4700
10485TIP3    H252871   5.394   4.047   5.073  1.1765  2.5292  0.7532
10486TIP3   OH252872   3.918   3.805   0.222  0.1257 -0.2375  0.5217
10486TIP3    H152873   3.848   3.822   0.160  0.2004 -2.5131 -0.2776
10486TIP3    H252874   3.986   3.869   0.201 -1.7821  2.2578  1.5702
10487TIP3   OH252875   1.414   1.163   6.630  0.2222  0.2334  0.2951
10487TIP3    H152876   1.492   1.216   6.645  0.8699 -0.7468  0.5192
10487TIP3    H252877   1.357   1.218   6.576  1.0043  1.0235  0.2544
10488TIP3   OH252878   6.617   4.753   2.789  0.2521  0.4426  0.2573
10488TIP3    H152879   6.525   4.729   2.778  0.7022 -0.9827 -0.5980
10488TIP3    H252880   6.662   4.670   2.808  1.3409  1.1467  0.9104
10489TIP3   OH252881   5.167   6.749   2.758 -0.2333 -0.3365 -0.8961
10489TIP3    H152882   5.252   6.759   2.715  0.5308  0.6682  0.7222
10489TIP3    H252883   5.106   6.799   2.703  0.8332  1.4658 -0.5306
10490TIP3   OH252884   2.127   5.048   0.516  0.5795 -0.0859 -0.3747
10490TIP3    H152885   2.078   5.105   0.576 -0.1882 -0.7803 -0.3296
10490TIP3    H252886   2.185   4.998   0.573  2.0665  1.3980 -0.5090
10491TIP3   OH252887   0.639   0.141  16.286 -0.2517  0.1708 -0.3073
10491TIP3    H152888   0.645   0.232  16.316 -1.2843  0.2320 -0.2545
10491TIP3    H252889   0.545   0.124  16.279 -0.1013 -1.1232  0.3758
10492TIP3   OH252890   2.843   3.314   3.203 -0.2356  0.3635  0.5447
10492TIP3    H152891   2.754   3.311   3.168 -0.6361 -1.5830  1.6031
10492TIP3    H252892   2.838   3.265   3.285  2.0569 -0.8561  0.0393
10493TIP3   OH252893   1.466   0.099  13.615 -0.2979 -0.6432 -0.0972
10493TIP3    H152894   1.498   0.091  13.705 -0.8992  3.5232  0.7110
10493TIP3    H252895   1.376   0.066  13.619 -0.1484 -0.9768  0.7114
10494TIP3   OH252896   2.019   6.728   5.303  0.9203  0.1975  0.5115
10494TIP3    H152897   2.075   6.692   5.235 -0.0953 -2.4794  0.9566
10494TIP3    H252898   1.954   6.781   5.256  0.7845 -0.8560 -0.5242
10495TIP3   OH252899   5.056   2.611  15.018 -0.0279  0.0776 -0.3501
10495TIP3    H152900   5.001   2.602  14.941  1.0739  0.5984 -1.2206
10495TIP3    H252901   5.086   2.702  15.017  0.1637  0.0422  0.5809
10496TIP3   OH252902   1.198   5.499   3.912  0.1073 -0.3322  0.0422
10496TIP3    H152903   1.125   5.456   3.956  1.2203 -0.2138  2.0867
10496TIP3    H252904   1.251   5.426   3.878 -1.0155 -0.4183 -1.6844
10497TIP3   OH252905   3.239   4.739   0.432  0.2111 -0.0470  0.7071
10497TIP3    H152906   3.302   4.674   0.400 -0.2246 -0.6515  1.0605
10497TIP3    H252907   3.288   4.822   0.431  1.3019 -0.6391  1.7613
10498TIP3   OH252908   1.028   2.926  11.758  0.2425  0.0848  0.1180
10498TIP3    H152909   0.982   2.948  11.678  0.5937  0.5296  0.0319
10498TIP3    H252910   1.026   3.006  11.810 -0.9792 -0.5289  1.0514
10499TIP3   OH252911   0.286   2.632  15.147  0.1216 -0.3498 -0.3585
10499TIP3    H152912   0.225   2.607  15.078 -0.1374  2.6360 -1.3665
10499TIP3    H252913   0.363   2.665  15.101  1.5991 -1.8585  0.8844
10500TIP3   OH252914   0.571   4.494  10.856  0.3627  0.1550  0.7677
10500TIP3    H152915   0.639   4.466  10.794  0.8699 -0.2583  1.4849
10500TIP3    H252916   0.610   4.479  10.942 -0.1549  1.1423  1.1957
10501TIP3   OH252917   1.741   3.437  14.506  0.2229  0.1927  0.8121
10501TIP3    H152918   1.720   3.446  14.599 -0.8791  2.5282  0.4077
10501TIP3    H252919   1.790   3.517  14.485 -0.6168  0.3098 -0.8623
10502TIP3   OH252920   3.926   0.475  15.786  0.3108  0.2055  0.3727
10502TIP3    H152921   4.013   0.502  15.817  0.7076  1.4872 -1.6712
10502TIP3    H252922   3.924   0.381  15.802  2.0525  0.1582  0.5419
10503TIP3   OH252923   3.119   0.422   2.358 -0.1868 -0.0809 -0.0796
10503TIP3    H152924   3.139   0.470   2.438  0.2168 -0.1658 -0.1312
10503TIP3    H252925   3.204   0.394   2.324 -0.1898  1.5267 -1.5443
10504TIP3   OH252926   5.876   2.066   5.712 -0.3738 -0.3153  0.0663
10504TIP3    H152927   5.811   2.135   5.695 -0.2223 -0.2275 -0.1532
10504TIP3    H252928   5.833   1.986   5.682 -0.0771 -0.1536 -0.8213
10505TIP3   OH252929   1.403   2.511   0.042 -0.3933 -0.4739 -0.0839
10505TIP3    H152930   1.471   2.485   0.104 -1.9816  0.7397  2.2947
10505TIP3    H252931   1.387   2.433  -0.010  1.0418 -1.5400  1.0046
10506TIP3   OH252932   2.511   5.059   6.271  0.1281  0.5086  0.0967
10506TIP3    H152933   2.584   5.116   6.247  0.2544  0.2690 -0.0972
10506TIP3    H252934   2.434   5.101   6.233  0.2171  0.5663 -0.0204
10507TIP3   OH252935   6.082   0.304  11.891 -0.1219 -0.2085 -0.4372
10507TIP3    H152936   6.159   0.360  11.877 -0.0449  0.5145  2.2080
10507TIP3    H252937   6.051   0.282  11.803  2.5554  0.2282 -1.5744
10508TIP3   OH252938   1.963   3.180   1.961 -0.4490 -0.0517 -0.1156
10508TIP3    H152939   1.943   3.087   1.947  1.5613 -1.0050  2.4754
10508TIP3    H252940   1.928   3.224   1.883 -0.6213 -3.0784 -1.9245
10509TIP3   OH252941   5.709   1.601   3.607 -0.1830 -0.4896 -0.1825
10509TIP3    H152942   5.678   1.692   3.609 -0.1128 -0.4324 -1.2025
10509TIP3    H252943   5.727   1.584   3.514  0.1212 -1.4399  0.0433
10510TIP3   OH252944   5.416   0.624   5.238 -0.1574  0.0027 -0.9179
10510TIP3    H152945   5.455   0.666   5.162 -0.0684 -2.0148 -2.0338
10510TIP3    H252946   5.490   0.587   5.286 -0.3338  0.0229 -0.6242
10511TIP3   OH252947   5.755   1.521  16.853  0.4256 -0.4733  0.1293
10511TIP3    H152948   5.804   1.440  16.864 -3.2857 -2.9508  0.2369
10511TIP3    H252949   5.753   1.560  16.940  0.9709 -1.0603  0.4130
10512TIP3   OH252950   0.112   0.929   3.044 -0.5812 -0.1440  0.0894
10512TIP3    H152951   0.023   0.911   3.074  0.0463  0.0570  2.2469
10512TIP3    H252952   0.161   0.947   3.124  0.8602  2.2418 -1.2016
10513TIP3   OH252953   1.091   1.845   5.766  0.0020 -0.2190 -0.7920
10513TIP3    H152954   1.029   1.918   5.771  1.3303  0.8604  0.5948
10513TIP3    H252955   1.057   1.781   5.829  0.4025  0.4828  0.1591
10514TIP3   OH252956   1.954   0.345  14.624 -0.2882 -0.5006  0.5491
10514TIP3    H152957   1.891   0.324  14.555 -1.3614 -2.8120  2.1050
10514TIP3    H252958   2.040   0.331  14.584 -0.7991  0.4626 -0.9445
10515TIP3   OH252959   2.268   6.751   3.074  0.1050  0.0758 -0.3147
10515TIP3    H152960   2.340   6.705   3.117 -0.7916 -1.4250 -0.3770
10515TIP3    H252961   2.282   6.733   2.981 -0.5240 -0.5021 -0.3027
10516TIP3   OH252962   6.432   1.736  12.577 -0.3144 -0.0568  0.1239
10516TIP3    H152963   6.379   1.777  12.645 -0.4293  0.1382 -0.0821
10516TIP3    H252964   6.502   1.799  12.559  0.3249 -0.5612  0.8063
10517TIP3   OH252965   4.032   5.705   6.232 -0.3040  0.2325 -0.1086
10517TIP3    H152966   4.121   5.741   6.241 -0.2167 -0.3015  1.6478
10517TIP3    H252967   4.011   5.672   6.320 -0.5183 -3.6901 -1.4646
10518TIP3   OH252968   3.606   2.263   5.658 -0.1908 -0.0510 -0.2548
10518TIP3    H152969   3.592   2.358   5.653  1.9610  0.5195  2.4937
10518TIP3    H252970   3.686   2.253   5.709 -0.4531 -3.3986 -0.3010
10519TIP3   OH252971   3.721   6.500  13.953 -0.3160 -0.1848 -0.0050
10519TIP3    H152972   3.798   6.473  13.902 -1.8309 -0.6184 -2.1962
10519TIP3    H252973   3.697   6.423  14.003 -1.2967 -1.2277 -1.9598
10520TIP3   OH252974   4.060   3.945  11.834  0.0949  0.5503  0.5908
10520TIP3    H152975   4.149   3.981  11.838  0.8309 -1.2392  1.6739
10520TIP3    H252976   4.073   3.853  11.811 -1.5626  0.4566 -0.0836
10521TIP3   OH252977   5.857   5.279  12.269 -0.4226 -0.1111 -0.0677
10521TIP3    H152978   5.793   5.248  12.333 -1.9675  2.1990 -0.3947
10521TIP3    H252979   5.933   5.305  12.321 -1.5940  1.5795  0.8908
10522TIP3   OH252980   3.738   6.549  11.839 -0.3469 -0.8833  0.0601
10522TIP3    H152981   3.694   6.483  11.785  1.9343 -0.2285 -2.8351
10522TIP3    H252982   3.669   6.611  11.862 -1.2247 -0.1764 -3.8191
10523TIP3   OH252983   4.448   5.633  14.698 -0.3491 -0.6358  0.2306
10523TIP3    H152984   4.486   5.551  14.731 -0.6417 -0.3510  1.3038
10523TIP3    H252985   4.466   5.631  14.604 -0.8372 -2.2007  0.1291
10524TIP3   OH252986   2.403   1.413   0.366  0.6137 -0.3580 -0.0451
10524TIP3    H152987   2.330   1.385   0.421  1.0146 -2.3028 -0.4430
10524TIP3    H252988   2.361   1.451   0.288  0.0621  0.7413  0.7549
10525TIP3   OH252989   1.400   1.493  15.217 -0.3768 -0.1141  0.5591
10525TIP3    H152990   1.445   1.534  15.143 -0.6458 -0.8267 -0.0143
10525TIP3    H252991   1.331   1.441  15.177 -0.5679 -0.4593  1.3211
10526TIP3   OH252992   3.478   5.204   3.180 -0.0962  0.1589 -0.4948
10526TIP3    H152993   3.456   5.203   3.273  0.7018 -0.3781 -0.3070
10526TIP3    H252994   3.410   5.259   3.141  0.8089  2.2581  0.7090
10527TIP3   OH252995   1.545   0.741   0.463  0.4384 -0.0732  0.6860
10527TIP3    H152996   1.595   0.736   0.381 -0.4879  0.5502  0.0559
10527TIP3    H252997   1.582   0.816   0.509  0.4584  0.0412  0.4853
10528TIP3   OH252998   4.925   0.903  16.642  0.0571  0.3472 -0.3466
10528TIP3    H152999   5.011   0.874  16.613  0.3089  1.1261 -0.4140
10528TIP3    H253000   4.873   0.823  16.647  1.7413 -0.7382  3.1022
10529TIP3   OH253001   6.514   3.532  16.595  0.7632 -0.3505  0.5462
10529TIP3    H153002   6.593   3.529  16.540  0.5676  2.0366  0.0381
10529TIP3    H253003   6.451   3.476  16.550  0.5301  1.7135 -1.9084
10530TIP3   OH253004   5.167   6.366  15.406  0.4512  0.0559  0.2453
10530TIP3    H153005   5.227   6.392  15.336  0.8618  0.7458  0.8341
10530TIP3    H253006   5.221   6.370  15.485 -0.6758  2.0391  0.9880
10531TIP3   OH253007   0.569   1.420  11.223 -0.0386  0.3962  0.0068
10531TIP3    H153008   0.654   1.377  11.216 -0.2745  0.0552 -0.9069
10531TIP3    H253009   0.532   1.388  11.305  0.6802  0.5007  0.3824
10532TIP3   OH253010   6.527   6.049   4.182 -0.3327  0.1837 -0.3527
10532TIP3    H153011   6.550   5.975   4.238 -0.7062 -0.1826 -0.6790
10532TIP3    H253012   6.593   6.048   4.113 -0.2257  0.2697 -0.2514
10533TIP3   OH253013   1.759   0.027   1.705 -0.5245 -0.3087  0.2720
10533TIP3    H153014   1.702  -0.010   1.772 -0.1869  0.9066  1.2678
10533TIP3    H253015   1.724  -0.006   1.622 -1.3261 -1.3395  1.0061
10534TIP3   OH253016   3.997   5.834   1.380 -0.0866  0.0263  0.2694
10534TIP3    H153017   3.909   5.802   1.398 -0.5314  1.5314  0.8624
10534TIP3    H253018   4.053   5.786   1.441 -0.2900 -1.7955 -0.8898
10535TIP3   OH253019   2.108   1.677   3.281  0.2255  0.5919 -0.0736
10535TIP3    H153020   2.128   1.620   3.207 -0.0774  1.4084 -0.7995
10535TIP3    H253021   2.127   1.624   3.359 -1.2729 -0.9319 -0.7004
10536TIP3   OH253022   1.473   2.385   3.438  0.5014  0.4473  0.0766
10536TIP3    H153023   1.390   2.343   3.457  0.8024 -0.1824  0.0259
10536TIP3    H253024   1.533   2.313   3.418  0.4023  0.9895 -2.5333
10537TIP3   OH253025   6.175   3.299   5.456 -0.6363  0.0417 -0.2085
10537TIP3    H153026   6.091   3.295   5.500 -1.5966 -1.4223 -2.0413
10537TIP3    H253027   6.207   3.209   5.457 -0.7247 -0.0700 -2.4372
10538TIP3   OH253028   5.766   0.890   0.790 -0.3096  0.0977  0.5425
10538TIP3    H153029   5.728   0.819   0.841  0.8367 -1.8088 -1.0856
10538TIP3    H253030   5.843   0.918   0.840 -0.4243 -0.2180  0.8969
10539TIP3   OH253031   1.869   3.381  13.586 -0.3597  0.2816 -0.1250
10539TIP3    H153032   1.811   3.314  13.551  0.6010 -1.0260  0.6967
10539TIP3    H253033   1.946   3.379  13.530  0.9446 -1.4300  1.5975
10540TIP3   OH253034   0.815   4.277  14.947 -0.0086 -0.3284  0.1289
10540TIP3    H153035   0.899   4.316  14.925 -0.9763  0.9903 -1.4724
10540TIP3    H253036   0.785   4.325  15.024  0.8467 -1.0952  0.9742
10541TIP3   OH253037   5.107   4.113  16.528 -0.3295 -0.1052  0.2966
10541TIP3    H153038   5.019   4.129  16.562 -0.0193  0.0510  1.0548
10541TIP3    H253039   5.165   4.132  16.602  0.2851 -1.2150  0.1225
10542TIP3   OH253040   5.724   1.191  10.582 -0.0856 -0.1134 -0.0057
10542TIP3    H153041   5.807   1.176  10.626  0.2229  0.5198 -0.3552
10542TIP3    H253042   5.715   1.118  10.521  0.2645 -0.1302 -0.0376
10543TIP3   OH253043   5.749   4.877   0.649 -0.3195 -0.0637  0.1189
10543TIP3    H153044   5.811   4.804   0.635  0.2071  0.6550 -1.5943
10543TIP3    H253045   5.713   4.861   0.736  0.9252 -1.5268  0.4199
10544TIP3   OH253046   0.292   3.596   1.034  0.7444  0.0555 -0.3317
10544TIP3    H153047   0.375   3.564   0.997  2.4230  0.5858  2.6404
10544TIP3    H253048   0.234   3.520   1.033  2.3053 -1.1945  0.2774
10545TIP3   OH253049   0.737   1.244   1.060  0.1925  0.1296  0.2222
10545TIP3    H153050   0.789   1.242   0.980 -1.2396 -1.6876 -0.7609
10545TIP3    H253051   0.646   1.240   1.029 -0.4058 -0.3837  1.9135
10546TIP3   OH253052   2.968   2.648   2.610 -0.4000  0.0875 -0.0496
10546TIP3    H153053   2.941   2.739   2.622  1.3071  0.5593  0.5445
10546TIP3    H253054   3.024   2.629   2.686 -0.0209 -1.1651 -0.6126
10547TIP3   OH253055   0.581   4.151   3.264 -0.0153 -0.0420 -0.0102
10547TIP3    H153056   0.544   4.132   3.178 -0.1438 -0.0063  0.0368
10547TIP3    H253057   0.647   4.083   3.278  0.9433  0.7193 -0.7054
10548TIP3   OH253058   5.474   4.078  12.919  0.4203 -0.4318 -0.1091
10548TIP3    H153059   5.502   4.005  12.865  0.4941  0.1930 -0.9469
10548TIP3    H253060   5.550   4.099  12.973  0.5847 -0.6147 -0.2696
10549TIP3   OH253061   1.952   2.228   4.002  0.0033  0.1030 -0.0942
10549TIP3    H153062   1.992   2.264   3.923 -0.9378  0.4978 -0.4011
10549TIP3    H253063   1.965   2.133   3.995 -0.0732  0.1400 -0.7178
10550TIP3   OH253064   3.342   0.299  12.701 -0.0168 -0.1074  0.1036
10550TIP3    H153065   3.351   0.282  12.794  0.0568 -1.0705 -0.0760
10550TIP3    H253066   3.428   0.329  12.673  0.1010 -0.3225  0.2379
10551TIP3   OH253067   4.309   5.690   2.843 -0.6418  0.6115  0.0130
10551TIP3    H153068   4.337   5.622   2.903 -2.4780  0.4480  0.7546
10551TIP3    H253069   4.216   5.674   2.830 -0.5961  1.5148 -1.7652
10552TIP3   OH253070   1.426   0.381  14.186  0.1607 -0.7704  0.2339
10552TIP3    H153071   1.453   0.435  14.259 -1.3862 -1.5415  1.4513
10552TIP3    H253072   1.343   0.419  14.157  1.8268  1.0043 -2.7964
10553TIP3   OH253073   3.237   5.573   2.781 -0.0519  0.2169 -0.5819
10553TIP3    H153074   3.187   5.607   2.856  1.6765 -0.6940  1.0709
10553TIP3    H253075   3.198   5.487   2.765 -0.8619  0.6878 -1.1870
10554TIP3   OH253076   6.445   4.843   5.141  0.2113 -0.7866 -0.7024
10554TIP3    H153077   6.540   4.844   5.130  0.2012 -1.0202 -0.8120
10554TIP3    H253078   6.417   4.931   5.116  0.1904 -1.2706 -2.5544
10555TIP3   OH253079   2.342   2.299  15.817 -0.1585 -0.2584  0.1181
10555TIP3    H153080   2.295   2.311  15.735 -0.0663  0.6606  0.1932
10555TIP3    H253081   2.434   2.308  15.794 -0.1025 -0.4989  0.2424
10556TIP3   OH253082   4.983   6.474  13.436 -0.2803  0.3270 -0.2411
10556TIP3    H153083   4.933   6.408  13.387 -0.8756 -0.5542  1.4623
10556TIP3    H253084   5.074   6.457  13.412 -0.4257 -1.1620  0.1556
10557TIP3   OH253085   0.214   6.508   1.531  0.6526 -0.1120  1.1305
10557TIP3    H153086   0.154   6.494   1.604 -0.4075 -1.3410  0.0718
10557TIP3    H253087   0.158   6.539   1.459  1.2529 -1.2307  0.1415
10558TIP3   OH253088   0.042   5.697  11.718  0.2059  0.9576 -0.0564
10558TIP3    H153089   0.044   5.738  11.632  1.7276  0.4857 -0.2691
10558TIP3    H253090  -0.051   5.675  11.731 -0.1273  1.4966 -1.3348
10559TIP3   OH253091   1.414   4.026   3.186 -0.0218  0.2308 -0.5759
10559TIP3    H153092   1.400   3.941   3.143 -1.1216  0.0222  0.1279
10559TIP3    H253093   1.509   4.035   3.191  0.1169 -0.5956 -1.3718
10560TIP3   OH253094   4.419   2.525   0.665  0.6699  1.0554 -0.4149
10560TIP3    H153095   4.458   2.504   0.750  1.2556  0.2443 -0.8641
10560TIP3    H253096   4.448   2.614   0.647 -0.8793  1.8877  0.9991
10561TIP3   OH253097   1.772   5.972   3.186  0.1392 -0.3269 -0.1722
10561TIP3    H153098   1.715   5.896   3.181 -0.0149 -0.1627 -1.1364
10561TIP3    H253099   1.824   5.958   3.265 -1.9853  0.0558  1.4105
10562TIP3   OH253100   2.429   4.478  13.510  0.3812 -0.0030  0.0805
10562TIP3    H153101   2.338   4.470  13.540  0.2506 -0.4254 -0.4300
10562TIP3    H253102   2.438   4.413  13.440  1.0649  0.0667  0.0959
10563TIP3   OH253103   5.932   5.268   4.535  0.6454 -0.8040 -0.0088
10563TIP3    H153104   5.999   5.228   4.591  1.4038 -0.6416 -0.7817
10563TIP3    H253105   5.849   5.239   4.574  0.9925  1.6132  2.9561
10564TIP3   OH253106   5.248   3.292   4.362  0.0150  0.2131  0.2632
10564TIP3    H153107   5.218   3.229   4.296 -0.4738  1.0612 -0.3386
10564TIP3    H253108   5.329   3.328   4.326 -1.5468  2.5725 -1.1834
10565TIP3   OH253109   6.381   0.105  14.657 -0.3037  0.3605 -0.5928
10565TIP3    H153110   6.434   0.090  14.579  0.8293  0.1203  0.1946
10565TIP3    H253111   6.296   0.066  14.637  0.3120 -0.6643 -1.3047
10566TIP3   OH253112   6.417   5.621  16.123 -0.5081  0.1756  0.0022
10566TIP3    H153113   6.383   5.532  16.109  0.8212 -0.3720  0.1439
10566TIP3    H253114   6.414   5.633  16.218  1.3102 -0.5678  0.1899
10567TIP3   OH253115   3.487   3.968   5.520  0.0145 -0.5450  0.3277
10567TIP3    H153116   3.503   3.973   5.425 -0.9935 -1.9587  0.0541
10567TIP3    H253117   3.571   3.938   5.556  1.2347  2.4303  0.2545
10568TIP3   OH253118   0.184   0.590   1.014 -0.1079 -0.4281  0.7261
10568TIP3    H153119   0.144   0.511   0.979  2.0313 -1.7988  1.2403
10568TIP3    H253120   0.198   0.572   1.107 -0.7533  1.0815  1.1579
10569TIP3   OH253121   1.300   0.145   0.922  0.0091  0.2451  0.5131
10569TIP3    H153122   1.390   0.112   0.930  0.4487  0.9631 -1.1060
10569TIP3    H253123   1.271   0.116   0.836 -1.3390  0.0322  1.0060
10570TIP3   OH253124   4.062   2.192  16.044  0.4675  0.7338 -0.8422
10570TIP3    H153125   4.137   2.250  16.028 -1.9427  4.6693  0.6878
10570TIP3    H253126   4.040   2.207  16.136 -1.7925 -0.8298 -1.0537
10571TIP3   OH253127   0.375   1.716   0.673  0.2357 -0.0423  0.5175
10571TIP3    H153128   0.322   1.651   0.626 -0.3620 -0.4324  1.7087
10571TIP3    H253129   0.424   1.665   0.738 -0.1487  0.6792  1.3844
10572TIP3   OH253130   0.507   3.639   2.258  0.0663 -0.5609 -0.5984
10572TIP3    H153131   0.523   3.611   2.169 -2.3011 -1.4770 -0.8217
10572TIP3    H253132   0.415   3.615   2.275  0.8820 -2.0205  2.6519
10573TIP3   OH253133   5.549   6.273   3.996 -0.5450  0.3994 -0.3270
10573TIP3    H153134   5.566   6.191   4.042  0.8972 -0.4722 -2.2695
10573TIP3    H253135   5.476   6.313   4.044 -1.9804 -2.4830  0.0956
10574TIP3   OH253136   3.919   2.251   1.325 -0.1179  0.3353  0.6616
10574TIP3    H153137   3.891   2.300   1.248 -1.4196  2.8661  2.5664
10574TIP3    H253138   4.014   2.253   1.322 -0.1295 -0.0544 -1.0795
10575TIP3   OH253139   4.967   2.481  15.798  0.4610 -0.0442  0.6731
10575TIP3    H153140   4.933   2.392  15.803  1.5932 -0.4193  2.6637
10575TIP3    H253141   5.019   2.483  15.718  0.2825 -1.1048  0.5231
10576TIP3   OH253142   5.947   6.714  12.612 -0.1209 -0.0524 -0.0127
10576TIP3    H153143   5.923   6.641  12.556  0.4364 -1.3146  1.3405
10576TIP3    H253144   5.902   6.697  12.695 -0.0390  1.1918  0.3164
10577TIP3   OH253145   2.510   1.790   1.579 -0.4334  0.1952  0.0337
10577TIP3    H153146   2.514   1.821   1.489 -2.7885  2.3222  0.5447
10577TIP3    H253147   2.589   1.825   1.620  0.5378 -0.5969 -1.0807
10578TIP3   OH253148   2.627   0.701   2.193  0.5235  0.1038  0.1503
10578TIP3    H153149   2.601   0.670   2.280 -0.2748  1.3187  0.3704
10578TIP3    H253150   2.717   0.671   2.183 -0.1118 -2.0520  0.4212
10579TIP3   OH253151   1.657   2.385   5.750  0.6145 -0.3447  0.3408
10579TIP3    H153152   1.689   2.364   5.838 -1.1406 -0.0508  1.0936
10579TIP3    H253153   1.579   2.331   5.739 -0.3400  1.0740 -0.2153
10580TIP3   OH253154   3.481   2.979   3.209  0.5272 -0.0715  0.2464
10580TIP3    H153155   3.453   3.067   3.236  1.1651  0.0374  0.5762
10580TIP3    H253156   3.400   2.937   3.179  0.4565  1.1543 -1.4141
10581TIP3   OH253157   4.303   4.555   0.662  0.0231 -0.3935 -0.5541
10581TIP3    H153158   4.247   4.617   0.709  1.4111  0.3319  0.2168
10581TIP3    H253159   4.242   4.490   0.626 -1.4580  1.2849 -1.2091
10582TIP3   OH253160   0.553   5.346  12.136 -0.4453  0.2083 -0.1215
10582TIP3    H153161   0.500   5.360  12.215 -1.5826 -1.8624 -0.4441
10582TIP3    H253162   0.627   5.293  12.167  0.7668  1.9092  0.0566
10583TIP3   OH253163   0.675   5.784   0.286  0.3634 -0.6097  0.1635
10583TIP3    H153164   0.585   5.787   0.254  0.8760 -2.1889 -1.5626
10583TIP3    H253165   0.708   5.874   0.276 -0.6360 -0.2850 -0.2987
10584TIP3   OH253166   3.239   5.189   2.804  0.2957  0.0706  0.1380
10584TIP3    H153167   3.303   5.213   2.737  0.0016 -1.0429 -0.5673
10584TIP3    H253168   3.173   5.138   2.757 -0.5452  0.2777  1.0621
10585TIP3   OH253169   4.070   1.918  15.983  0.8815  0.4812 -0.4862
10585TIP3    H153170   4.056   2.013  15.988 -0.2471  0.3018 -0.0363
10585TIP3    H253171   3.982   1.881  15.980  1.2762 -0.6421  0.9318
10586TIP3   OH253172   2.051   1.850   1.872  0.3716 -0.2313  0.4252
10586TIP3    H153173   1.988   1.863   1.802  1.3496 -0.6337 -0.5510
10586TIP3    H253174   2.130   1.893   1.842  0.9084 -0.6952  1.1294
10587TIP3   OH253175   5.045   3.348   4.651  0.4216 -0.4027  0.0288
10587TIP3    H153176   4.951   3.351   4.669 -0.1659 -1.6326 -2.3609
10587TIP3    H253177   5.081   3.289   4.717 -0.7313 -1.0122  0.1370
10588TIP3   OH253178   3.523   4.676  14.428  0.1620  0.3303  0.1441
10588TIP3    H153179   3.441   4.639  14.397 -0.1236  2.4257 -1.9274
10588TIP3    H253180   3.499   4.724  14.508  0.0077 -1.4922  1.2317
10589TIP3   OH253181   2.992   1.508  15.279  0.4720 -0.3818  0.4257
10589TIP3    H153182   2.983   1.548  15.366  0.8656 -2.7843  1.6492
10589TIP3    H253183   3.070   1.453  15.286  1.5566  0.6742 -2.0521
10590TIP3   OH253184   6.415   4.918   1.230  0.3812  0.1655 -0.2676
10590TIP3    H153185   6.460   4.883   1.308 -0.0867  1.4812  0.6188
10590TIP3    H253186   6.478   4.979   1.192 -0.2335  1.2390  0.3930
10591TIP3   OH253187   1.425   3.776   3.090 -0.1456 -0.5376  0.5410
10591TIP3    H153188   1.343   3.726   3.098 -0.0959 -0.5358  1.1375
10591TIP3    H253189   1.437   3.788   2.996 -1.7642  0.9686  0.4804
10592TIP3   OH253190   5.691   4.839   6.251  0.5447 -0.7817  0.1797
10592TIP3    H153191   5.656   4.770   6.308  0.2482 -0.4147  0.4479
10592TIP3    H253192   5.692   4.800   6.164 -2.1281 -0.3119 -0.1683
10593TIP3   OH253193   1.610   5.877  12.184  0.2763  0.4398 -0.5928
10593TIP3    H153194   1.630   5.966  12.212  0.2528  0.9437 -2.1032
10593TIP3    H253195   1.677   5.856  12.120 -0.1727 -0.3437 -0.8151
10594TIP3   OH253196   2.388   6.104   1.369 -0.5656  0.1728 -0.3693
10594TIP3    H153197   2.469   6.061   1.396 -0.9407 -0.0010  0.5105
10594TIP3    H253198   2.416   6.169   1.305  0.1004 -0.8215 -1.1224
10595TIP3   OH253199   0.959   3.802  15.962  0.2412 -0.2611  0.3352
10595TIP3    H153200   0.947   3.710  15.936  0.0867  0.0171 -0.6201
10595TIP3    H253201   1.053   3.816  15.959  0.2204 -0.2006 -0.2365
10596TIP3   OH253202   0.899   1.340   4.146 -0.0523 -0.0462 -0.4299
10596TIP3    H153203   0.861   1.264   4.190 -0.8115 -0.6383 -2.0359
10596TIP3    H253204   0.931   1.395   4.217  0.0331 -1.6066  0.7986
10597TIP3   OH253205   4.643   6.674  13.274 -0.1045 -0.2750 -0.0549
10597TIP3    H153206   4.554   6.642  13.289 -0.4910  0.3217 -0.9341
10597TIP3    H253207   4.680   6.686  13.361 -0.2445 -2.2240  0.3153
10598TIP3   OH253208   1.480   5.517   0.159 -0.4951 -0.0539  0.3077
10598TIP3    H153209   1.569   5.484   0.170 -0.5115  0.2504  1.5108
10598TIP3    H253210   1.426   5.438   0.154 -0.0855 -0.2611 -1.3487
10599TIP3   OH253211   3.422   1.986  17.138 -0.2646 -0.1789 -0.0898
10599TIP3    H153212   3.479   1.916  17.170 -1.1050 -0.0644  1.7977
10599TIP3    H253213   3.395   2.033  17.217 -2.1509  0.3886 -1.0139
10600TIP3   OH253214   3.940   3.258  11.502 -0.3449 -0.1023  0.8647
10600TIP3    H153215   3.971   3.325  11.440 -0.4028 -0.0291  0.9141
10600TIP3    H253216   4.003   3.262  11.575  0.5436 -1.1548  0.1843
10601TIP3   OH253217   1.487   1.468   3.364  0.2744 -0.1929 -0.1251
10601TIP3    H153218   1.398   1.496   3.343  0.0517 -0.4865  0.4123
10601TIP3    H253219   1.514   1.416   3.289 -0.1214 -0.3603 -0.1506
10602TIP3   OH253220   6.391   3.458  16.003  0.2826 -0.2730 -0.1169
10602TIP3    H153221   6.358   3.382  15.955 -0.6419  0.6355 -0.9960
10602TIP3    H253222   6.484   3.464  15.980  1.2009 -2.8620  2.3681
10603TIP3   OH253223   1.006   2.556  12.686  0.1583 -0.7988  0.4277
10603TIP3    H153224   1.030   2.517  12.770  2.2476 -0.2258  0.1590
10603TIP3    H253225   1.062   2.510  12.622  2.2945  2.0646  0.0269
10604TIP3   OH253226   4.020   5.292  11.015 -0.2541 -0.1550 -0.4384
10604TIP3    H153227   4.083   5.346  10.967 -0.9742  1.8994  0.7867
10604TIP3    H253228   4.074   5.228  11.061  1.0435  1.6959  0.7618
10605TIP3   OH253229   3.405   0.312  15.606 -0.2170 -0.1564 -0.0994
10605TIP3    H153230   3.426   0.350  15.521  0.3123  0.9096  0.4913
10605TIP3    H253231   3.458   0.361  15.669 -0.7559 -0.7803  0.8799
10606TIP3   OH253232   5.204   4.827  14.885 -0.0973 -0.5510  0.2709
10606TIP3    H153233   5.215   4.733  14.876  0.3684 -0.4774 -0.0228
10606TIP3    H253234   5.129   4.849  14.830  1.2143 -0.4504 -1.5806
10607TIP3   OH253235   0.948   5.491   3.536  0.0743  0.6009 -0.1754
10607TIP3    H153236   1.024   5.527   3.581  1.1653 -1.7126 -0.0743
10607TIP3    H253237   0.913   5.425   3.596  0.5614 -1.3603 -1.9272
10608TIP3   OH253238   1.554   4.615   3.200 -0.1531 -0.2337  0.4267
10608TIP3    H153239   1.539   4.530   3.241  1.5543 -1.0634 -0.5470
10608TIP3    H253240   1.512   4.607   3.114  0.9408 -0.5378 -0.1031
10609TIP3   OH253241   2.648   0.685  12.849  0.1127  0.4113 -0.1745
10609TIP3    H153242   2.552   0.683  12.844  0.1204  1.6128 -1.3316
10609TIP3    H253243   2.672   0.767  12.806  1.4990  1.7516  2.8274
10610TIP3   OH253244   2.127   5.803  10.812  0.1238 -0.4905 -0.0284
10610TIP3    H153245   2.037   5.779  10.836  0.0786 -1.2825 -0.9243
10610TIP3    H253246   2.181   5.733  10.847  0.1393 -1.2259 -1.4364
10611TIP3   OH253247   0.151   3.905   4.814 -0.0943 -0.4435  0.4674
10611TIP3    H153248   0.192   3.989   4.793  2.3583 -2.1056 -2.1582
10611TIP3    H253249   0.210   3.865   4.878 -2.9898  0.9801  4.4202
10612TIP3   OH253250   4.889   4.047  11.555 -0.0355 -0.0273 -0.2321
10612TIP3    H153251   4.851   4.056  11.642 -1.0733  0.9504 -0.7618
10612TIP3    H253252   4.949   3.972  11.562 -1.1521 -0.8470  0.9530
10613TIP3   OH253253   6.650   2.156   2.714 -0.1884 -0.6560 -0.3813
10613TIP3    H153254   6.639   2.250   2.702  1.9183 -0.4954 -1.5615
10613TIP3    H253255   6.639   2.119   2.626 -0.8005 -1.5107  0.0341
10614TIP3   OH253256   4.961   0.082  12.959  0.1774  0.7361 -0.0882
10614TIP3    H153257   4.940   0.012  13.021  0.4155  0.1231 -0.6828
10614TIP3    H253258   5.014   0.039  12.892 -0.0105  1.4043 -0.6788
10615TIP3   OH253259   5.489   4.555   2.256 -0.4540  0.3133 -0.1808
10615TIP3    H153260   5.577   4.534   2.286 -0.5151 -0.2848 -0.4102
10615TIP3    H253261   5.446   4.594   2.333 -0.7585 -1.6173  0.6835
10616TIP3   OH253262   4.532   3.941  14.466 -0.2773 -0.2229  0.3655
10616TIP3    H153263   4.440   3.932  14.441 -0.2379  0.9077 -0.2745
10616TIP3    H253264   4.534   3.916  14.558 -1.4289  0.7590  0.6837
10617TIP3   OH253265   6.455   5.861  12.970  0.1520  0.0194  0.1197
10617TIP3    H153266   6.543   5.898  12.959  0.4762 -0.2930  1.5099
10617TIP3    H253267   6.469   5.767  12.982 -0.3761 -0.0312  0.3824
10618TIP3   OH253268   6.409   5.699   0.727 -0.4435  0.1851  0.1300
10618TIP3    H153269   6.448   5.739   0.805 -0.1886  0.5711 -0.1883
10618TIP3    H253270   6.471   5.719   0.656 -0.8949  0.2386 -0.2576
10619TIP3   OH253271   0.384   2.785   3.584 -0.0279 -0.5796 -0.2851
10619TIP3    H153272   0.426   2.854   3.532 -0.4304 -0.1074  0.0038
10619TIP3    H253273   0.391   2.707   3.529  0.2349 -0.2608 -0.7192
10620TIP3   OH253274   5.472   0.079  13.793 -0.1402  0.1241 -0.1107
10620TIP3    H153275   5.394   0.039  13.754  0.5746 -0.8002 -0.6104
10620TIP3    H253276   5.446   0.170  13.810 -0.7018  0.3860 -2.1001
10621TIP3   OH253277   0.978   0.312  12.087  0.3377  0.0371 -0.3458
10621TIP3    H153278   0.896   0.362  12.084 -0.7343 -1.6771 -1.1816
10621TIP3    H253279   1.006   0.306  11.996 -0.2513 -1.9043 -0.4443
10622TIP3   OH253280   5.525   1.705  12.720 -0.7567  0.4207  0.0574
10622TIP3    H153281   5.567   1.632  12.765  0.7341  1.4353  0.3639
10622TIP3    H253282   5.490   1.759  12.791  0.5164  1.3807 -0.0116
10623TIP3   OH253283   4.526   2.732  10.918 -0.1970 -0.3363  0.0496
10623TIP3    H153284   4.456   2.707  10.858 -0.3571 -1.0067  0.5035
10623TIP3    H253285   4.540   2.654  10.972 -0.3946  0.3910  1.1990
10624TIP3   OH253286   2.266   1.324   1.897 -0.2227  0.7983  0.0405
10624TIP3    H153287   2.207   1.250   1.882  0.4819  0.3889 -0.8421
10624TIP3    H253288   2.217   1.400   1.865  0.4953  0.1899 -2.8571
10625TIP3   OH253289   0.484   3.899   0.430 -0.1717  0.4026 -0.3929
10625TIP3    H153290   0.534   3.980   0.433 -0.6986  0.8301 -2.2842
10625TIP3    H253291   0.523   3.848   0.359 -1.4057  0.0631 -0.8521
10626TIP3   OH253292   2.914   0.150  10.950  0.2864  0.3942  0.1738
10626TIP3    H153293   2.999   0.107  10.940  0.1064  0.1066 -0.1380
10626TIP3    H253294   2.865   0.125  10.872  0.0998  0.9868  0.0984
10627TIP3   OH253295   0.127   3.184   5.567  0.4808 -0.1829  0.3868
10627TIP3    H153296   0.041   3.141   5.569  0.6094 -0.4281  0.5536
10627TIP3    H253297   0.173   3.151   5.644  0.7292 -0.0538  0.2945
10628TIP3   OH253298   3.717   3.136   0.997 -0.1706  0.3695  0.3812
10628TIP3    H153299   3.737   3.088   1.077  0.2876  2.3414  1.5090
10628TIP3    H253300   3.646   3.086   0.956 -1.1096 -0.1640  2.5373
10629TIP3   OH253301   6.382   1.228  12.614 -0.5097  0.0903  0.0303
10629TIP3    H153302   6.456   1.280  12.644 -1.1553 -0.3823  2.7031
10629TIP3    H253303   6.408   1.197  12.527  3.1726 -1.3866  1.4721
10630TIP3   OH253304   0.271   1.349   1.526 -0.3812  0.2857 -0.1117
10630TIP3    H153305   0.181   1.337   1.557 -0.3513  0.1198 -0.0843
10630TIP3    H253306   0.288   1.271   1.473 -0.4075  0.5369 -0.4899
10631TIP3   OH253307   5.721   2.790   3.598  0.3557  0.0212  0.0638
10631TIP3    H153308   5.800   2.808   3.648  0.2815  0.3323  0.0714
10631TIP3    H253309   5.656   2.850   3.634 -0.8322 -2.4028  2.3223
10632TIP3   OH253310   6.589   6.026   2.582 -0.5297  0.2355  0.4632
10632TIP3    H153311   6.541   5.964   2.636 -0.1543  0.6287  1.2520
10632TIP3    H253312   6.525   6.092   2.557 -1.0369 -0.6648 -0.7270
10633TIP3   OH253313   3.379   3.160   4.963 -0.1649  0.4995 -0.7086
10633TIP3    H153314   3.446   3.115   5.015 -0.7095  0.5751  0.0946
10633TIP3    H253315   3.426   3.230   4.918  0.4123  0.1251 -0.7047
10634TIP3   OH253316   4.715   6.204   4.427  0.1672  0.4455 -0.1968
10634TIP3    H153317   4.626   6.221   4.396  0.1944 -1.6561 -1.6703
10634TIP3    H253318   4.768   6.273   4.387 -0.2170 -0.7093 -2.9381
10635TIP3   OH253319   2.404   4.154  14.401  0.7671 -0.0821  0.0438
10635TIP3    H153320   2.475   4.127  14.343  0.5311 -0.7568  0.0581
10635TIP3    H253321   2.444   4.157  14.488  1.4361  2.1143 -0.2650
10636TIP3   OH253322   3.753   4.112  12.234  0.7625  0.6566 -0.4599
10636TIP3    H153323   3.838   4.083  12.200  0.0598 -1.1053 -0.8445
10636TIP3    H253324   3.747   4.204  12.210  2.8785  1.0141  0.2498
10637TIP3   OH253325   2.195   6.014  13.375 -0.2760  0.1002  0.2202
10637TIP3    H153326   2.101   6.025  13.390 -0.3176 -0.9019  0.7889
10637TIP3    H253327   2.211   6.058  13.291 -1.0683  1.0794  0.5537
10638TIP3   OH253328   4.786   2.742  11.555 -0.1387 -0.1000  0.1793
10638TIP3    H153329   4.831   2.756  11.638  0.1641 -2.3864  0.4475
10638TIP3    H253330   4.814   2.816  11.501  0.5955  0.7881  1.6970
10639TIP3   OH253331   3.371   5.816   0.772 -0.2129  0.1894 -0.1697
10639TIP3    H153332   3.387   5.723   0.760  0.3579  0.4021 -1.2070
10639TIP3    H253333   3.279   5.822   0.797  0.1438 -0.7541  1.5166
10640TIP3   OH253334   0.859   1.748  15.340  0.1589 -0.1725 -0.2668
10640TIP3    H153335   0.822   1.809  15.277  1.9536  0.9704 -0.2987
10640TIP3    H253336   0.945   1.726  15.303  0.4936 -0.9071  0.9029
10641TIP3   OH253337   3.599   4.993   3.007 -0.0745 -0.2304  0.1102
10641TIP3    H153338   3.517   4.975   2.960  0.1815  3.7666 -2.3930
10641TIP3    H253339   3.577   5.065   3.066  0.9983 -1.3391  1.9501
10642TIP3   OH253340   6.783   3.844  15.021  0.2965  0.0462 -0.2324
10642TIP3    H153341   6.694   3.833  14.987  0.0879  1.9189 -0.3940
10642TIP3    H253342   6.772   3.896  15.101  1.2892  0.9564 -0.6632
10643TIP3   OH253343   0.412   1.561   2.749  0.2351 -0.3531  0.0517
10643TIP3    H153344   0.472   1.525   2.815  1.5861  2.2487  0.3699
10643TIP3    H253345   0.328   1.565   2.794  1.1079  1.2822  1.7083
10644TIP3   OH253346   2.727   2.449   1.402 -0.6403  0.3012  0.3701
10644TIP3    H153347   2.776   2.525   1.368  1.1837 -1.6926 -1.7757
10644TIP3    H253348   2.659   2.434   1.337 -1.7599  0.7565  1.4074
10645TIP3   OH253349   4.992   4.550   4.541  0.2892 -0.2654 -0.6322
10645TIP3    H153350   4.935   4.480   4.573  1.7434 -0.6994  1.1824
10645TIP3    H253351   5.057   4.504   4.488  0.1506 -0.0265 -1.0145
10646TIP3   OH253352   1.243   5.414  12.890  0.1868  0.2888  0.0421
10646TIP3    H153353   1.296   5.336  12.905 -0.0348  0.2839  0.8450
10646TIP3    H253354   1.161   5.381  12.853  0.6662  0.2830 -1.0529
10647TIP3   OH253355   4.295   4.268  12.887 -0.6373  0.4550 -0.1093
10647TIP3    H153356   4.310   4.173  12.885 -2.2585  0.1060  1.0585
10647TIP3    H253357   4.211   4.277  12.933 -0.7757  2.4399 -0.6587
10648TIP3   OH253358   0.659   4.547   0.647 -0.3076  0.5711  0.0668
10648TIP3    H153359   0.681   4.587   0.731 -2.2788  1.8187  0.0458
10648TIP3    H253360   0.574   4.506   0.661 -0.7174  0.8779 -1.3425
10649TIP3   OH253361   1.852   3.762  11.534 -0.5762 -0.3175 -0.0227
10649TIP3    H153362   1.848   3.672  11.567 -1.0685  0.1933  1.3686
10649TIP3    H253363   1.806   3.814  11.600 -1.3422  0.8071 -1.3925
10650TIP3   OH253364   5.998   1.129   3.380 -0.5146 -0.1658  0.0674
10650TIP3    H153365   6.078   1.180   3.392  0.3010 -1.6671  1.2820
10650TIP3    H253366   6.014   1.079   3.300  1.0980 -2.6849  1.8167
10651TIP3   OH253367   4.144   6.585   2.510 -0.3591  0.2614  0.3384
10651TIP3    H153368   4.187   6.624   2.434 -1.3792 -1.7604 -1.3552
10651TIP3    H253369   4.052   6.610   2.501 -0.1866  1.8803  2.2142
10652TIP3   OH253370   0.261   4.182   1.114 -0.1200 -0.3175  0.0976
10652TIP3    H153371   0.234   4.273   1.129  0.0463 -0.2466 -0.0268
10652TIP3    H253372   0.302   4.156   1.197 -0.2286 -0.3002  0.1567
10653TIP3   OH253373   3.464   5.649  15.444 -0.2074  0.3487 -0.4180
10653TIP3    H153374   3.377   5.623  15.413  0.4643 -0.4806 -1.7587
10653TIP3    H253375   3.506   5.566  15.467 -0.7822  0.9364  3.3101
10654TIP3   OH253376   1.609   3.348  11.423  0.0415  0.5316  0.2858
10654TIP3    H153377   1.634   3.309  11.507 -0.1312 -1.6659 -0.6103
10654TIP3    H253378   1.544   3.287  11.387  0.5021  1.1284 -1.6801
10655TIP3   OH253379   3.528   3.154  12.226  0.3360 -0.2211  0.3653
10655TIP3    H153380   3.460   3.222  12.223  0.9559  0.3680 -1.0153
10655TIP3    H253381   3.479   3.072  12.218 -0.2651  0.1673 -0.0680
10656TIP3   OH253382   5.644   4.934   1.170 -0.1303  0.0646 -0.7883
10656TIP3    H153383   5.624   4.908   1.260  0.3052  0.1075 -0.6732
10656TIP3    H253384   5.713   5.000   1.179 -0.8381  0.8626 -1.1047
10657TIP3   OH253385   1.838   3.047  15.349 -0.5565  0.1330  0.4973
10657TIP3    H153386   1.801   3.072  15.264 -1.2856 -0.8881  0.4901
10657TIP3    H253387   1.833   2.951  15.350  1.8038 -0.0668  0.6463
10658TIP3   OH253388   5.142   3.981   6.349  0.3054  0.2249  0.0158
10658TIP3    H153389   5.209   4.049   6.344 -0.0289  0.5630  0.0806
10658TIP3    H253390   5.071   4.020   6.400  0.7883 -0.7547  1.5041
10659TIP3   OH253391   6.723   1.636   2.027 -0.2157 -0.0124  0.0279
10659TIP3    H153392   6.737   1.558   2.081  1.5284  0.5307  0.4405
10659TIP3    H253393   6.629   1.653   2.033 -0.5211 -1.6355  0.5214
10660TIP3   OH253394   2.717   6.683  15.995 -0.2290  0.3293  0.3640
10660TIP3    H153395   2.648   6.620  16.016 -0.1925 -0.2931 -1.2695
10660TIP3    H253396   2.682   6.767  16.024 -0.8005 -0.2567  1.4452
10661TIP3   OH253397   6.062   4.060   0.025  0.8693 -0.7968 -0.0107
10661TIP3    H153398   6.076   4.102  -0.060 -0.8656 -0.3210 -0.0914
10661TIP3    H253399   6.139   4.083   0.077  1.1851  0.2583 -0.9280
10662TIP3   OH253400   2.698   5.677  13.360  0.4765  0.2219  0.1880
10662TIP3    H153401   2.774   5.734  13.365 -0.7523  1.9380  0.3298
10662TIP3    H253402   2.635   5.725  13.306 -0.7842 -0.7858  0.6917
10663TIP3   OH253403   2.831   2.147   1.776  0.3867 -0.6587 -0.1767
10663TIP3    H153404   2.767   2.178   1.840 -0.3534  0.1868 -1.2963
10663TIP3    H253405   2.848   2.222   1.720  1.6052 -1.1686 -0.5231
10664TIP3   OH253406   3.898   2.068   0.747  0.7106 -1.2523  0.5228
10664TIP3    H153407   3.820   2.086   0.799  1.5899 -0.1412  1.5497
10664TIP3    H253408   3.969   2.066   0.811  2.3985  3.5341 -0.7487
10665TIP3   OH253409   5.191   4.575  12.673  0.3488  0.1190 -0.4568
10665TIP3    H153410   5.246   4.652  12.685  1.0429  0.0318 -2.6295
10665TIP3    H253411   5.250   4.508  12.641 -0.8080 -0.3011 -1.8137
10666TIP3   OH253412   5.051   3.869  16.831  0.3535 -0.0065  0.1445
10666TIP3    H153413   5.032   3.777  16.847  0.1224  0.3607  2.3022
10666TIP3    H253414   5.103   3.897  16.906 -0.0153  1.7428 -0.1990
10667TIP3   OH253415   2.686   3.157   5.437 -0.1146  0.0799  0.7536
10667TIP3    H153416   2.768   3.186   5.396 -0.0787 -1.5325 -0.4207
10667TIP3    H253417   2.637   3.237   5.450  1.8520  1.1657  1.9960
10668TIP3   OH253418   2.737   1.658   3.557 -0.0580  0.1874 -0.0980
10668TIP3    H153419   2.770   1.740   3.522 -1.2308  0.0303 -1.7107
10668TIP3    H253420   2.643   1.673   3.569 -0.1165 -0.6061  0.5137
10669TIP3   OH253421   5.713   5.118   6.253 -0.3140  0.2437 -0.3040
10669TIP3    H153422   5.805   5.143   6.251  0.0983 -0.9351  1.5853
10669TIP3    H253423   5.712   5.030   6.291 -2.2361  0.2974 -0.1115
10670TIP3   OH253424   1.774   2.082  10.842  0.3145 -0.4195  0.0849
10670TIP3    H153425   1.759   1.995  10.877  0.3626 -0.1731  0.7413
10670TIP3    H253426   1.855   2.075  10.791  1.1897 -0.4225  1.4139
10671TIP3   OH253427   1.967   2.419  15.263 -0.0189 -0.3775 -0.0409
10671TIP3    H153428   1.953   2.460  15.178  0.1531 -0.9572 -0.3546
10671TIP3    H253429   1.883   2.379  15.285  0.3671 -1.6266 -0.7135
10672TIP3   OH253430   5.908   1.868   5.405 -0.0154  0.6319  0.2233
10672TIP3    H153431   5.846   1.801   5.434 -0.4673  0.1054 -1.7793
10672TIP3    H253432   5.855   1.930   5.355  0.5801  1.9462  1.1595
10673TIP3   OH253433   6.051   1.242  13.309  0.1181 -0.0025  1.0290
10673TIP3    H153434   5.993   1.312  13.280  1.8791  1.2084  0.2675
10673TIP3    H253435   6.024   1.224  13.399 -0.9843  0.9944  0.9130
10674TIP3   OH253436   0.430   5.542   5.634  0.1013 -0.3987 -0.1436
10674TIP3    H153437   0.478   5.555   5.553 -0.1692  0.7858 -0.1406
10674TIP3    H253438   0.482   5.589   5.700 -1.2350  1.3194 -0.2302
10675TIP3   OH253439   4.998   0.402   0.438  0.1056 -0.1241 -0.3724
10675TIP3    H153440   4.946   0.335   0.483  2.2351 -1.2148  0.6297
10675TIP3    H253441   4.995   0.478   0.497  2.2803 -1.3052  1.4300
10676TIP3   OH253442   2.033   5.596  11.143  0.6321 -0.1811 -0.2450
10676TIP3    H153443   2.120   5.574  11.109  0.4565 -2.3046  0.5144
10676TIP3    H253444   1.974   5.579  11.069  0.5960 -1.6136  0.0754
10677TIP3   OH253445   5.812   2.030  11.074  0.5962  0.2132 -0.6930
10677TIP3    H153446   5.784   1.998  10.988 -0.9349 -0.1117 -0.1001
10677TIP3    H253447   5.857   1.956  11.114 -1.9121 -0.9292  0.2072
10678TIP3   OH253448   1.703   4.326   5.250 -0.2607 -0.4147  0.1601
10678TIP3    H153449   1.773   4.351   5.310 -1.5639  0.7386  1.2716
10678TIP3    H253450   1.627   4.313   5.306 -1.6554  1.2057 -1.2394
10679TIP3   OH253451   5.653   1.259   2.569  0.5060  0.2248 -0.1386
10679TIP3    H153452   5.589   1.331   2.567 -1.2052 -1.2166 -0.0316
10679TIP3    H253453   5.738   1.303   2.568 -0.4216  2.2141 -2.2026
10680TIP3   OH253454   5.306   6.517   4.665 -0.1517 -0.1944 -0.0385
10680TIP3    H153455   5.329   6.499   4.756  0.9925 -1.9883 -0.6138
10680TIP3    H253456   5.370   6.582   4.636  0.7445 -1.0703 -0.0797
10681TIP3   OH253457   2.185   5.047   4.348  0.3824  0.4454 -0.4577
10681TIP3    H153458   2.265   5.007   4.313  0.9974  0.3570  0.9987
10681TIP3    H253459   2.215   5.099   4.422 -1.0847 -0.8081  1.0936
10682TIP3   OH253460   3.553   6.594  14.941  0.7314 -0.2554 -0.2666
10682TIP3    H153461   3.631   6.640  14.910 -0.1362  0.6223 -1.2299
10682TIP3    H253462   3.533   6.633  15.026  0.2122  0.9334 -0.9118
10683TIP3   OH253463   3.779   0.853   5.122 -0.1264 -0.4459  0.0455
10683TIP3    H153464   3.703   0.906   5.099  1.2915  1.4249 -0.6153
10683TIP3    H253465   3.775   0.844   5.217 -0.3412  0.9950  0.1862
10684TIP3   OH253466   5.672   5.646   0.051  0.0131  0.8884 -0.4961
10684TIP3    H153467   5.723   5.581   0.099  1.4856  2.1978 -0.2064
10684TIP3    H253468   5.581   5.620   0.065  0.5525 -1.0961 -0.4199
10685TIP3   OH253469   3.216   1.970   3.779  0.5642  0.1719 -0.1087
10685TIP3    H153470   3.301   1.964   3.735 -0.5156  1.3094 -2.5691
10685TIP3    H253471   3.195   1.880   3.803  1.4944 -0.4555 -1.4847
10686TIP3   OH253472   2.706   2.464  13.633 -0.2229  0.0854 -0.5025
10686TIP3    H153473   2.774   2.399  13.612  0.0193  1.0523 -2.9384
10686TIP3    H253474   2.633   2.443  13.575 -0.2254  1.8142 -1.1764
10687TIP3   OH253475   5.473   4.864   3.004  0.2883  0.1299  0.1624
10687TIP3    H153476   5.416   4.939   2.991 -0.9345 -1.2420 -3.5567
10687TIP3    H253477   5.537   4.869   2.933  1.9147 -0.9119  1.4670
10688TIP3   OH253478   2.706   6.118  12.964 -0.6941  0.1333  0.1991
10688TIP3    H153479   2.635   6.120  13.029 -0.7834  0.6963  0.0917
10688TIP3    H253480   2.671   6.066  12.892 -1.1733  0.7863 -0.0475
10689TIP3   OH253481   0.469   1.426   0.454 -0.4352 -0.1917  0.0421
10689TIP3    H153482   0.525   1.378   0.516 -0.8342 -0.7463 -0.0188
10689TIP3    H253483   0.495   1.392   0.368 -0.8569 -0.4405  0.0131
10690TIP3   OH253484   3.736   5.154   1.817 -0.3802 -0.1096  0.3731
10690TIP3    H153485   3.790   5.136   1.894 -0.1173 -1.6906 -0.1535
10690TIP3    H253486   3.669   5.086   1.818 -0.7598  0.2354 -0.4541
10691TIP3   OH253487   1.416   1.964  14.835  0.1234 -0.1215  0.0598
10691TIP3    H153488   1.362   1.995  14.907 -0.3189 -0.2699 -0.2030
10691TIP3    H253489   1.420   2.037  14.774  0.4859 -0.0008  0.2261
10692TIP3   OH253490   4.781   2.521   0.009  0.0500  0.4745 -0.2688
10692TIP3    H153491   4.876   2.521  -0.002  0.1504 -0.4292  0.4692
10692TIP3    H253492   4.761   2.435   0.045 -0.9878  0.8691  0.1454
10693TIP3   OH253493   2.382   3.279   4.381 -0.0697  0.1113 -0.1088
10693TIP3    H153494   2.330   3.354   4.352  2.4435  2.1185  0.1842
10693TIP3    H253495   2.437   3.314   4.450  1.5583 -1.9036 -0.2996
10694TIP3   OH253496   0.853   4.845   3.374 -0.1788 -0.3654 -0.3369
10694TIP3    H153497   0.892   4.759   3.362  0.6114 -0.1753  0.7136
10694TIP3    H253498   0.792   4.855   3.300  0.8605 -1.1772 -1.3403
10695TIP3   OH253499   6.473   3.958  16.108 -0.0298  0.3031 -0.0644
10695TIP3    H153500   6.501   3.948  16.200  1.4773 -2.8332 -0.7370
10695TIP3    H253501   6.380   3.935  16.109  0.2926 -1.0726  0.5121
10696TIP3   OH253502   0.258   5.812   0.815 -0.3149  0.7504 -0.5052
10696TIP3    H153503   0.294   5.726   0.792 -1.7488  0.2642 -1.0678
10696TIP3    H253504   0.322   5.850   0.875  1.5495  0.3059 -2.0997
10697TIP3   OH253505   6.767   5.455   6.090 -0.4578  0.1864 -0.7546
10697TIP3    H153506   6.857   5.457   6.122 -0.0683  0.5187 -1.8189
10697TIP3    H253507   6.737   5.546   6.096 -0.1769  0.3628 -1.8490
10698TIP3   OH253508   2.455   3.836  15.384 -0.5120  0.2567  0.0187
10698TIP3    H153509   2.497   3.817  15.299 -0.7719 -1.1646  0.1887
10698TIP3    H253510   2.378   3.888  15.361 -0.5661 -0.0913 -0.6334
10699TIP3   OH253511   2.247   5.635   5.620 -0.9662 -0.2008 -0.1435
10699TIP3    H153512   2.223   5.720   5.583 -1.0865  0.1943  0.8200
10699TIP3    H253513   2.265   5.580   5.543 -1.9319  0.3798 -0.8175
10700TIP3   OH253514   0.464   1.908  12.473 -0.3668  0.3231  0.2694
10700TIP3    H153515   0.539   1.855  12.445 -1.2602 -1.1657  0.5701
10700TIP3    H253516   0.407   1.846  12.520 -0.9644  1.7929  1.5700
10701TIP3   OH253517   2.590   6.089   3.893  0.1377  0.0370 -0.6306
10701TIP3    H153518   2.589   6.011   3.836  0.5393 -0.1515 -0.3816
10701TIP3    H253519   2.656   6.069   3.959 -0.4131  0.2007 -0.0175
10702TIP3   OH253520   3.152   2.014  14.326  0.0020 -0.3380 -0.9312
10702TIP3    H153521   3.150   2.096  14.375 -1.4458  0.1428 -1.7638
10702TIP3    H253522   3.136   1.946  14.392 -1.1926  0.2467 -0.5989
10703TIP3   OH253523   2.903   0.753  13.147 -0.5792 -0.8965  0.2384
10703TIP3    H153524   2.870   0.738  13.058 -1.4184 -0.2457  0.4276
10703TIP3    H253525   2.891   0.847  13.161 -0.1353 -0.9378  0.9149
10704TIP3   OH253526   4.922   0.145   3.623 -0.0091  0.2744  0.1469
10704TIP3    H153527   4.937   0.188   3.707  0.0824 -1.6141  1.1535
10704TIP3    H253528   5.007   0.105   3.601 -0.6372 -1.2607  0.3952
10705TIP3   OH253529   2.273   3.110   0.898  0.6112  0.3834  0.0622
10705TIP3    H153530   2.272   3.023   0.858 -2.2570  0.8110 -1.0963
10705TIP3    H253531   2.310   3.167   0.830 -1.8715  0.6999 -1.1564
10706TIP3   OH253532   4.748   2.561  10.394  0.0460  0.1548 -0.0793
10706TIP3    H153533   4.756   2.476  10.438 -0.0910  0.4066  0.4292
10706TIP3    H253534   4.820   2.613  10.428  0.4177  0.0942 -0.7491
10707TIP3   OH253535   5.178   1.553  13.725 -0.9627  0.7788 -0.4094
10707TIP3    H153536   5.162   1.546  13.631 -1.1307 -1.9026 -0.2627
10707TIP3    H253537   5.091   1.557  13.764 -1.2235 -2.8091 -0.2281
10708TIP3   OH253538   6.723   6.477   0.280  0.4257  0.3217  0.6922
10708TIP3    H153539   6.683   6.411   0.223  0.7648  0.2016  0.5929
10708TIP3    H253540   6.674   6.470   0.362  0.7190 -0.3325  0.8163
10709TIP3   OH253541   0.133   4.660  15.300  0.1069 -0.6078  0.3424
10709TIP3    H153542   0.059   4.616  15.342  0.8377 -2.4415 -0.1822
10709TIP3    H253543   0.208   4.640  15.357  0.1484  1.7509  1.2147
10710TIP3   OH253544   4.420   4.500  16.628 -0.0340  0.3638  0.3257
10710TIP3    H153545   4.421   4.521  16.722 -1.7400 -0.0239  0.4594
10710TIP3    H253546   4.485   4.431  16.619  2.6714  2.6912  0.5727
10711TIP3   OH253547   3.955   0.544   1.644 -0.2398 -0.8511  0.1649
10711TIP3    H153548   4.049   0.559   1.632 -0.1540 -1.7948 -0.4455
10711TIP3    H253549   3.939   0.568   1.735  0.6691 -0.9926  0.3824
10712TIP3   OH253550   4.070   4.513  11.459 -0.3697 -0.5484 -0.1954
10712TIP3    H153551   4.065   4.459  11.538  0.9026 -0.6040 -0.1398
10712TIP3    H253552   4.141   4.475  11.408 -1.1250 -0.4617 -1.3470
10713TIP3   OH253553   5.354   0.237  15.705 -0.0086 -0.1697 -0.3372
10713TIP3    H153554   5.419   0.308  15.705  1.0094 -0.9914 -2.5402
10713TIP3    H253555   5.371   0.189  15.786 -0.0001  1.4310  0.6592
10714TIP3   OH253556   2.147   5.039   0.219  0.0447 -0.4018  0.8266
10714TIP3    H153557   2.074   4.980   0.203  1.4644 -2.5077  1.7128
10714TIP3    H253558   2.149   5.050   0.314  0.1933  0.5552  0.7191
10715TIP3   OH253559   0.140   6.235  13.508 -0.1503 -0.9499 -0.1652
10715TIP3    H153560   0.049   6.207  13.517 -0.3818 -1.0806 -2.2428
10715TIP3    H253561   0.181   6.165  13.457 -0.1963  1.2530 -3.5791
10716TIP3   OH253562   6.125   1.393   5.795 -0.2478  0.4934 -0.2500
10716TIP3    H153563   6.056   1.416   5.857 -0.1978  1.0282 -0.3890
10716TIP3    H253564   6.204   1.389   5.847 -0.4176 -0.3416 -0.0501
10717TIP3   OH253565   2.690   2.122   1.042  0.4172  0.2230 -0.0367
10717TIP3    H153566   2.721   2.035   1.019 -1.6790 -0.3357 -1.0437
10717TIP3    H253567   2.686   2.123   1.138  0.1822 -0.9171 -0.0240
10718TIP3   OH253568   3.351   4.837  12.760 -0.3691 -0.2009 -0.0567
10718TIP3    H153569   3.396   4.882  12.688  0.7786 -0.0230  0.7469
10718TIP3    H253570   3.415   4.775  12.793 -1.0971 -0.7017  0.4405
10719TIP3   OH253571   1.962   3.118  11.021  0.4762 -0.0131  0.0398
10719TIP3    H153572   2.042   3.142  10.973  1.2858  0.4328  1.5528
10719TIP3    H253573   1.940   3.196  11.071 -0.6911 -0.2732 -0.0549
10720TIP3   OH253574   3.790   4.568   4.770  0.1280 -0.0679  0.0877
10720TIP3    H153575   3.712   4.539   4.722 -0.7772  0.8891  0.9456
10720TIP3    H253576   3.765   4.563   4.862  1.0502  0.3584  0.3686
10721TIP3   OH253577   5.918   0.156  12.747  0.4211  0.3730 -0.5058
10721TIP3    H153578   5.936   0.067  12.777 -2.4406 -0.0005  0.4268
10721TIP3    H253579   5.952   0.160  12.658  1.0079 -1.5020 -0.3960
10722TIP3   OH253580   4.201   5.421  13.007 -0.0191 -0.2482 -0.3769
10722TIP3    H153581   4.264   5.364  13.052  1.3234  0.0366 -1.7798
10722TIP3    H253582   4.226   5.509  13.033  0.9163 -0.0644 -1.7413
10723TIP3   OH253583   4.305   2.315  16.595 -0.6481  0.1897  0.6420
10723TIP3    H153584   4.370   2.369  16.639  1.1690  1.0811 -2.7655
10723TIP3    H253585   4.245   2.377  16.555 -1.2092 -0.4988  0.3881
10724TIP3   OH253586   1.413   3.667   1.189  0.9313  0.3777  0.3301
10724TIP3    H153587   1.506   3.657   1.171  0.9399  1.6839 -0.4202
10724TIP3    H253588   1.408   3.681   1.284  1.4115 -0.3831  0.4805
10725TIP3   OH253589   5.810   2.545  16.900  0.5300 -0.4463  0.1772
10725TIP3    H153590   5.845   2.608  16.963 -0.0666 -0.0368  0.1060
10725TIP3    H253591   5.884   2.487  16.880  0.4817 -1.1629  1.9484
10726TIP3   OH253592   0.145   5.500  11.555  0.1014  0.4709  0.7507
10726TIP3    H153593   0.056   5.510  11.588  0.3119  2.3596  0.8619
10726TIP3    H253594   0.138   5.516  11.461 -0.1029 -2.4263  0.1774
10727TIP3   OH253595   0.485   5.313   2.350  0.0013 -0.1158  0.0599
10727TIP3    H153596   0.452   5.402   2.360 -2.1240 -0.9209  0.7551
10727TIP3    H253597   0.417   5.257   2.387  1.6875 -2.0011  0.5240
10728TIP3   OH253598   6.492   3.264   0.149 -0.0795  0.1666  0.0379
10728TIP3    H153599   6.516   3.280   0.058  1.7450 -1.2389  0.2018
10728TIP3    H253600   6.505   3.349   0.192 -1.5507  1.0003 -1.0763
10729TIP3   OH253601   1.387   2.307   2.526 -0.2029  0.0439 -0.3122
10729TIP3    H153602   1.324   2.370   2.492  0.6125  1.2000  0.2922
10729TIP3    H253603   1.414   2.342   2.611  1.0330 -0.5696 -0.4226
10730TIP3   OH253604   2.026   5.115   1.018 -0.4185  0.0066 -0.2704
10730TIP3    H153605   2.093   5.130   1.085 -0.9228 -1.4131  0.6048
10730TIP3    H253606   1.944   5.108   1.067 -0.7966 -1.0785 -1.0298
10731TIP3   OH253607   6.325   1.420   4.022 -0.5654  0.7307  0.0615
10731TIP3    H153608   6.387   1.403   3.952 -0.7327 -0.0056  0.0798
10731TIP3    H253609   6.320   1.515   4.028 -0.6264  0.8023 -0.9916
10732TIP3   OH253610   6.693   3.878  12.542  0.4516  0.1740  0.5498
10732TIP3    H153611   6.687   3.829  12.460 -0.4066  1.2767 -0.0646
10732TIP3    H253612   6.769   3.840  12.587  2.6880  1.3357 -1.9882
10733TIP3   OH253613   6.281   6.033  16.762 -0.4543 -0.8405  0.3138
10733TIP3    H153614   6.186   6.022  16.766 -0.9991  2.8370  1.5320
10733TIP3    H253615   6.293   6.114  16.712  1.9574 -0.5716  1.2309
10734TIP3   OH253616   4.741   3.057   4.999  0.5159  0.0780  0.3379
10734TIP3    H153617   4.689   2.985   4.963 -0.1620  0.8155 -0.2096
10734TIP3    H253618   4.823   3.017   5.026  0.1574 -0.8936  0.0201
10735TIP3   OH253619   5.087   3.554  15.241  0.6067 -0.4857 -0.2458
10735TIP3    H153620   5.003   3.512  15.262  0.2968 -0.0007 -0.4998
10735TIP3    H253621   5.066   3.648  15.236  1.7085 -0.0073  2.5434
10736TIP3   OH253622   6.344   4.760   0.990  0.7811 -0.0191 -0.3565
10736TIP3    H153623   6.297   4.721   1.064  0.2474 -0.2394 -0.8055
10736TIP3    H253624   6.311   4.850   0.985 -0.0329 -0.3387 -1.0209
10737TIP3   OH253625   0.832   5.639   5.759 -0.5607  0.1134  0.5733
10737TIP3    H153626   0.813   5.717   5.707 -2.3666  0.5643  1.8123
10737TIP3    H253627   0.911   5.602   5.719 -0.9954  1.2710 -1.4959
10738TIP3   OH253628   1.274   4.731  16.036  0.2554 -0.4674  0.6221
10738TIP3    H153629   1.293   4.797  16.103  0.4876 -0.4220  0.5135
10738TIP3    H253630   1.180   4.737  16.022  0.5191  1.1847 -0.7864
10739TIP3   OH253631   5.003   4.706  13.356  0.0431  0.3137 -0.3501
10739TIP3    H153632   5.055   4.702  13.276 -0.4382  1.1590 -0.7179
10739TIP3    H253633   5.052   4.652  13.419  0.8431  0.2863 -0.9735
10740TIP3   OH253634   2.003   5.559   1.067 -0.2045 -0.1563  0.7465
10740TIP3    H153635   2.033   5.548   1.157  0.6413 -1.4961  0.3331
10740TIP3    H253636   2.065   5.507   1.015 -0.3632  1.0035 -0.6676
10741TIP3   OH253637   2.159   3.735  17.158 -0.1422  0.0578  0.6138
10741TIP3    H153638   2.247   3.767  17.176  1.0308 -2.7509  0.5168
10741TIP3    H253639   2.125   3.792  17.089  1.4504  1.4215  0.9199
10742TIP3   OH253640   5.356   0.303   5.692  0.1144  0.2919 -0.5395
10742TIP3    H153641   5.403   0.369   5.641  1.8228 -0.1109  0.4632
10742TIP3    H253642   5.402   0.299   5.776  0.2936 -2.3961 -0.6757
10743TIP3   OH253643   4.384   3.005  16.036 -0.2643  0.0522  0.0585
10743TIP3    H153644   4.457   2.944  16.028  2.3892  3.1056 -1.5997
10743TIP3    H253645   4.371   3.015  16.130  2.1058 -0.0419  0.4758
10744TIP3   OH253646   1.826   2.559   2.816 -0.4054  0.0124 -0.4202
10744TIP3    H153647   1.875   2.505   2.754 -1.0154 -0.6324 -0.3660
10744TIP3    H253648   1.887   2.577   2.887  0.3940  1.0131 -1.3352
10745TIP3   OH253649   3.524   3.328   4.815  0.3639  0.1209  0.3996
10745TIP3    H153650   3.618   3.344   4.829  0.7730 -1.2944 -0.4912
10745TIP3    H253651   3.494   3.405   4.767  1.2653  0.2397 -0.0091
10746TIP3   OH253652   5.621   4.868   5.684 -0.0048 -0.6109  0.5566
10746TIP3    H153653   5.579   4.945   5.723  2.0151  0.2759  1.0947
10746TIP3    H253654   5.627   4.889   5.591 -0.2063 -0.4695  0.5745
10747TIP3   OH253655   6.005   1.029   1.985  0.3207 -0.3835 -0.1101
10747TIP3    H153656   6.029   1.036   1.893  2.0786 -2.0713  0.1416
10747TIP3    H253657   5.910   1.016   1.985  0.2085  0.2687 -1.6233
10748TIP3   OH253658   2.215   2.285   3.435 -0.0708 -0.4224  0.2059
10748TIP3    H153659   2.219   2.220   3.365  0.2533 -0.5314  0.3255
10748TIP3    H253660   2.169   2.360   3.395 -1.6548 -1.2026  0.4699
10749TIP3   OH253661   0.904   1.982  15.888 -0.3098 -0.1993 -0.4755
10749TIP3    H153662   0.906   1.947  15.798  0.0324 -0.4942 -0.3574
10749TIP3    H253663   0.814   1.965  15.918 -0.2863 -0.5474 -0.5934
10750TIP3   OH253664   4.805   3.815  17.056  0.1514  0.1976  0.7466
10750TIP3    H153665   4.891   3.774  17.049 -0.2728 -0.5523 -0.3337
10750TIP3    H253666   4.746   3.755  17.011 -0.7297  1.3023  0.3843
10751TIP3   OH253667   1.004   1.556  12.719  0.0464  0.4001 -0.0290
10751TIP3    H153668   0.985   1.464  12.740 -0.6026  0.6842  0.7149
10751TIP3    H253669   1.060   1.553  12.642 -0.7273 -0.5968 -0.5716
10752TIP3   OH253670   3.408   6.292  13.964 -0.1078 -0.2544  0.1886
10752TIP3    H153671   3.497   6.321  13.940 -0.4597  0.2268 -0.5720
10752TIP3    H253672   3.379   6.356  14.030 -0.2838  0.2076 -0.3323
10753TIP3   OH253673   0.096   0.459   0.597  0.3144  0.1314 -0.1945
10753TIP3    H153674   0.187   0.475   0.620  0.2383  0.4488 -0.1093
10753TIP3    H253675   0.099   0.389   0.532  0.6454  0.4311 -0.5030
10754TIP3   OH253676   5.484   1.479   2.548 -0.4762  0.7987  0.1352
10754TIP3    H153677   5.475   1.574   2.545 -0.4076  0.8351  0.9432
10754TIP3    H253678   5.424   1.447   2.480 -0.7334  1.4010  0.0719
10755TIP3   OH253679   3.145   4.927  15.271 -0.1088 -0.1437 -0.0046
10755TIP3    H153680   3.188   4.961  15.193  1.0645 -2.2531 -0.3292
10755TIP3    H253681   3.059   4.898  15.241 -0.0641  0.0078 -0.2818
10756TIP3   OH253682   2.847   4.146   3.615 -0.5308  0.0692  0.3808
10756TIP3    H153683   2.868   4.101   3.533 -0.6259 -0.1170  0.4581
10756TIP3    H253684   2.778   4.092   3.654 -1.7356  1.1052 -0.2541
10757TIP3   OH253685   3.809   5.182  16.771 -0.4517 -0.3749  0.0672
10757TIP3    H153686   3.819   5.089  16.791 -1.4639 -0.4395  0.3215
10757TIP3    H253687   3.787   5.184  16.678 -0.6929 -0.4131  0.1216
10758TIP3   OH253688   2.472   3.461  15.414 -0.2174 -0.8072  0.1641
10758TIP3    H153689   2.531   3.458  15.339 -0.2745 -0.6119  0.1107
10758TIP3    H253690   2.452   3.370  15.433 -0.1868 -0.8573 -0.0470
10759TIP3   OH253691   6.767   3.094   2.487  0.8760 -0.5440 -0.1183
10759TIP3    H153692   6.761   3.047   2.404  0.6333 -0.0161 -0.4033
10759TIP3    H253693   6.845   3.149   2.478 -0.7740  1.7965 -1.2096
10760TIP3   OH253694   0.026   0.598   2.267  0.3488 -0.3409 -0.0798
10760TIP3    H153695   0.027   0.691   2.288 -1.7438 -0.8499  2.8601
10760TIP3    H253696  -0.005   0.555   2.346  0.3784 -3.5027 -1.6031
10761TIP3   OH253697   3.428   2.615   1.358 -0.1654 -0.0382 -0.2690
10761TIP3    H153698   3.468   2.539   1.399  1.1777  0.2228 -1.0257
10761TIP3    H253699   3.499   2.655   1.307 -1.0197  1.3167 -0.4500
10762TIP3   OH253700   0.443   5.784   3.083  0.8931 -0.4878  0.4719
10762TIP3    H153701   0.444   5.837   3.163  0.2204 -1.3024  1.0430
10762TIP3    H253702   0.495   5.707   3.105  0.1049 -1.0590  0.3762
10763TIP3   OH253703   5.168   0.015   3.562  0.2367  0.2018 -0.6940
10763TIP3    H153704   5.122  -0.053   3.513  0.5859  0.9669 -2.1554
10763TIP3    H253705   5.260  -0.013   3.559  0.1463 -0.3111  0.5251
10764TIP3   OH253706   6.430   5.562  13.015 -0.1803  0.2559  0.1831
10764TIP3    H153707   6.520   5.532  13.027  1.0535  3.3458 -0.4365
10764TIP3    H253708   6.387   5.543  13.099  0.3357 -3.0741 -0.1414
10765TIP3   OH253709   4.288   1.766   4.640 -0.3412  0.1166 -0.2442
10765TIP3    H153710   4.334   1.682   4.653 -0.9449 -0.1587  0.1447
10765TIP3    H253711   4.345   1.831   4.683 -0.1434 -0.1723 -0.0615
10766TIP3   OH253712   1.155   4.031   2.868  0.1337 -0.5339 -0.4305
10766TIP3    H153713   1.123   4.099   2.808 -1.3077  0.5574  1.4884
10766TIP3    H253714   1.098   4.037   2.944  1.9196 -1.8664  1.0951
10767TIP3   OH253715   0.785   5.009  13.027 -0.0513  0.1650 -0.1726
10767TIP3    H153716   0.820   4.947  12.962 -0.2194 -1.5617  1.3031
10767TIP3    H253717   0.690   4.994  13.026  0.0316 -0.6316  1.1401
10768TIP3   OH253718   5.449   2.908   3.578 -0.0079  0.6358 -0.0873
10768TIP3    H153719   5.504   2.912   3.500 -2.2190 -1.6357 -1.9262
10768TIP3    H253720   5.419   2.999   3.590  3.3726  1.8183  0.5805
10769TIP3   OH253721   0.592   5.224   3.115  0.7888  0.1003  0.0300
10769TIP3    H153722   0.669   5.166   3.118  0.3875 -0.5704 -1.5011
10769TIP3    H253723   0.624   5.309   3.145  1.9297 -0.3714  0.1893
10770TIP3   OH253724   6.451   3.574  14.300  0.0299 -0.4035  0.1246
10770TIP3    H153725   6.475   3.628  14.376 -1.8824  0.6105  0.0741
10770TIP3    H253726   6.369   3.532  14.325 -0.8205  0.2103 -1.4774
10771TIP3   OH253727   4.198   6.114  12.534  0.0704 -0.5483 -0.2611
10771TIP3    H153728   4.192   6.023  12.506  0.3766 -0.2970 -1.1776
10771TIP3    H253729   4.278   6.147  12.492 -1.4697  0.9118 -2.1736
10772TIP3   OH253730   6.463   2.688   0.984  0.6068  0.2126  0.3852
10772TIP3    H153731   6.425   2.690   1.072  0.2711  1.1842  0.2245
10772TIP3    H253732   6.477   2.595   0.966  1.4082  0.0430  1.7714
10773TIP3   OH253733   5.014   0.178   2.995  0.2985 -0.4965 -0.0861
10773TIP3    H153734   5.035   0.181   3.088 -0.7318  0.2829  0.1401
10773TIP3    H253735   4.995   0.269   2.971  0.1825 -0.7378 -0.9676
10774TIP3   OH253736   0.906   1.892  14.260  0.2712 -0.5174  0.3005
10774TIP3    H153737   0.914   1.797  14.267  1.2717 -0.5436 -0.9694
10774TIP3    H253738   0.975   1.926  14.317 -1.5149 -0.4524  2.6042
10775TIP3   OH253739   2.487   2.190   5.222 -0.2144 -0.3794  0.1162
10775TIP3    H153740   2.553   2.183   5.154  1.5790 -1.9820  1.8827
10775TIP3    H253741   2.404   2.189   5.176  0.8689 -2.7589 -1.9959
10776TIP3   OH253742   1.576   1.907  17.023 -0.7905 -0.0259 -0.1942
10776TIP3    H153743   1.509   1.974  17.023  1.2684  2.2812  2.6529
10776TIP3    H253744   1.540   1.836  17.077 -2.0969 -0.2548 -1.3310
10777TIP3   OH253745   0.155   6.579  15.175  0.1033  0.3980 -0.0549
10777TIP3    H153746   0.205   6.658  15.152  0.5114  0.3810  0.7141
10777TIP3    H253747   0.127   6.595  15.265 -0.9932  0.2471 -0.3621
10778TIP3   OH253748   0.315   6.748  11.600 -0.2543 -0.1442 -0.3957
10778TIP3    H153749   0.322   6.837  11.632 -1.3179  0.1644 -0.9388
10778TIP3    H253750   0.340   6.753  11.508  1.3524 -0.7418 -0.0128
10779TIP3   OH253751   3.219   6.548   2.018  0.2076 -0.1516  0.3900
10779TIP3    H153752   3.193   6.549   1.926 -0.8170 -0.2843  0.6679
10779TIP3    H253753   3.137   6.554   2.066  0.3310 -3.9461  1.3659
10780TIP3   OH253754   1.831   6.687   0.321  0.8110  0.1442  0.0722
10780TIP3    H153755   1.761   6.665   0.259  0.9242  0.7728 -0.2927
10780TIP3    H253756   1.872   6.765   0.283  0.2978  1.0807  1.4019
10781TIP3   OH253757   3.785   3.467   0.703  0.0832 -0.4898  0.1967
10781TIP3    H153758   3.866   3.494   0.748 -0.1448  0.1985  0.2025
10781TIP3    H253759   3.815   3.432   0.620  0.4941 -1.5744  0.7839
10782TIP3   OH253760   0.024   0.747  16.938 -0.4637 -0.2816 -0.1697
10782TIP3    H153761   0.020   0.792  16.853  1.1860  2.2117  0.9353
10782TIP3    H253762  -0.023   0.806  16.998 -0.6924 -1.4798  0.8675
10783TIP3   OH253763   0.954   5.712  12.479 -0.0501  0.0977  0.1079
10783TIP3    H153764   0.964   5.765  12.400 -0.5611 -1.0284 -0.7371
10783TIP3    H253765   1.035   5.661  12.484  0.0505  0.2871  0.4022
10784TIP3   OH253766   3.064   2.736   4.402  0.0987  0.1738 -0.3062
10784TIP3    H153767   3.013   2.764   4.325  0.7199 -1.5932 -1.4205
10784TIP3    H253768   3.015   2.662   4.438  1.4584 -1.1001 -0.9757
10785TIP3   OH253769   5.865   6.393  17.015  1.1620  0.0487 -0.4789
10785TIP3    H153770   5.844   6.305  17.047  0.3953 -0.1062 -1.3687
10785TIP3    H253771   5.948   6.413  17.056  0.2180 -0.1102  1.6576
10786TIP3   OH253772   3.544   1.686  10.526 -0.2201  0.2624 -0.3968
10786TIP3    H153773   3.499   1.709  10.444 -0.5602 -0.1113 -0.3197
10786TIP3    H253774   3.496   1.733  10.594  0.3652  0.9619 -0.4616
10787TIP3   OH253775   5.576   2.856  16.740 -0.6653  0.1453 -0.0160
10787TIP3    H153776   5.644   2.796  16.710 -0.7730  1.0147 -2.1296
10787TIP3    H253777   5.610   2.892  16.822  1.9168  1.2555 -1.4573
10788TIP3   OH253778   3.564   5.041  14.808 -0.2066 -0.3197 -0.2366
10788TIP3    H153779   3.615   4.965  14.780  0.5488  0.6676 -1.6998
10788TIP3    H253780   3.496   5.051  14.741 -0.1534  0.4091 -0.1952
10789TIP3   OH253781   0.836   0.920   2.302 -0.5981  0.1682 -0.0305
10789TIP3    H153782   0.881   0.999   2.272 -2.1476  0.2821 -2.2820
10789TIP3    H253783   0.755   0.951   2.342 -0.7786 -0.2127 -0.0894
10790TIP3   OH253784   2.886   3.825  12.263  0.0816 -0.1125  0.1219
10790TIP3    H153785   2.793   3.847  12.254  0.0016 -0.3787  0.2862
10790TIP3    H253786   2.932   3.907  12.246 -0.2324  0.2948  1.1782
10791TIP3   OH253787   5.079   4.346  12.815  0.2324 -0.1146  0.1007
10791TIP3    H153788   5.070   4.284  12.743 -0.4982 -1.1906  1.0828
10791TIP3    H253789   5.089   4.431  12.772  0.6558 -0.8196 -1.2682
10792TIP3   OH253790   5.292   2.164  12.986  0.3183 -0.4179  0.0285
10792TIP3    H153791   5.254   2.241  12.944  0.9530 -1.7155 -3.2492
10792TIP3    H253792   5.386   2.173  12.971  0.3517 -2.0845 -0.9644
10793TIP3   OH253793   4.286   1.275   4.374  0.1406 -0.7048  0.4278
10793TIP3    H153794   4.336   1.345   4.415  0.0777  0.2620 -1.0682
10793TIP3    H253795   4.353   1.218   4.335  0.1308 -0.2080 -0.3254
10794TIP3   OH253796   4.552   5.793   5.173  0.7414 -0.2143  0.4758
10794TIP3    H153797   4.461   5.780   5.199  0.3836 -1.7541 -1.2866
10794TIP3    H253798   4.575   5.880   5.205 -1.2857  0.1291  1.1133
10795TIP3   OH253799   6.605   5.923  16.135 -0.1294 -0.0023 -0.2191
10795TIP3    H153800   6.640   5.853  16.191 -1.4429 -0.0827  0.5350
10795TIP3    H253801   6.679   5.948  16.080  1.4627  0.5525  2.0120
10796TIP3   OH253802   3.264   2.290  15.880  0.5351  0.1157  0.1130
10796TIP3    H153803   3.171   2.310  15.896  0.2299 -0.4269 -0.8922
10796TIP3    H253804   3.303   2.289  15.967 -1.2112 -3.6664  1.0541
10797TIP3   OH253805   1.974   6.097   5.375  0.0554  0.1179 -0.6873
10797TIP3    H153806   1.975   6.190   5.353 -1.4428  0.1536 -0.7418
10797TIP3    H253807   1.881   6.076   5.387  0.2163 -1.6833 -2.0684
10798TIP3   OH253808   6.463   2.547   6.614 -0.1238  0.1579 -0.2686
10798TIP3    H153809   6.558   2.560   6.620  0.0261 -0.6355 -0.7726
10798TIP3    H253810   6.431   2.627   6.573  0.2602  0.6372  0.3377
10799TIP3   OH253811   1.289   0.566  12.303  0.2338 -0.1685  0.4223
10799TIP3    H153812   1.237   0.492  12.273  0.0982  0.2122 -0.2849
10799TIP3    H253813   1.314   0.542  12.393 -0.5154 -0.6861  0.5027
10800TIP3   OH253814   0.805   3.325  15.981  0.5603  0.1114  0.2373
10800TIP3    H153815   0.850   3.406  15.955  2.3831 -1.5048 -2.0074
10800TIP3    H253816   0.860   3.290  16.051 -0.3868  0.8735  1.4126
10801TIP3   OH253817   1.751   3.652  16.642 -0.6275 -0.0478  0.1686
10801TIP3    H153818   1.698   3.620  16.714 -1.6625 -0.5151 -0.7711
10801TIP3    H253819   1.775   3.574  16.593  1.6618  0.0533  1.0093
10802TIP3   OH253820   2.811   1.445   4.134  0.0408  0.5837 -0.5578
10802TIP3    H153821   2.833   1.475   4.046 -1.3330  1.3376 -0.6692
10802TIP3    H253822   2.748   1.509   4.167 -1.3350 -0.9842  0.0478
10803TIP3   OH253823   3.335   6.040   4.392 -0.2949 -0.8547 -0.2614
10803TIP3    H153824   3.364   5.955   4.425  0.4765 -0.8395 -0.8538
10803TIP3    H253825   3.417   6.088   4.376 -0.7230  0.0564  0.2051
10804TIP3   OH253826   1.824   1.778   3.301  0.3616  0.4628 -0.4691
10804TIP3    H153827   1.803   1.719   3.374  1.6418  0.6783  0.0990
10804TIP3    H253828   1.914   1.755   3.277  0.5645  1.5817 -0.8271
10805TIP3   OH253829   2.016   0.922   5.931  0.2563 -0.1159  0.0802
10805TIP3    H153830   2.077   0.923   6.005  0.3664  0.0963 -0.0144
10805TIP3    H253831   1.953   0.853   5.953 -0.6397  1.0047  1.1095
10806TIP3   OH253832   3.078   2.159  11.435 -0.5262 -0.5680  0.0783
10806TIP3    H153833   3.113   2.089  11.380 -1.3124 -0.7535 -0.2111
10806TIP3    H253834   3.099   2.133  11.525  0.8882 -0.1976 -0.1339
10807TIP3   OH253835   4.622   5.558  16.185  0.4352  0.0954  0.4724
10807TIP3    H153836   4.639   5.637  16.236  0.3871 -0.0996  0.7896
10807TIP3    H253837   4.529   5.540  16.197 -0.0053  1.0938 -1.1795
10808TIP3   OH253838   0.844   0.297   1.040  0.4996  0.0412 -0.0544
10808TIP3    H153839   0.835   0.306   0.946  1.5462  0.6329 -0.1123
10808TIP3    H253840   0.772   0.239   1.066  0.2523 -0.1867 -1.2134
10809TIP3   OH253841   5.852   2.418  12.981  0.3500  1.3017 -0.4805
10809TIP3    H153842   5.874   2.345  13.038 -0.0752  1.4241 -0.1583
10809TIP3    H253843   5.822   2.487  13.040  1.4544  2.0087 -0.7102
10810TIP3   OH253844   4.418   3.769   3.248 -0.5189  0.1034 -0.8534
10810TIP3    H153845   4.511   3.748   3.252 -0.6581 -0.4282  0.1969
10810TIP3    H253846   4.382   3.705   3.187 -0.4161 -0.6749 -0.1235
10811TIP3   OH253847   3.148   2.240   4.361 -0.2905 -0.4203  0.2598
10811TIP3    H153848   3.240   2.213   4.361 -0.1908 -0.0773  0.8573
10811TIP3    H253849   3.149   2.333   4.339 -0.5328 -0.5313 -0.2430
10812TIP3   OH253850   0.774   1.160   2.928  0.2967 -0.1111  0.1206
10812TIP3    H153851   0.700   1.112   2.891 -0.6513 -0.9689  2.9456
10812TIP3    H253852   0.850   1.128   2.878 -0.7259 -2.1318 -0.2498
10813TIP3   OH253853   1.549   3.381  15.685 -0.2666  0.0633  0.0360
10813TIP3    H153854   1.553   3.316  15.755 -0.6509  0.8190  0.7645
10813TIP3    H253855   1.614   3.350  15.621 -0.1485 -0.8109  0.5615
10814TIP3   OH253856   6.543   3.668  12.388 -0.0390 -0.2131 -0.3725
10814TIP3    H153857   6.541   3.620  12.305  2.1038 -0.2412 -0.4582
10814TIP3    H253858   6.554   3.599  12.455  1.3014 -0.0057 -0.3531
10815TIP3   OH253859   5.123   3.798   5.070  0.1421  0.3864 -0.8130
10815TIP3    H153860   5.194   3.761   5.122  1.3193  1.1835 -1.7766
10815TIP3    H253861   5.053   3.815   5.132  0.4104 -1.3331  0.0078
10816TIP3   OH253862   0.250   3.619  12.464  0.8314 -0.1230  0.1579
10816TIP3    H153863   0.332   3.571  12.479  1.3138  0.8682  0.8348
10816TIP3    H253864   0.186   3.577  12.522  1.8680  1.5807  2.7355
10817TIP3   OH253865   5.481   4.175   2.739  0.3936 -0.2709  0.2580
10817TIP3    H153866   5.431   4.233   2.681 -0.0477 -1.1590 -0.2596
10817TIP3    H253867   5.429   4.170   2.819  0.2417 -0.2659  0.1589
10818TIP3   OH253868   4.638   1.292   1.138  0.0011  0.1389 -0.1585
10818TIP3    H153869   4.601   1.245   1.064  1.7005 -2.2587  0.4040
10818TIP3    H253870   4.678   1.224   1.192  3.6018  2.2891  0.1960
10819TIP3   OH253871   0.670   5.547  15.859 -0.4245 -0.0189 -0.6363
10819TIP3    H153872   0.765   5.556  15.857 -0.4420  0.3374 -0.1689
10819TIP3    H253873   0.651   5.477  15.797  0.2479 -1.0540  0.2920
10820TIP3   OH253874   2.497   2.493  13.451  0.0244 -0.0393  0.0857
10820TIP3    H153875   2.429   2.553  13.480 -0.9531 -1.4329  0.8355
10820TIP3    H253876   2.449   2.423  13.405  1.2210  0.3324 -1.8526
10821TIP3   OH253877   3.636   0.156  11.524  0.4365 -0.3122 -0.6611
10821TIP3    H153878   3.637   0.092  11.453  3.6720 -1.4654  0.2459
10821TIP3    H253879   3.626   0.104  11.604  0.7522  0.5391 -0.0431
10822TIP3   OH253880   0.562   2.563  14.250  0.0638 -0.5747  0.2585
10822TIP3    H153881   0.652   2.550  14.281  0.7277 -1.5984 -1.9484
10822TIP3    H253882   0.545   2.488  14.193 -2.2215 -0.4077  0.6418
10823TIP3   OH253883   6.043   3.807   3.193 -0.5971 -0.1036 -0.3154
10823TIP3    H153884   6.113   3.867   3.166 -1.1854 -0.2354 -2.2270
10823TIP3    H253885   6.089   3.732   3.229  0.2124  2.2281  4.3776
10824TIP3   OH253886   2.364   5.322  11.137  0.5079  0.1458  0.3985
10824TIP3    H153887   2.333   5.397  11.085 -0.1322 -0.1024  0.4132
10824TIP3    H253888   2.353   5.247  11.079 -0.4941 -0.1762  0.9899
10825TIP3   OH253889   0.436   4.035  16.701  0.5719 -0.0221  0.3717
10825TIP3    H153890   0.382   4.048  16.779  1.2601 -0.8703  1.0010
10825TIP3    H253891   0.517   3.994  16.733  1.7816  1.5706 -0.4879
10826TIP3   OH253892   6.795   0.704   2.877  0.1890 -0.2417  0.3413
10826TIP3    H153893   6.709   0.692   2.918  1.0752 -0.6308  2.1900
10826TIP3    H253894   6.842   0.763   2.936  2.2011 -2.3506  0.9631
10827TIP3   OH253895   3.333   1.470  13.223  0.4757  0.0041 -0.0175
10827TIP3    H153896   3.315   1.376  13.221 -0.8533  0.2100  1.0478
10827TIP3    H253897   3.387   1.486  13.145 -1.1058 -1.2663 -1.4350
10828TIP3   OH253898   1.175   3.115  15.346 -0.5025  0.0490 -0.0883
10828TIP3    H153899   1.247   3.178  15.337 -1.1294  0.7090 -0.6020
10828TIP3    H253900   1.096   3.168  15.345 -1.0200 -0.6996  0.0931
10829TIP3   OH253901   0.550   1.274   2.172 -0.2335  0.2718 -0.4334
10829TIP3    H153902   0.609   1.248   2.243  0.3433  2.4352 -0.0656
10829TIP3    H253903   0.535   1.367   2.186 -2.4664  0.1330 -1.4821
10830TIP3   OH253904   1.277   4.793   5.902  0.3869 -0.0346 -0.7885
10830TIP3    H153905   1.227   4.874   5.904 -0.3393 -0.4761 -0.6193
10830TIP3    H253906   1.282   4.766   5.994 -0.2608 -0.7025 -0.9392
10831TIP3   OH253907   3.297   4.920  11.721 -0.1430  0.4971  0.2804
10831TIP3    H153908   3.346   4.987  11.771  1.0150 -0.3443  0.3255
10831TIP3    H253909   3.318   4.939  11.630 -0.6637  0.8314  0.2300
10832TIP3   OH253910   0.528   4.591   5.434  0.3146  0.2495  0.0180
10832TIP3    H153911   0.461   4.585   5.366  0.7789  2.0436 -0.6371
10832TIP3    H253912   0.479   4.580   5.516 -0.6789  0.7805 -0.4773
10833TIP3   OH253913   4.293   0.527   2.546 -0.5950  0.2174  0.6412
10833TIP3    H153914   4.341   0.599   2.587  0.4853 -0.5470  0.7447
10833TIP3    H253915   4.334   0.448   2.580 -0.5119 -0.4436 -0.9127
10834TIP3   OH253916   1.558   3.379   0.439 -0.1685 -0.4382  0.0666
10834TIP3    H153917   1.604   3.329   0.372  0.6553 -0.9091  0.9580
10834TIP3    H253918   1.467   3.380   0.410  0.5257  1.5190 -2.3402
10835TIP3   OH253919   5.197   2.373  12.847  0.3114  0.1331 -0.1932
10835TIP3    H153920   5.275   2.368  12.791 -0.5219 -3.5951 -1.2853
10835TIP3    H253921   5.124   2.380  12.785 -0.4460 -0.7856  0.5679
10836TIP3   OH253922   0.769   5.238   0.886 -0.4772  0.5245 -0.0926
10836TIP3    H153923   0.741   5.308   0.827 -0.5172  1.6162  1.1399
10836TIP3    H253924   0.790   5.165   0.830 -2.6480  0.7450 -1.3138
10837TIP3   OH253925   0.937   4.615  16.385 -0.4614  0.1418 -0.0424
10837TIP3    H153926   0.934   4.526  16.350  1.3474  0.1222 -0.2861
10837TIP3    H253927   0.884   4.666  16.324 -0.9053 -0.6436 -0.3279
10838TIP3   OH253928   3.577   2.870  17.074  0.3925  0.3013 -0.2677
10838TIP3    H153929   3.644   2.830  17.130  0.5934  1.8690  0.6872
10838TIP3    H253930   3.498   2.872  17.129  0.3863  1.1544 -0.2893
10839TIP3   OH253931   4.021   6.373  14.145 -0.9894  0.8730  0.1488
10839TIP3    H153932   4.008   6.300  14.085  2.7290  0.7085 -0.6598
10839TIP3    H253933   4.044   6.333  14.229  1.7153  0.9853 -0.4628
10840TIP3   OH253934   5.379   3.901  16.566 -0.5502 -0.4915 -0.5410
10840TIP3    H153935   5.374   3.932  16.657 -0.3968  1.5408 -1.1687
10840TIP3    H253936   5.465   3.860  16.560  0.0996  0.7527 -0.1395
10841TIP3   OH253937   2.093   0.693   1.125 -0.3123  0.1746  0.1826
10841TIP3    H153938   2.025   0.750   1.160  0.3296  0.0034  1.7783
10841TIP3    H253939   2.137   0.657   1.202  1.0939 -0.3183 -0.8051
10842TIP3   OH253940   6.063   0.982   1.687 -0.3959 -0.0014 -0.3507
10842TIP3    H153941   6.054   0.890   1.661 -1.4689  0.0129 -0.0937
10842TIP3    H253942   6.153   0.989   1.721 -0.0583 -0.7698 -1.0645
10843TIP3   OH253943   2.605   1.937   3.504  0.0488 -1.1394 -0.2425
10843TIP3    H153944   2.673   1.950   3.570  0.1473  0.4505 -0.6303
10843TIP3    H253945   2.586   2.024   3.471 -1.5133 -1.6629 -0.8255
10844TIP3   OH253946   0.724   2.688  16.274  0.2296  0.6031  0.4953
10844TIP3    H153947   0.739   2.604  16.317 -1.9032 -0.1222 -0.0496
10844TIP3    H253948   0.738   2.754  16.342  1.2651 -0.2275  1.1014
10845TIP3   OH253949   6.539   3.955   5.586 -0.0236  0.1265 -0.3115
10845TIP3    H153950   6.634   3.959   5.589  0.1738 -3.0268  0.9825
10845TIP3    H253951   6.511   3.962   5.678 -0.8200 -1.4035 -0.3989
10846TIP3   OH253952   0.042   3.438  12.930 -0.0876  0.3593  0.0520
10846TIP3    H153953   0.056   3.378  13.003  0.7000 -0.1692 -0.5158
10846TIP3    H253954   0.119   3.496  12.931  0.2348 -0.0465 -0.7183
10847TIP3   OH253955   3.427   1.089   3.139 -0.3114  0.2040  0.1074
10847TIP3    H153956   3.481   1.115   3.213  0.3207 -2.1144  0.5578
10847TIP3    H253957   3.453   1.148   3.068  0.3456  1.3122  1.2328
10848TIP3   OH253958   3.429   4.058   4.921  0.6893  0.0150  0.2117
10848TIP3    H153959   3.508   4.006   4.939  1.1952  0.5297 -0.4485
10848TIP3    H253960   3.461   4.130   4.867 -0.6614 -1.3013 -2.5426
10849TIP3   OH253961   2.786   1.373  13.199 -0.1900  0.4185 -0.2845
10849TIP3    H153962   2.694   1.360  13.220 -0.9452  1.0893 -2.7999
10849TIP3    H253963   2.794   1.346  13.107  2.4879 -1.1358  0.2943
10850TIP3   OH253964   2.807   0.028  10.722 -0.6623 -0.4198 -0.4274
10850TIP3    H153965   2.726   0.028  10.671 -1.4986 -1.4043  0.8378
10850TIP3    H253966   2.812  -0.061  10.759  0.8890 -0.3076 -0.3001
10851TIP3   OH253967   4.921   2.452  13.371  0.0991 -0.1961  0.3589
10851TIP3    H153968   4.965   2.461  13.455  2.7778  0.0376 -0.9643
10851TIP3    H253969   4.859   2.525  13.368  2.4570  1.9531  0.7584
10852TIP3   OH253970   2.535   1.274   1.655 -0.4075 -0.5357  0.8669
10852TIP3    H153971   2.478   1.350   1.672  1.7521  1.3956  0.0427
10852TIP3    H253972   2.622   1.303   1.683  0.9300 -1.8626 -1.6137
10853TIP3   OH253973   5.856   0.122  14.520 -0.3686  0.4613 -0.5743
10853TIP3    H153974   5.769   0.161  14.530 -0.3122  0.1650  1.5955
10853TIP3    H253975   5.885   0.104  14.610  0.4727 -2.6287 -1.3343
10854TIP3   OH253976   2.103   4.102   0.544 -0.0413  0.3006 -0.5443
10854TIP3    H153977   2.078   4.126   0.455 -1.6466  0.7114 -0.0155
10854TIP3    H253978   2.153   4.021   0.534 -3.3692 -1.8390 -1.5901
10855TIP3   OH253979   4.971   6.404  14.733  0.0373  0.6077  0.6908
10855TIP3    H153980   4.998   6.438  14.648  0.4088  0.4729  0.7554
10855TIP3    H253981   5.046   6.421  14.791 -0.5151  1.4396  1.1883
10856TIP3   OH253982   3.556   1.284   2.951 -0.2515  0.0434  0.5283
10856TIP3    H153983   3.620   1.356   2.954 -0.4184  0.1633  1.4944
10856TIP3    H253984   3.483   1.320   2.901  0.4170 -0.0964 -0.5951
10857TIP3   OH253985   3.010   0.335  14.261  0.4600 -0.1887 -0.5744
10857TIP3    H153986   2.951   0.325  14.336  0.7014  0.3574 -0.3048
10857TIP3    H253987   2.958   0.306  14.186 -0.6349  1.5198 -0.5420
10858TIP3   OH253988   3.831   5.298  12.429  0.4330 -0.0248 -0.9523
10858TIP3    H153989   3.924   5.307  12.409  1.3032 -3.1926  1.0001
10858TIP3    H253990   3.813   5.371  12.488  2.4168 -0.7675  0.7009
10859TIP3   OH253991   0.765   1.095  16.633  0.0975 -0.5201  0.1274
10859TIP3    H153992   0.792   1.167  16.577 -1.3415 -0.2457 -0.2568
10859TIP3    H253993   0.837   1.085  16.696  1.4772 -0.4526 -1.3785
10860TIP3   OH253994   6.771   4.199  14.605 -0.2785 -0.4351 -0.1895
10860TIP3    H153995   6.858   4.230  14.581 -0.1935  0.0057  0.6457
10860TIP3    H253996   6.775   4.191  14.701 -2.2387  3.1001  0.3459
10861TIP3   OH253997   6.698   6.276  15.988 -0.0961  0.2730  0.0124
10861TIP3    H153998   6.743   6.359  16.006  0.0566  0.0209  0.8165
10861TIP3    H253999   6.680   6.279  15.893  0.1330  1.1059 -0.0171
10862TIP3   OH254000   0.112   1.695   6.210 -0.4222 -0.1032 -0.0340
10862TIP3    H154001   0.048   1.727   6.147 -1.9797 -2.2677  0.3159
10862TIP3    H254002   0.126   1.768   6.271 -1.1505  1.0115 -1.1702
10863TIP3   OH254003   0.237   2.221  16.326  0.1246 -0.2154 -0.0756
10863TIP3    H154004   0.208   2.160  16.393 -1.9482  0.8345  0.0374
10863TIP3    H254005   0.268   2.165  16.254  1.0397 -1.3460  1.1564
10864TIP3   OH254006   3.046   3.720  15.983  0.1465 -0.3571  0.0337
10864TIP3    H154007   3.113   3.752  16.043  0.4130  0.0102 -0.4529
10864TIP3    H254008   2.995   3.658  16.035  1.1490 -1.0026  0.2751
10865TIP3   OH254009   1.216   5.288  11.211  0.0597 -0.4266 -0.1709
10865TIP3    H154010   1.243   5.308  11.300 -0.3392  0.6378 -0.2689
10865TIP3    H254011   1.122   5.268  11.219 -0.6448  2.3115 -0.6633
10866TIP3   OH254012   4.222   2.337   0.988  0.1477 -0.6984  0.3830
10866TIP3    H154013   4.284   2.368   0.922  0.3870 -0.7412  0.5898
10866TIP3    H254014   4.200   2.416   1.038  0.7751 -0.8633  0.9242
10867TIP3   OH254015   6.235   1.052  11.259 -0.2041 -0.1237 -0.4746
10867TIP3    H154016   6.288   1.050  11.338 -0.0593  0.2262 -0.5582
10867TIP3    H254017   6.272   0.983  11.204 -0.2424 -0.3016 -0.2728
10868TIP3   OH254018   6.460   0.788  16.310  0.6414 -0.4325  0.5245
10868TIP3    H154019   6.448   0.739  16.392 -1.8695  0.0580  0.5074
10868TIP3    H254020   6.469   0.720  16.243  2.1426 -0.8339  1.0831
10869TIP3   OH254021   2.572   3.947  12.970 -0.6704 -0.5379 -0.1987
10869TIP3    H154022   2.626   4.024  12.956 -0.7804 -0.6296 -1.2295
10869TIP3    H254023   2.626   3.874  12.940 -0.5194 -0.8906  0.8837
10870TIP3   OH254024   5.936   0.234   6.131  0.6492  0.3833  0.2526
10870TIP3    H154025   5.933   0.264   6.222 -0.5643 -0.6986  0.5999
10870TIP3    H254026   5.958   0.141   6.137  0.7255  0.3367 -0.5684
10871TIP3   OH254027   2.762   2.185   3.109 -0.5344  0.5833  0.3779
10871TIP3    H154028   2.714   2.224   3.036  0.7956  0.2795 -0.6957
10871TIP3    H254029   2.721   2.223   3.187 -2.5003  0.3223 -0.4599
10872TIP3   OH254030   5.359   2.939  11.083 -0.3588  0.1312  0.2891
10872TIP3    H154031   5.288   2.890  11.042  0.3111 -0.1168 -0.6174
10872TIP3    H254032   5.357   3.025  11.040  1.5843 -0.7641 -1.8105
10873TIP3   OH254033   3.968   1.086  14.630  0.3650  0.2842  0.3957
10873TIP3    H154034   3.934   1.092  14.720 -4.1981  2.4905 -1.1297
10873TIP3    H254035   3.993   1.176  14.608  0.1949  0.0209 -0.9230
10874TIP3   OH254036   0.449   5.672   0.593 -0.4215 -0.2121  0.1222
10874TIP3    H154037   0.517   5.612   0.563 -0.0531 -0.1917  0.9106
10874TIP3    H254038   0.482   5.759   0.569 -0.5201 -0.2520 -0.1665
10875TIP3   OH254039   6.098   1.965   5.210 -0.5304 -0.0480 -0.1222
10875TIP3    H154040   6.025   1.965   5.272 -1.7535 -0.3059 -1.4987
10875TIP3    H254041   6.086   2.045   5.159  0.9732  0.6209  0.5068
10876TIP3   OH254042   1.458   1.816   2.877 -0.8213 -0.1374  0.4873
10876TIP3    H154043   1.458   1.911   2.883 -0.3727 -0.0955 -0.1009
10876TIP3    H254044   1.539   1.789   2.920 -0.6790 -0.2204  0.1688
10877TIP3   OH254045   1.604   1.167  14.798  1.0329 -0.1086  0.5499
10877TIP3    H154046   1.514   1.175  14.765  1.7185 -1.8458 -2.0449
10877TIP3    H254047   1.603   1.215  14.880 -2.2035  0.1662  0.4999
10878TIP3   OH254048   5.457   4.729   0.730  0.0451 -0.5076 -0.0732
10878TIP3    H154049   5.376   4.771   0.758  0.8191  0.0047  1.5204
10878TIP3    H254050   5.442   4.635   0.745  0.0525 -0.3367  1.1237
10879TIP3   OH254051   5.278   1.284   2.959 -0.0187 -0.5920 -0.3490
10879TIP3    H154052   5.206   1.257   3.017 -1.4435 -0.4814 -1.9980
10879TIP3    H254053   5.276   1.221   2.887 -1.7516  2.2115 -2.9832
10880TIP3   OH254054   5.624   3.509   2.748 -0.2467  0.1545 -0.0443
10880TIP3    H154055   5.630   3.604   2.750  1.6634  0.2270 -2.9767
10880TIP3    H254056   5.534   3.491   2.721 -0.4955  1.1455  0.1066
10881TIP3   OH254057   6.688   5.043  14.395  0.6213 -0.3604  0.1806
10881TIP3    H154058   6.597   5.020  14.376 -0.1568  2.7763 -0.3311
10881TIP3    H254059   6.685   5.083  14.482  1.0374  1.9573 -0.8120
10882TIP3   OH254060   4.642   5.914   0.599  0.3691  0.1897  0.1943
10882TIP3    H154061   4.715   5.886   0.544  0.6612  2.8799 -0.9395
10882TIP3    H254062   4.565   5.873   0.560  0.8568  0.1554 -0.7712
10883TIP3   OH254063   3.779   4.937  15.723  0.4818  0.0910 -0.2111
10883TIP3    H154064   3.739   4.930  15.809 -0.2841  0.8641 -0.4937
10883TIP3    H254065   3.747   5.020  15.688  2.0336  0.5627 -0.6059
10884TIP3   OH254066   5.600   5.201   0.180  0.2294  0.3416 -0.0172
10884TIP3    H154067   5.529   5.144   0.210  0.5806 -0.2402 -0.2631
10884TIP3    H254068   5.570   5.234   0.096  1.1518 -1.6767 -1.2134
10885TIP3   OH254069   5.090   2.147   6.588  0.0008 -0.0666 -0.0848
10885TIP3    H154070   5.163   2.134   6.529 -0.8411  1.7440 -1.6116
10885TIP3    H254071   5.061   2.236   6.572  0.0377  0.7304  3.4730
10886TIP3   OH254072   1.346   5.022  12.242 -0.1090  0.0445  0.1587
10886TIP3    H154073   1.328   5.051  12.332 -0.3357 -1.3469  0.5759
10886TIP3    H254074   1.268   4.972  12.217 -0.7153  1.6646 -1.3900
10887TIP3   OH254075   6.193   3.183  16.639 -0.3031  0.5799 -0.1297
10887TIP3    H154076   6.110   3.153  16.676  0.2967 -0.3376  0.5034
10887TIP3    H254077   6.236   3.230  16.710  0.3466 -0.1864 -0.0057
10888TIP3   OH254078   0.391   4.014  11.745 -0.1024 -0.1931 -0.2584
10888TIP3    H154079   0.342   4.059  11.814  1.6104  1.2973  0.0364
10888TIP3    H254080   0.444   3.949  11.792 -0.7246 -0.8457 -0.4398
10889TIP3   OH254081   5.506   2.173  10.465  0.0365  0.5594  0.2495
10889TIP3    H154082   5.513   2.183  10.370 -1.3126 -1.0733 -0.0598
10889TIP3    H254083   5.470   2.257  10.495 -0.1969  0.8369 -0.7671
10890TIP3   OH254084   3.730   4.856  10.688  0.0803 -0.7308  0.5806
10890TIP3    H154085   3.709   4.772  10.647  0.8307 -0.5201 -0.2781
10890TIP3    H254086   3.784   4.832  10.763  0.4358 -1.0150  0.2420
10891TIP3   OH254087   2.910   3.551   0.892  0.0850  0.2304  0.1212
10891TIP3    H154088   2.906   3.543   0.797  1.2595 -1.4791  0.1672
10891TIP3    H254089   2.995   3.592   0.909  0.7171 -1.1501  0.4551
10892TIP3   OH254090   2.257   2.073   0.929 -0.0219  0.0829  0.6599
10892TIP3    H154091   2.164   2.061   0.908  0.0205  1.1966 -0.2435
10892TIP3    H254092   2.257   2.125   1.009 -0.1957  0.9008  0.1429
10893TIP3   OH254093   4.114   6.310   0.988 -0.1639 -0.5489  0.6187
10893TIP3    H154094   4.169   6.360   0.927  2.4336 -0.2876  2.9689
10893TIP3    H254095   4.147   6.220   0.981 -1.7003 -1.0865 -0.2389
10894TIP3   OH254096   5.133   6.729  14.140  0.1911  0.6406 -0.0310
10894TIP3    H154097   5.172   6.799  14.087  1.2634  1.3585  1.6452
10894TIP3    H254098   5.167   6.648  14.102  0.7972  1.1323 -0.5482
10895TIP3   OH254099   2.530   4.364  12.397 -0.4671 -0.5543 -0.0921
10895TIP3    H154100   2.572   4.338  12.479 -1.9831 -3.0785 -0.0137
10895TIP3    H254101   2.531   4.460  12.399  1.9281 -0.5203  1.5590
10896TIP3   OH254102   0.894   6.641   0.450  0.5029 -0.4078 -0.7122
10896TIP3    H154103   0.928   6.694   0.522  0.2016 -0.9211 -0.1866
10896TIP3    H254104   0.972   6.609   0.405  0.7106 -0.6908 -0.1650
10897TIP3   OH254105   2.095   1.438  13.431  0.5529  0.7971 -0.2682
10897TIP3    H154106   2.055   1.493  13.364  1.5203  2.8737  0.7709
10897TIP3    H254107   2.030   1.434  13.501 -0.0012 -0.4283 -0.8315
10898TIP3   OH254108   5.364   4.999  10.769 -0.1281 -0.2558 -0.1084
10898TIP3    H154109   5.432   5.018  10.704 -3.2584  0.4549 -3.4563
10898TIP3    H254110   5.317   5.081  10.780 -2.3668 -1.4321 -0.3629
10899TIP3   OH254111   0.839   1.191  15.194 -0.0094 -0.0188 -0.0231
10899TIP3    H154112   0.751   1.226  15.210 -0.4017  1.1006 -3.6662
10899TIP3    H254113   0.825   1.101  15.165  0.1868 -0.2925  0.7218
10900TIP3   OH254114   5.854   5.107   1.636  0.6855  0.2718  0.3116
10900TIP3    H154115   5.931   5.148   1.598 -1.0241  2.8678 -0.6287
10900TIP3    H254116   5.804   5.179   1.674 -0.8651 -1.4282  1.7406
10901TIP3   OH254117   5.254   5.834   2.820  0.2225  0.2661 -0.1256
10901TIP3    H154118   5.162   5.837   2.794  0.6760  0.8501 -1.7966
10901TIP3    H254119   5.292   5.914   2.784  0.9112  1.2882  2.6252
10902TIP3   OH254120   4.936   5.565  12.294 -0.4600  0.2723 -0.3105
10902TIP3    H154121   4.910   5.650  12.331 -0.1961 -0.7135  2.2993
10902TIP3    H254122   4.856   5.531  12.254 -1.0970  0.8613  0.4325
10903TIP3   OH254123   4.814   4.721  16.354  0.5677  0.5515  0.6114
10903TIP3    H154124   4.839   4.637  16.393  1.1008  0.6726  0.5386
10903TIP3    H254125   4.735   4.747  16.401 -0.4664 -0.6984 -0.3559
10904TIP3   OH254126   0.274   1.289   4.829  0.2676  0.1107  0.4952
10904TIP3    H154127   0.265   1.362   4.767  1.3746 -0.1529  0.0036
10904TIP3    H254128   0.248   1.212   4.778  1.2189 -0.1115  0.3205
10905TIP3   OH254129   5.649   0.652  15.412 -0.1935  0.0584  0.5452
10905TIP3    H154130   5.653   0.714  15.485  2.1789  0.5326  0.0704
10905TIP3    H254131   5.715   0.682  15.350 -0.1700 -1.9682 -0.5003
10906TIP3   OH254132   4.919   5.008  13.446  0.4027  0.0295  0.1575
10906TIP3    H154133   4.846   4.968  13.398 -0.5254  1.0035  0.7171
10906TIP3    H254134   4.974   5.047  13.378 -0.6639  1.0111 -0.1792
10907TIP3   OH254135   2.955   0.468  11.866 -0.9424 -0.5855 -0.0370
10907TIP3    H154136   3.038   0.426  11.843 -0.4462 -0.8332  2.0260
10907TIP3    H254137   2.956   0.552  11.819  0.4429 -0.6152 -0.0870
10908TIP3   OH254138   1.285   0.028  15.925 -0.2929  0.0361 -0.2739
10908TIP3    H154139   1.321   0.113  15.950  0.4335  0.2125 -1.8375
10908TIP3    H254140   1.291  -0.024  16.005  1.3654  0.7634  0.1170
10909TIP3   OH254141   1.852   1.368   4.381 -0.3061  0.1519  0.3932
10909TIP3    H154142   1.842   1.301   4.449  2.1594  0.4402  1.1377
10909TIP3    H254143   1.797   1.440   4.410 -1.7519 -0.9008  0.3976
10910TIP3   OH254144   5.140   5.723   4.867  0.2960 -0.3707  0.0872
10910TIP3    H154145   5.182   5.739   4.952  2.9081 -0.3879 -1.1147
10910TIP3    H254146   5.125   5.810   4.831  2.7171 -0.3395 -0.9971
10911TIP3   OH254147   0.673   0.670  11.538  0.0101  0.3815  0.2599
10911TIP3    H154148   0.599   0.710  11.583 -0.3121 -1.7357  1.7155
10911TIP3    H254149   0.739   0.657  11.606 -0.4780 -2.8959  0.2687
10912TIP3   OH254150   6.584   6.043  12.337  0.4874 -0.0054  0.2980
10912TIP3    H154151   6.567   5.951  12.316 -2.2538 -0.4091  3.4754
10912TIP3    H254152   6.651   6.040  12.405  1.1721  0.4963 -0.3288
10913TIP3   OH254153   0.807   4.951  15.221 -0.1766  0.1218  0.2657
10913TIP3    H154154   0.852   4.936  15.138  0.2717  1.9563  0.1187
10913TIP3    H254155   0.719   4.917  15.207  0.2804 -0.7843 -0.5021
10914TIP3   OH254156   6.132   2.952   2.543 -0.2654 -0.0381 -0.0221
10914TIP3    H154157   6.146   2.909   2.459  2.8710  1.2039 -0.2928
10914TIP3    H254158   6.189   2.905   2.604  0.3353  1.3386  0.5241
10915TIP3   OH254159   4.912   2.382  11.906  0.2073  0.5538 -0.0736
10915TIP3    H154160   4.897   2.393  11.812  1.3500  1.0877 -0.2078
10915TIP3    H254161   4.994   2.333  11.911 -0.6808 -0.9569  0.6442
10916TIP3   OH254162   1.719   3.699  13.858  0.0202  0.1363 -0.2521
10916TIP3    H154163   1.781   3.691  13.931 -2.3552  0.2975  1.9068
10916TIP3    H254164   1.684   3.787  13.866 -1.1863 -0.2753 -0.8438
10917TIP3   OH254165   0.043   4.802  11.748  0.2530  0.2205 -0.3123
10917TIP3    H154166  -0.050   4.782  11.739  0.5285 -1.1254 -0.3585
10917TIP3    H254167   0.052   4.836  11.837 -0.1155 -0.7174  0.0956
10918TIP3   OH254168   6.234   6.101   1.007  0.4533 -0.0802 -0.3480
10918TIP3    H154169   6.254   6.160   0.935 -1.6418  2.2086  0.7809
10918TIP3    H254170   6.283   6.135   1.081  1.2764 -1.3965 -0.2562
10919TIP3   OH254171   1.713   2.535  14.144 -0.1428 -0.1228  0.3658
10919TIP3    H154172   1.669   2.575  14.069  0.5556 -0.2576 -0.1255
10919TIP3    H254173   1.659   2.559  14.219 -0.0324  1.2848  0.0198
10920TIP3   OH254174   1.986   5.029   1.260 -0.0392  0.2252 -0.2789
10920TIP3    H154175   1.941   5.097   1.310 -0.9438 -0.5608  0.0086
10920TIP3    H254176   2.048   4.990   1.322 -0.0056  0.3243 -0.2495
10921TIP3   OH254177   4.851   3.422  12.498  0.0094  0.8066  0.0047
10921TIP3    H154178   4.820   3.369  12.424  1.1414 -2.4370  1.6453
10921TIP3    H254179   4.943   3.437  12.480  0.1999  0.3290  0.5578
10922TIP3   OH254180   2.452   1.498   4.349  0.5109 -0.0192 -0.1289
10922TIP3    H154181   2.449   1.593   4.339  0.8288  0.2499  1.8605
10922TIP3    H254182   2.506   1.484   4.427  0.4587 -1.8380 -0.3783
10923TIP3   OH254183   0.846   3.209  13.238 -0.3290 -0.3250 -0.1745
10923TIP3    H154184   0.841   3.115  13.256 -0.0643 -0.7006 -1.8612
10923TIP3    H254185   0.755   3.235  13.224 -0.3097 -0.6022 -0.8704
10924TIP3   OH254186   5.629   0.416   4.408  0.8089 -0.0025  0.1440
10924TIP3    H154187   5.688   0.434   4.334 -0.7786 -2.7304 -1.9619
10924TIP3    H254188   5.667   0.339   4.451 -0.8292 -1.4784 -0.9300
10925TIP3   OH254189   6.200   3.317  16.194 -0.1753  0.2260 -0.6591
10925TIP3    H154190   6.112   3.281  16.204  0.2214 -0.6654 -0.1856
10925TIP3    H254191   6.240   3.264  16.125 -0.3268  1.2861 -1.5869
10926TIP3   OH254192   3.313   4.389  14.408  0.3581 -0.0405 -0.4770
10926TIP3    H154193   3.394   4.362  14.365  0.9441  0.1628  0.4604
10926TIP3    H254194   3.303   4.481  14.386  0.2494 -0.1319 -0.8036
10927TIP3   OH254195   3.128   1.769  15.937  0.3054 -0.5540  0.2198
10927TIP3    H154196   3.078   1.845  15.906 -0.5754 -0.9151  0.7073
10927TIP3    H254197   3.169   1.733  15.859  0.9157  0.5526  0.0193
10928TIP3   OH254198   1.955   4.873  12.402 -1.1385  0.3223 -0.7307
10928TIP3    H154199   1.913   4.936  12.461  1.5351  1.5982 -0.0750
10928TIP3    H254200   1.951   4.915  12.316 -2.4373 -0.2328 -0.9677
10929TIP3   OH254201   1.897   0.551   6.337 -0.1216  0.0025 -0.1142
10929TIP3    H154202   1.974   0.508   6.299  0.7562  3.0904 -2.2148
10929TIP3    H254203   1.928   0.587   6.420 -0.2237 -1.2885  0.5164
10930TIP3   OH254204   2.939   6.739  16.979  0.3992 -0.0385 -0.0865
10930TIP3    H154205   2.911   6.828  16.956  0.8082 -0.0465 -0.6409
10930TIP3    H254206   2.987   6.750  17.061  2.2521  0.5972 -1.1779
10931TIP3   OH254207   6.761   4.491   1.543  0.4728  0.5497  0.0461
10931TIP3    H154208   6.777   4.531   1.458  2.1344  0.7747  0.4136
10931TIP3    H254209   6.714   4.557   1.593 -1.4672  0.0287 -0.9785
10932TIP3   OH254210   1.218   2.154  16.007 -0.5047  0.1244  0.4764
10932TIP3    H154211   1.156   2.192  15.944  1.2297  1.9847 -0.2407
10932TIP3    H254212   1.273   2.228  16.034 -0.2532 -0.9198  3.1198
10933TIP3   OH254213   3.334   3.388   3.631  0.7174 -0.1334 -0.2318
10933TIP3    H154214   3.422   3.403   3.667 -0.2845  1.0083  1.9145
10933TIP3    H254215   3.288   3.340   3.700 -1.0491  1.3895 -0.2784
10934TIP3   OH254216   0.493   5.060  12.711  0.0456  0.5858 -0.4640
10934TIP3    H154217   0.399   5.050  12.728 -0.1787  2.1679 -0.6398
10934TIP3    H254218   0.525   5.112  12.785  1.7795 -3.6644  2.1529
10935TIP3   OH254219   5.214   2.157   4.770 -0.7511  0.2579  0.3241
10935TIP3    H154220   5.192   2.066   4.791 -1.4538  0.6153  1.2097
10935TIP3    H254221   5.131   2.194   4.738 -0.4305  0.5456 -0.1794
10936TIP3   OH254222   1.050   6.005   1.840 -0.3991 -0.2205  0.2324
10936TIP3    H154223   1.118   5.976   1.901 -0.6978  0.7356  1.0575
10936TIP3    H254224   0.987   5.933   1.838 -1.1957  0.3420  2.3354
10937TIP3   OH254225   6.266   5.882  15.377 -0.0679 -0.1969 -0.4303
10937TIP3    H154226   6.317   5.956  15.345 -2.1230  1.6844  0.4325
10937TIP3    H254227   6.197   5.870  15.311  0.1062 -1.2118 -0.4459
10938TIP3   OH254228   3.379   3.603  10.795  0.0111 -0.3007  0.3814
10938TIP3    H154229   3.286   3.581  10.785  1.1207 -5.5449 -1.1912
10938TIP3    H254230   3.384   3.643  10.882 -3.6606  0.1076  0.5711
10939TIP3   OH254231   1.340   6.368  15.197 -0.2481 -0.9917 -0.5187
10939TIP3    H154232   1.397   6.350  15.271  1.7979 -0.3453 -1.8426
10939TIP3    H254233   1.314   6.282  15.165 -1.8142 -1.2845  1.3357
10940TIP3   OH254234   6.111   4.319  12.136 -0.3134 -0.2513  0.1715
10940TIP3    H154235   6.164   4.385  12.180  0.0923  0.6641 -1.6081
10940TIP3    H254236   6.025   4.358  12.128 -0.1080  0.0332 -0.7630
10941TIP3   OH254237   5.333   3.460   0.383 -0.3735 -0.4092  0.2123
10941TIP3    H154238   5.286   3.377   0.385 -0.5737 -0.3517 -0.9721
10941TIP3    H254239   5.414   3.441   0.334 -0.0341 -0.0954  0.6455
10942TIP3   OH254240   6.104   4.638  15.245 -1.1896 -0.5474  0.9101
10942TIP3    H154241   6.017   4.598  15.253 -0.5710 -1.9334  0.8840
10942TIP3    H254242   6.118   4.644  15.150 -0.7582 -1.4539  0.9122
10943TIP3   OH254243   1.640   1.894  11.668 -0.2490  0.9531  0.1110
10943TIP3    H154244   1.584   1.819  11.646  0.2254  1.2914 -2.6201
10943TIP3    H254245   1.729   1.861  11.657 -0.0359  1.8582 -1.0360
10944TIP3   OH254246   2.504   2.924   1.971  0.1440 -0.0867  0.0198
10944TIP3    H154247   2.461   2.916   1.886  1.3146 -1.6663 -0.4891
10944TIP3    H254248   2.546   3.010   1.970 -1.3366  0.6636 -0.2359
10945TIP3   OH254249   1.813   1.745   4.103 -0.0163  0.5400  0.5071
10945TIP3    H154250   1.789   1.830   4.140 -0.8159  0.1277  0.9679
10945TIP3    H254251   1.894   1.721   4.148 -1.4124 -0.3627  2.7353
10946TIP3   OH254252   6.153   6.744   3.559  0.1263 -0.2155 -0.2638
10946TIP3    H154253   6.141   6.772   3.468 -2.1099 -0.6605 -0.1651
10946TIP3    H254254   6.069   6.761   3.601  1.2846  0.5248  1.9155
10947TIP3   OH254255   5.883   6.746  15.917  0.7828 -0.2617  0.1067
10947TIP3    H154256   5.894   6.678  15.850 -0.3411 -1.1844  0.8351
10947TIP3    H254257   5.965   6.742  15.967  1.4786  0.1752 -0.9403
10948TIP3   OH254258   4.818   3.405  17.141 -0.8217  0.1412 -0.0574
10948TIP3    H154259   4.776   3.393  17.225  0.9371  3.3732  1.5037
10948TIP3    H254260   4.909   3.379  17.155 -0.7953 -0.5772 -1.3837
10949TIP3   OH254261   2.889   1.520   0.149  0.1163 -0.4456 -0.6761
10949TIP3    H154262   2.816   1.493   0.204 -0.1861  1.2520 -0.2122
10949TIP3    H254263   2.965   1.517   0.207  0.1087 -0.4417 -0.6660
10950TIP3   OH254264   3.163   2.735   3.629 -0.4022 -0.4246 -0.2584
10950TIP3    H154265   3.101   2.785   3.682 -0.0882  0.2569 -0.5276
10950TIP3    H254266   3.243   2.787   3.629 -0.2341 -0.6664 -0.9721
10951TIP3   OH254267   3.294   5.123  14.306 -0.6564 -0.6276 -0.5869
10951TIP3    H154268   3.234   5.054  14.277 -2.6579  0.5539  0.5264
10951TIP3    H254269   3.246   5.169  14.374  1.9658 -0.2302  1.1227
10952TIP3   OH254270   2.860   1.941   3.203  0.3962  0.1821 -0.3935
10952TIP3    H154271   2.856   2.032   3.173  0.6537  0.3988  0.2142
10952TIP3    H254272   2.776   1.903   3.178  0.1469  0.6897 -0.3318
10953TIP3   OH254273   1.904   0.686   6.076  0.0803 -0.2535  0.1867
10953TIP3    H154274   1.900   0.756   6.141  3.3604  0.5487 -0.2872
10953TIP3    H254275   1.963   0.621   6.115 -0.1116 -1.0663 -0.8442
10954TIP3   OH254276   5.654   1.727   4.362  0.2248  0.1650  0.0893
10954TIP3    H154277   5.668   1.677   4.442 -1.2424 -1.6147 -0.6844
10954TIP3    H254278   5.660   1.662   4.292 -2.4151  0.8854 -0.9230
10955TIP3   OH254279   2.143   2.489  15.037 -0.1767 -0.0418 -0.4249
10955TIP3    H154280   2.188   2.422  14.984 -0.3318  0.3287 -1.0404
10955TIP3    H254281   2.183   2.483  15.123 -0.0871 -0.8336 -0.5136
10956TIP3   OH254282   1.072   0.454  13.455  0.3444  0.3224  0.2560
10956TIP3    H154283   1.140   0.520  13.467 -0.5584  1.0640  1.6244
10956TIP3    H254284   1.106   0.395  13.388  2.4853  0.4581  1.1523
10957TIP3   OH254285   0.752   6.070  11.162 -0.1160 -1.1797 -0.3438
10957TIP3    H154286   0.844   6.090  11.144 -0.3885  1.8813  0.9524
10957TIP3    H254287   0.704   6.145  11.127 -1.6080 -0.3998  2.9584
10958TIP3   OH254288   6.054   0.113   4.371 -0.2464  0.3174 -0.2366
10958TIP3    H154289   6.098   0.172   4.432  3.2122 -0.7694 -1.4532
10958TIP3    H254290   6.039   0.033   4.421 -1.4218  0.8883  0.3464
10959TIP3   OH254291   2.928   6.692   1.404 -0.3314 -0.0063  0.0898
10959TIP3    H154292   2.877   6.613   1.393 -0.4186 -0.3574  2.4202
10959TIP3    H254293   2.879   6.760   1.358 -2.3293 -0.5644  1.2834
10960TIP3   OH254294   3.954   4.620  16.890  0.1385 -0.5368 -0.0546
10960TIP3    H154295   3.908   4.548  16.846 -1.2724 -0.3841  1.0637
10960TIP3    H254296   4.030   4.578  16.930 -0.5787 -1.4164  0.4502
10961TIP3   OH254297   1.767   1.498   5.778 -0.0545 -0.3254 -0.2933
10961TIP3    H154298   1.752   1.405   5.795 -0.6122  0.0345  1.4323
10961TIP3    H254299   1.792   1.534   5.864 -2.4983  1.5981 -0.2707
10962TIP3   OH254300   0.109   3.315   4.061 -0.2531  0.0244  0.1161
10962TIP3    H154301   0.092   3.228   4.025 -1.4778  1.4711 -3.0901
10962TIP3    H254302   0.023   3.352   4.078  0.2631  0.3128  2.5324
10963TIP3   OH254303   3.767   2.933   1.230  0.0857  0.0797 -0.3646
10963TIP3    H154304   3.688   2.888   1.200  0.0099  0.8711 -1.4169
10963TIP3    H254305   3.735   3.007   1.281  0.1823 -0.2571  0.1946
10964TIP3   OH254306   0.446   6.640   1.901 -0.3050  0.0678 -0.5474
10964TIP3    H154307   0.368   6.591   1.874 -0.7567  0.7946 -0.5901
10964TIP3    H254308   0.507   6.573   1.931 -1.4354 -0.4312  0.7488
10965TIP3   OH254309   0.388   4.051   5.469  0.7355  0.1883  0.2933
10965TIP3    H154310   0.371   4.046   5.563  1.2246  1.5525  0.4827
10965TIP3    H254311   0.435   4.134   5.458  0.3193  0.2503 -1.2042
10966TIP3   OH254312   0.249   2.537  14.589 -0.3208 -0.4452  0.3919
10966TIP3    H154313   0.203   2.472  14.641 -0.0282 -0.8012  0.2084
10966TIP3    H254314   0.211   2.621  14.616 -1.2773 -0.7450  0.0379
10967TIP3   OH254315   4.825   5.907  14.674  0.0437  0.3602 -0.3000
10967TIP3    H154316   4.857   5.817  14.667  0.8865  0.4210  1.9884
10967TIP3    H254317   4.735   5.903  14.640 -0.2941 -1.5849  0.6599
10968TIP3   OH254318   3.231   3.009  12.461 -0.7632 -0.2563 -0.3135
10968TIP3    H154319   3.270   2.983  12.378 -0.1133 -0.3029  0.0014
10968TIP3    H254320   3.301   2.998  12.525 -1.7983 -2.1934  0.5999
10969TIP3   OH254321   2.191   3.977  15.332  0.6101  0.5259 -0.0475
10969TIP3    H154322   2.119   3.913  15.322  1.0707 -0.1569  0.8555
10969TIP3    H254323   2.184   4.033  15.254 -0.0427 -0.3895 -0.6764
10970TIP3   OH254324   0.821   4.293  16.178  0.5749  0.1528 -0.0011
10970TIP3    H154325   0.872   4.286  16.260  3.5440  0.5638 -1.6650
10970TIP3    H254326   0.757   4.222  16.183  1.4417 -0.5576  2.1615
10971TIP3   OH254327   4.767   1.031   6.301 -0.3901  0.3088 -0.0343
10971TIP3    H154328   4.736   0.969   6.367  0.2501  0.7798  0.7286
10971TIP3    H254329   4.851   1.062   6.335 -0.7880  1.7619 -0.2866
10972TIP3   OH254330   2.812   6.658   3.694  0.3931 -0.0931 -0.6009
10972TIP3    H154331   2.843   6.624   3.778 -0.8441 -1.4978 -0.6540
10972TIP3    H254332   2.814   6.582   3.636 -1.3945  0.1714 -1.0579
10973TIP3   OH254333   5.966   2.900   4.446  0.1216 -0.0643  0.5899
10973TIP3    H154334   5.935   2.845   4.519 -1.7316 -1.5484 -1.2070
10973TIP3    H254335   5.947   2.989   4.474 -1.3020 -0.6408  1.6049
10974TIP3   OH254336   2.910   4.555   2.097  0.1374 -0.2787 -0.1617
10974TIP3    H154337   2.988   4.584   2.050  0.1620 -1.0755 -0.6340
10974TIP3    H254338   2.902   4.462   2.075 -1.2377 -0.0909 -0.5357
10975TIP3   OH254339   1.588   6.251   0.819  0.2225  0.3627  0.8978
10975TIP3    H154340   1.546   6.222   0.900 -0.9871 -0.0640  0.1361
10975TIP3    H254341   1.631   6.333   0.843 -1.4620  1.0962  1.6000
10976TIP3   OH254342   3.225   5.977  14.028 -0.3455  0.1880  0.3458
10976TIP3    H154343   3.207   6.070  14.043 -0.5099 -0.1045  2.1352
10976TIP3    H254344   3.307   5.961  14.074  0.2844 -0.3279 -0.9030
10977TIP3   OH254345   2.079   3.871  12.998  0.1399  0.3114  0.0137
10977TIP3    H154346   2.158   3.921  13.020  0.6753 -0.9376  1.0306
10977TIP3    H254347   2.056   3.901  12.910  1.3706  1.1671 -0.0422
10978TIP3   OH254348   2.074   6.731  14.416 -0.7750  0.5885  0.2704
10978TIP3    H154349   2.064   6.689  14.330  0.3006  0.5630  0.1493
10978TIP3    H254350   2.109   6.818  14.397  0.4750  0.2126  0.7150
10979TIP3   OH254351   3.782   3.025  13.867 -0.0266  0.0562 -0.1407
10979TIP3    H154352   3.727   3.102  13.882 -0.0483  0.0256 -0.0628
10979TIP3    H254353   3.772   3.006  13.774  0.3258  0.4135 -0.2533
10980TIP3   OH254354   3.290   5.106   3.669 -0.0142  0.6059  0.2247
10980TIP3    H154355   3.331   5.075   3.750  1.6818 -0.5764 -1.0137
10980TIP3    H254356   3.266   5.026   3.622  1.8386  1.1434 -1.7858
10981TIP3   OH254357   3.568   5.311  12.897 -0.3184  0.2751  0.0804
10981TIP3    H154358   3.493   5.299  12.838 -0.2134  0.5580 -0.1138
10981TIP3    H254359   3.644   5.284  12.845 -0.3289 -0.4184  0.4209
10982TIP3   OH254360   0.888   6.757   3.648 -0.3275 -0.1314 -0.0197
10982TIP3    H154361   0.821   6.740   3.715 -2.7517  0.2312 -2.2016
10982TIP3    H254362   0.847   6.731   3.566  1.4703  2.0254 -1.7182
10983TIP3   OH254363   3.532   6.179   1.488 -0.1687  0.1488 -0.5185
10983TIP3    H154364   3.451   6.208   1.530  0.1673  0.4390 -0.0552
10983TIP3    H254365   3.591   6.159   1.561 -1.2563 -4.5544 -0.6390
10984TIP3   OH254366   6.402   6.793   0.392  0.0027 -0.3781  0.9027
10984TIP3    H154367   6.464   6.766   0.324 -0.8691 -0.6872  0.2174
10984TIP3    H254368   6.453   6.791   0.473  1.0759  0.0769  0.2528
10985TIP3   OH254369   6.410   5.858  13.257 -0.2231 -0.0777 -0.3001
10985TIP3    H154370   6.380   5.864  13.167  0.5329 -0.8307 -0.6119
10985TIP3    H254371   6.476   5.790  13.256 -0.9945 -0.8880  1.0377
10986TIP3   OH254372   5.986   1.216  10.700 -0.4347  0.1504 -0.6973
10986TIP3    H154373   5.970   1.310  10.692  0.9250  0.3800 -0.7930
10986TIP3    H254374   6.059   1.209  10.761 -1.5635 -0.9406  0.5961
10987TIP3   OH254375   1.612   1.124   3.504 -0.1300 -0.4493 -0.3667
10987TIP3    H154376   1.552   1.093   3.436 -1.5887  0.7110  0.3185
10987TIP3    H254377   1.615   1.053   3.568 -2.0000  0.0220  0.3127
10988TIP3   OH254378   1.378   1.288  14.473 -0.1026  0.4121  0.6270
10988TIP3    H154379   1.409   1.198  14.477  1.2492  0.8808  1.4276
10988TIP3    H254380   1.443   1.338  14.521 -1.2760  1.7096  0.9451
10989TIP3   OH254381   6.328   6.369   1.771  0.3067  0.1302 -0.5362
10989TIP3    H154382   6.421   6.351   1.779  0.3858  0.0395 -1.5258
10989TIP3    H254383   6.321   6.429   1.697 -0.3483  0.8046  0.0584
10990TIP3   OH254384   0.782   2.767  15.126 -0.4979  0.3152  0.2719
10990TIP3    H154385   0.857   2.708  15.125 -1.2565 -0.6652 -0.9052
10990TIP3    H254386   0.816   2.850  15.093  0.0824 -0.0960 -0.1788
10991TIP3   OH254387   5.729   5.206   5.696 -0.8718 -0.2350  0.0838
10991TIP3    H154388   5.741   5.260   5.774  2.4988  1.0496 -1.1579
10991TIP3    H254389   5.663   5.252   5.645 -0.2532  1.0680  0.4229
10992TIP3   OH254390   4.966   3.693  14.904  0.4424 -0.3171  0.1147
10992TIP3    H154391   4.932   3.709  14.992  0.2880  0.3054 -0.0477
10992TIP3    H254392   4.937   3.769  14.853  0.1735 -0.8705 -0.5766
10993TIP3   OH254393   4.781   3.361   2.881 -0.4392 -0.3491  0.7308
10993TIP3    H154394   4.874   3.365   2.859 -0.7106  0.8217 -0.3643
10993TIP3    H254395   4.768   3.433   2.943 -0.3825 -1.3570  1.9487
10994TIP3   OH254396   4.782   4.198   5.579 -0.7878  0.1340 -0.6874
10994TIP3    H154397   4.801   4.124   5.521  0.2590  1.1398 -1.7149
10994TIP3    H254398   4.843   4.266   5.550 -1.7876  1.4312  0.1510
10995TIP3   OH254399   5.818   6.670  12.847 -0.4770  0.4091  0.4687
10995TIP3    H154400   5.877   6.627  12.910 -0.5015 -1.2493 -0.5746
10995TIP3    H254401   5.761   6.725  12.901  1.7876  1.8245  1.5353
10996TIP3   OH254402   5.066   1.864   0.855  0.3869 -0.3330  0.0963
10996TIP3    H154403   5.159   1.857   0.875  0.4389 -0.5414 -0.2147
10996TIP3    H254404   5.059   1.835   0.764  0.2799  1.4125 -0.4978
10997TIP3   OH254405   6.788   6.305  12.315  0.1186 -0.1060  0.0628
10997TIP3    H154406   6.696   6.282  12.328  0.0302  0.1842 -0.0490
10997TIP3    H254407   6.823   6.234  12.262 -0.6125  0.9291 -1.9213
10998TIP3   OH254408   1.042   5.581   5.566 -0.2420  0.0777 -0.0007
10998TIP3    H154409   1.045   5.677   5.558 -0.8848 -0.0567 -4.2932
10998TIP3    H254410   1.120   5.551   5.519  0.3709 -1.5923  1.9605
10999TIP3   OH254411   0.427   2.196  12.071 -0.2348 -0.2426 -0.0529
10999TIP3    H154412   0.431   2.100  12.072  0.0184 -0.2518  1.3969
10999TIP3    H254413   0.334   2.216  12.064 -0.3431 -0.6131  0.2963
11000TIP3   OH254414   3.048   2.015   4.095  0.0336  0.0410  0.1898
11000TIP3    H154415   3.061   1.924   4.123 -0.6529  0.1065  0.7322
11000TIP3    H254416   2.973   2.045   4.145  0.2570  0.9172  0.0095
11001TIP3   OH254417   3.868   4.145  16.654 -0.3748 -0.4762 -0.2071
11001TIP3    H154418   3.911   4.065  16.625  0.6730  0.2345 -0.7036
11001TIP3    H254419   3.894   4.211  16.590  0.8907  0.8375  1.5347
11002TIP3   OH254420   5.171   1.458   4.734  0.2899 -0.4331  0.2267
11002TIP3    H154421   5.209   1.512   4.804 -1.6427 -1.4483  2.1756
11002TIP3    H254422   5.243   1.447   4.671  2.4964 -0.2978  2.5357
11003TIP3   OH254423   3.272   1.702  11.831  0.0819 -0.3844 -0.2370
11003TIP3    H154424   3.228   1.623  11.864  0.3657 -0.0951  0.9029
11003TIP3    H254425   3.358   1.700  11.873  0.2716  0.2837 -0.5871
11004TIP3   OH254426   5.173   2.213   1.612  0.1493 -0.1387  0.0446
11004TIP3    H154427   5.162   2.146   1.679  0.3729 -0.2500 -0.0296
11004TIP3    H254428   5.084   2.228   1.578 -0.0257  0.2040  0.6386
11005TIP3   OH254429   2.428   4.983  14.999  0.1385 -0.0083  0.0414
11005TIP3    H154430   2.367   4.950  14.933  1.9808 -1.7234 -0.8688
11005TIP3    H254431   2.432   5.077  14.982 -1.5532  0.0255 -0.4230
11006TIP3   OH254432   1.080   2.527   5.179 -0.3983 -0.5072  0.0284
11006TIP3    H154433   1.041   2.533   5.092 -0.2354  1.8894  0.0552
11006TIP3    H254434   1.170   2.556   5.168 -0.2482 -0.5849  0.9189
11007TIP3   OH254435   3.005   3.021   4.391  0.1744 -0.3935 -0.4288
11007TIP3    H154436   2.955   2.962   4.448  0.7568 -0.8116 -0.3360
11007TIP3    H254437   2.963   3.013   4.305  0.0125 -0.6630 -0.3265
11008TIP3   OH254438   0.427   5.381  10.842  0.1047  0.7483  0.2647
11008TIP3    H154439   0.484   5.372  10.766 -2.4735 -0.3364 -1.6901
11008TIP3    H254440   0.443   5.302  10.894 -0.2374  0.0080 -0.7411
11009TIP3   OH254441   2.933   1.514  15.790  0.3532  0.0378  0.5508
11009TIP3    H154442   2.940   1.508  15.885  0.4491  0.8087  0.6029
11009TIP3    H254443   2.883   1.437  15.764 -0.6517  0.4047  1.3395
11010TIP3   OH254444   6.304   1.137   3.992  0.1799 -0.1199  0.6863
11010TIP3    H154445   6.334   1.227   3.979 -0.2209 -0.1807 -0.7418
11010TIP3    H254446   6.300   1.128   4.088  0.7952  1.1787  0.8646
11011TIP3   OH254447   6.514   5.174  15.219  0.6125  0.0019 -0.0544
11011TIP3    H154448   6.521   5.211  15.307 -0.9620  1.9180 -0.6606
11011TIP3    H254449   6.554   5.087  15.226  0.7888  0.2141  2.4620
11012TIP3   OH254450   3.557   1.870  11.305 -0.3542  0.2289 -0.0193
11012TIP3    H154451   3.513   1.792  11.338 -0.0712 -0.1962 -0.6235
11012TIP3    H254452   3.581   1.848  11.214  1.1084  0.4306  0.2860
11013TIP3   OH254453   6.007   6.584   4.836 -0.0335 -0.2544  0.5522
11013TIP3    H154454   6.076   6.525   4.865  1.5049  1.8809  1.5526
11013TIP3    H254455   5.929   6.555   4.884 -0.2208 -3.3491 -1.3638
11014TIP3   OH254456   6.046   5.270  15.138  0.2596  0.3965 -0.0300
11014TIP3    H154457   6.077   5.201  15.196  0.2191  0.9153  0.6167
11014TIP3    H254458   5.979   5.228  15.084  0.3947 -0.1188  0.1961
11015TIP3   OH254459   2.952   0.013  11.757  0.6991 -0.5866 -0.0722
11015TIP3    H154460   2.866   0.039  11.792  1.1315 -1.0179  1.3799
11015TIP3    H254461   3.001  -0.017  11.833  0.9210 -3.8076 -1.3080
11016TIP3   OH254462   0.550   4.344   4.614 -0.4245 -0.0710  0.0515
11016TIP3    H154463   0.553   4.280   4.543 -1.0108  0.0849 -0.1257
11016TIP3    H254464   0.517   4.295   4.689 -2.8234  0.4152 -0.5850
11017TIP3   OH254465   4.661   2.680   0.671  0.2219  0.2294 -0.0100
11017TIP3    H154466   4.736   2.640   0.716 -1.7134 -1.8784  1.6040
11017TIP3    H254467   4.662   2.771   0.700  0.4174 -0.5111  2.5931
11018TIP3   OH254468   2.982   6.155   4.948  0.1619 -0.3985  0.7096
11018TIP3    H154469   2.948   6.091   5.011 -0.5886 -0.9908 -0.2700
11018TIP3    H254470   3.077   6.153   4.960  0.0013  0.0344  2.3184
11019TIP3   OH254471   4.693   4.731  16.826  0.1695 -0.2287  0.6347
11019TIP3    H154472   4.787   4.722  16.809 -0.0688  0.2461 -1.1560
11019TIP3    H254473   4.667   4.807  16.775 -1.2378 -0.4869  0.9398
11020TIP3   OH254474   5.120   2.787  12.321 -0.1114  0.2346 -0.0359
11020TIP3    H154475   5.097   2.730  12.248  1.9274 -1.1243  0.3081
11020TIP3    H254476   5.204   2.826  12.296 -0.2283  1.1131  0.8575
11021TIP3   OH254477   0.691   6.403  12.298  0.4349  0.5209 -0.4152
11021TIP3    H154478   0.656   6.473  12.354 -2.1046 -1.1401  0.2511
11021TIP3    H254479   0.651   6.418  12.212  0.9646  0.6647 -0.6357
11022TIP3   OH254480   1.738   2.832   6.129 -0.4387 -0.0504 -0.4457
11022TIP3    H154481   1.821   2.858   6.089 -0.2598  2.0023  1.1535
11022TIP3    H254482   1.762   2.763   6.191  0.2519  1.2445  0.7526
11023TIP3   OH254483   5.595   6.751   4.015 -0.2113  0.3783 -0.2427
11023TIP3    H154484   5.618   6.658   4.024 -1.9137 -0.0346  0.1258
11023TIP3    H254485   5.680   6.796   4.013  0.7334 -1.3048 -2.1215
11024TIP3   OH254486   2.672   6.374  11.593 -0.0570 -0.3034  0.3494
11024TIP3    H154487   2.590   6.418  11.613  0.4519  0.1569  1.5020
11024TIP3    H254488   2.646   6.287  11.564 -0.8945 -0.9995  2.9201
11025TIP3   OH254489   1.021   1.436   2.123  0.2534 -0.3135 -0.2952
11025TIP3    H154490   0.997   1.460   2.212  0.5838 -1.5198  0.1441
11025TIP3    H254491   1.110   1.470   2.112  0.1423 -0.0011 -0.2340
11026TIP3   OH254492   4.792   5.422  10.877 -0.6023 -0.9249 -0.6107
11026TIP3    H154493   4.816   5.444  10.967 -1.4160  0.5941 -0.7396
11026TIP3    H254494   4.874   5.424  10.828 -0.0358 -2.4925  0.2061
11027TIP3   OH254495   3.512   4.330   1.639 -0.0965  0.4797 -0.3397
11027TIP3    H154496   3.478   4.241   1.628 -0.4100  0.4528  0.6587
11027TIP3    H254497   3.606   4.323   1.626  0.0944 -0.3123  1.2244
11028TIP3   OH254498   2.609   1.348  16.624  0.5110 -0.3029 -0.1341
11028TIP3    H154499   2.563   1.413  16.571  0.8274 -0.1919 -0.2761
11028TIP3    H254500   2.663   1.400  16.684 -1.4813 -0.3375  1.8528
11029TIP3   OH254501   2.588   0.525  16.576 -0.1248  0.0807 -0.5303
11029TIP3    H154502   2.510   0.474  16.557 -0.9605  0.0026  2.4935
11029TIP3    H254503   2.660   0.462  16.574 -1.1369 -1.4833  3.1721
11030TIP3   OH254504   4.555   2.065   2.820  0.0142 -0.8674 -0.3773
11030TIP3    H154505   4.491   2.119   2.774  0.6677 -1.3866 -1.9819
11030TIP3    H254506   4.503   2.013   2.882 -0.6755  1.1915  0.8832
11031TIP3   OH254507   2.683   2.865  13.036 -0.0424 -0.5006  0.8950
11031TIP3    H154508   2.610   2.860  13.098 -0.9746 -0.5100 -0.1687
11031TIP3    H254509   2.711   2.774  13.026 -1.3689 -0.8274 -0.3508
11032TIP3   OH254510   4.799   5.104  15.248  0.2619 -0.2217 -0.3103
11032TIP3    H154511   4.829   5.055  15.324  0.5279  1.9666  1.0818
11032TIP3    H254512   4.879   5.126  15.200  0.1798 -0.7750 -0.7076
11033TIP3   OH254513   5.243   3.454  14.720 -0.3983  0.5358  0.2237
11033TIP3    H154514   5.193   3.408  14.652 -0.3421  0.8000  0.0005
11033TIP3    H254515   5.209   3.419  14.802 -0.3744  0.1164  0.0575
11034TIP3   OH254516   2.656   1.029   1.097 -0.0643  0.1085 -0.5694
11034TIP3    H154517   2.661   1.060   1.187  0.0324 -0.4205 -0.3892
11034TIP3    H254518   2.603   1.095   1.051 -1.3579 -0.3571  0.2035
11035TIP3   OH254519   3.516   4.437   1.912 -0.3973  1.0090  0.3632
11035TIP3    H154520   3.579   4.371   1.942 -0.7436  0.5750  0.1496
11035TIP3    H254521   3.489   4.406   1.825 -1.9347  0.4382  0.9992
11036TIP3   OH254522   4.045   1.238   2.136 -0.0226  0.4837  0.0332
11036TIP3    H154523   4.059   1.262   2.045 -1.2989  0.0883 -0.2733
11036TIP3    H254524   3.996   1.311   2.173  0.3996  0.5957  0.3933
11037TIP3   OH254525   6.600   3.993  14.226  0.0241 -0.2536  0.0782
11037TIP3    H154526   6.577   3.982  14.318 -0.4260  1.6024  0.2452
11037TIP3    H254527   6.598   4.088  14.212  0.4201 -0.4645 -1.7609
11038TIP3   OH254528   1.561   3.244   3.412  0.1245 -0.1660 -0.6291
11038TIP3    H154529   1.548   3.178   3.344 -1.0006 -0.4618 -0.1509
11038TIP3    H254530   1.523   3.206   3.490 -0.3863  0.9784 -0.2990
11039TIP3   OH254531   1.950   2.898  15.816  0.3254  0.3527  0.1480
11039TIP3    H154532   1.966   2.866  15.728 -0.6601 -2.7794  0.9647
11039TIP3    H254533   1.942   2.819  15.869 -3.3793  1.8730  2.2690
11040TIP3   OH254534   5.053   6.738  15.256 -0.2397 -0.4826 -0.0429
11040TIP3    H154535   5.031   6.712  15.346  0.5926 -1.0080  0.0224
11040TIP3    H254536   5.149   6.743  15.256 -0.1998 -1.0844 -1.0696
11041TIP3   OH254537   1.308   4.332  12.317  0.1416 -0.4133  0.1580
11041TIP3    H154538   1.340   4.244  12.334  0.3344 -0.3479  0.1349
11041TIP3    H254539   1.329   4.382  12.396  2.9981  0.4458 -1.0132
11042TIP3   OH254540   5.915   3.876   1.966 -0.5793  0.3154 -0.1675
11042TIP3    H154541   5.901   3.789   1.926  1.2680 -0.4587  0.7731
11042TIP3    H254542   5.838   3.888   2.022 -0.4420 -1.1448  0.3953
11043TIP3   OH254543   3.059   4.960   4.841  0.3052  0.5726 -0.0226
11043TIP3    H154544   2.998   4.944   4.912  2.3061  1.2398  1.9535
11043TIP3    H254545   3.129   4.895   4.853  1.0391  1.1583 -0.9311
11044TIP3   OH254546   6.400   4.733  16.084 -0.1981 -0.0504  0.0559
11044TIP3    H154547   6.343   4.667  16.123  0.2244 -0.2498  0.3357
11044TIP3    H254548   6.428   4.694  16.001 -1.4563  0.5566 -0.6988
11045TIP3   OH254549   5.714   3.549  14.117  0.4105  0.1678 -0.6741
11045TIP3    H154550   5.630   3.511  14.142  1.5769 -0.7769  2.1657
11045TIP3    H254551   5.779   3.482  14.142  2.1754  1.9268 -0.3321
11046TIP3   OH254552   1.030   6.177  13.437  0.2928  0.5624 -0.3951
11046TIP3    H154553   1.031   6.112  13.507  1.8643 -0.3437 -1.1753
11046TIP3    H254554   0.955   6.152  13.382  1.1726 -1.0026 -0.9800
11047TIP3   OH254555   2.988   2.939  13.330  0.1719 -0.6158  0.5177
11047TIP3    H154556   2.987   2.914  13.238  1.0150 -0.2277  0.3959
11047TIP3    H254557   3.081   2.943  13.353  0.0618  1.4665  0.7789
11048TIP3   OH254558   2.085   5.969  15.514  0.5158  0.7865  0.2639
11048TIP3    H154559   2.168   5.972  15.466  1.0591  0.2216  1.1464
11048TIP3    H254560   2.095   6.035  15.583  0.2340  0.6978  0.3912
11049TIP3   OH254561   3.824   6.420  14.804  0.3035  0.3474  0.1517
11049TIP3    H154562   3.896   6.475  14.835 -0.5731  1.7211 -0.1623
11049TIP3    H254563   3.866   6.342  14.768  1.6101  1.0159  0.1885
11050TIP3   OH254564   1.203   1.007  15.624 -0.1044  0.3968  0.6588
11050TIP3    H154565   1.254   1.089  15.620 -0.2670  0.4682 -2.0737
11050TIP3    H254566   1.122   1.028  15.578 -0.5445 -1.0532  0.7505
11051TIP3   OH254567   3.138   4.705  10.851 -0.1744 -0.1330  0.3470
11051TIP3    H154568   3.154   4.647  10.776  2.3210  1.2171 -0.2573
11051TIP3    H254569   3.131   4.793  10.812 -1.7856  0.2759  1.4504
11052TIP3   OH254570   5.303   5.080  13.733 -0.2466 -0.3331  0.2520
11052TIP3    H154571   5.332   5.072  13.824  1.3524 -2.3349 -0.3527
11052TIP3    H254572   5.269   4.993  13.712 -1.7419  0.4507 -0.7295
11053TIP3   OH254573   5.505   6.444   3.398 -0.0671  0.5594  0.0790
11053TIP3    H154574   5.430   6.494   3.431  0.2602  0.8740  0.3434
11053TIP3    H254575   5.478   6.352   3.408 -0.2359  0.6630  0.5935
11054TIP3   OH254576   3.177   3.241   4.497  0.4766 -0.3788  0.5660
11054TIP3    H154577   3.169   3.309   4.430 -0.1956  0.4486  1.4526
11054TIP3    H254578   3.128   3.166   4.462 -0.4492  0.2774  0.4178
11055TIP3   OH254579   5.331   5.143   1.678 -0.3374  0.6366  0.3815
11055TIP3    H154580   5.354   5.235   1.664 -1.7020  1.1440  1.1844
11055TIP3    H254581   5.341   5.102   1.592  2.7589  0.9032  0.5151
11056TIP3   OH254582   4.723   1.493  14.129  0.9034  0.0327 -0.0480
11056TIP3    H154583   4.754   1.403  14.119  1.3965  0.1630  0.2646
11056TIP3    H254584   4.779   1.530  14.198  0.9213  0.6734 -0.4012
11057TIP3   OH254585   0.161   2.018  11.809 -0.3875  0.1121  0.0881
11057TIP3    H154586   0.120   1.990  11.891 -0.1686 -0.2814  0.0661
11057TIP3    H254587   0.093   2.066  11.762 -0.7377 -0.3065  0.1705
11058TIP3   OH254588   4.491   4.823  16.337 -0.5547 -0.1878 -1.1701
11058TIP3    H154589   4.395   4.819  16.344 -0.4699 -1.3150 -0.2853
11058TIP3    H254590   4.510   4.915  16.322 -1.6906  0.3671  0.4858
11059TIP3   OH254591   2.702   5.805  13.880  0.2907 -0.4943 -0.0293
11059TIP3    H154592   2.772   5.840  13.935  0.7051  0.3182 -1.0307
11059TIP3    H254593   2.748   5.772  13.803 -0.4074 -0.1865 -0.5795
11060TIP3   OH254594   5.937   2.954   4.187 -0.5565 -0.3923  0.1871
11060TIP3    H154595   5.965   2.927   4.275  0.8959  0.1877 -0.0577
11060TIP3    H254596   5.869   2.892   4.163  1.1548 -2.5282  0.5105
11061TIP3   OH254597   5.117   3.320  12.744 -0.7051 -0.0273 -0.6941
11061TIP3    H154598   5.152   3.374  12.814 -1.4054 -2.4802  1.7367
11061TIP3    H254599   5.116   3.377  12.667 -0.9911  3.2129  1.5138
11062TIP3   OH254600   5.081   1.106   5.741 -0.8995 -0.7887 -0.0453
11062TIP3    H154601   5.108   1.016   5.760  3.3688  0.5112  1.3685
11062TIP3    H254602   5.033   1.134   5.820  0.5422 -0.9758  0.9432
11063TIP3   OH254603   2.393   0.526  14.995  0.9692 -0.2782 -0.1806
11063TIP3    H154604   2.335   0.547  14.922  1.8933 -2.4402 -1.6552
11063TIP3    H254605   2.450   0.602  15.003  0.1695  0.4320 -1.0539
11064TIP3   OH254606   4.373   2.298   1.607 -0.4304  0.5379 -0.2022
11064TIP3    H154607   4.358   2.237   1.679 -0.7440  0.1326 -0.6067
11064TIP3    H254608   4.327   2.378   1.634  0.0059  0.6094  0.3399
11065TIP3   OH254609   4.887   3.394   5.543 -1.0425 -0.0508 -0.1605
11065TIP3    H154610   4.807   3.341   5.551 -2.0112  1.4893  0.8115
11065TIP3    H254611   4.902   3.428   5.631  2.0857 -2.1304  0.2765
11066TIP3   OH254612   5.316   0.592  12.423 -0.6465 -0.4891  0.1605
11066TIP3    H154613   5.365   0.532  12.479 -0.4076 -0.8509 -0.4236
11066TIP3    H254614   5.262   0.643  12.484 -0.2728 -0.7575  0.7278
11067TIP3   OH254615   4.407   1.182   2.024 -0.0656  0.1109  0.1749
11067TIP3    H154616   4.452   1.261   1.994 -0.3620  0.2275  0.0304
11067TIP3    H254617   4.314   1.202   2.010 -0.1104 -0.5027 -0.4560
11068TIP3   OH254618   1.693   5.927  14.333  0.2276  0.7975 -0.1259
11068TIP3    H154619   1.657   5.981  14.404 -0.1049  1.9878 -1.1621
11068TIP3    H254620   1.752   5.985  14.286  0.7903 -0.1095 -0.5646
11069TIP3   OH254621   6.581   1.628   6.144 -0.0784  0.4315 -0.2468
11069TIP3    H154622   6.630   1.615   6.225 -0.6728 -0.0401  0.0410
11069TIP3    H254623   6.490   1.616   6.168 -0.2561  0.1749 -1.0031
11070TIP3   OH254624   0.839   6.507  17.170  0.1899  0.1159 -0.0518
11070TIP3    H154625   0.838   6.568  17.095 -2.6442 -0.5163 -0.6333
11070TIP3    H254626   0.830   6.563  17.246 -0.6839  0.5412 -0.4590
11071TIP3   OH254627   5.828   2.860  14.486  0.2074  0.5432 -0.4003
11071TIP3    H154628   5.877   2.806  14.548 -0.5567 -0.1385 -0.3564
11071TIP3    H254629   5.818   2.804  14.409 -2.7400 -0.4455  0.5372
11072TIP3   OH254630   5.435   3.360   0.800 -0.1254 -0.0182 -0.8939
11072TIP3    H154631   5.499   3.348   0.731  0.6089 -0.2485 -0.1925
11072TIP3    H254632   5.472   3.314   0.876 -0.0198  1.7576  0.2017
11073TIP3   OH254633   3.546   0.890   3.499  0.1794  0.0636 -0.0412
11073TIP3    H154634   3.507   0.810   3.534  1.7593 -0.6965  0.1036
11073TIP3    H254635   3.554   0.948   3.575  0.2647 -0.1783  0.1351
11074TIP3   OH254636   0.610   0.429  13.789  0.4653 -0.5153 -0.1936
11074TIP3    H154637   0.635   0.369  13.719  0.4459 -0.1085 -0.5618
11074TIP3    H254638   0.517   0.445  13.775  0.5597 -0.0740 -0.3668
11075TIP3   OH254639   6.074   0.703   3.725  0.2007  0.5153  0.0568
11075TIP3    H154640   6.049   0.764   3.655  1.3975  0.2729 -0.6021
11075TIP3    H254641   6.127   0.636   3.681  0.2605 -0.1083  1.0523
11076TIP3   OH254642   2.561   5.275  15.208 -0.7550  0.0985  0.2751
11076TIP3    H154643   2.552   5.346  15.271  2.2883  0.0733  0.8796
11076TIP3    H254644   2.491   5.214  15.230 -1.3738  1.3337  1.9143
11077TIP3   OH254645   1.271   4.228   3.975 -0.4914  0.3163 -0.0305
11077TIP3    H154646   1.228   4.166   3.916 -0.4556 -0.0649  0.3392
11077TIP3    H254647   1.349   4.256   3.928  0.5648 -1.4378  0.5933
11078TIP3   OH254648   5.269   1.164   4.726  0.2044 -0.3010 -0.0536
11078TIP3    H154649   5.256   1.094   4.791  0.5433  0.4480  0.8463
11078TIP3    H254650   5.285   1.242   4.779  5.1592 -0.4461 -0.9087
11079TIP3   OH254651   2.291   1.953   2.909 -0.6439  0.0087 -0.3888
11079TIP3    H154652   2.343   1.873   2.915  0.2869  0.6511  0.3515
11079TIP3    H254653   2.224   1.943   2.977  0.9596  0.8878  1.3972
11080TIP3   OH254654   0.631   0.944   0.034  0.1438  0.0046 -0.3158
11080TIP3    H154655   0.568   1.013   0.017 -1.2938 -1.1886  0.0000
11080TIP3    H254656   0.716   0.987   0.025 -0.6717  1.4833 -1.4888
11081TIP3   OH254657   3.857   5.483   4.603 -0.2429  0.1328 -0.2426
11081TIP3    H154658   3.936   5.537   4.613 -0.5638  0.5450  0.0861
11081TIP3    H254659   3.870   5.437   4.520  2.0310 -2.5874  1.4174
11082TIP3   OH254660   3.658   3.416   5.495  0.3351 -0.2289 -0.1237
11082TIP3    H154661   3.694   3.333   5.526  0.6875 -1.4406 -3.3221
11082TIP3    H254662   3.563   3.402   5.496  0.2122  0.4501  1.9635
11083TIP3   OH254663   3.341   5.349  14.842 -0.0008  0.2611 -0.3576
11083TIP3    H154664   3.379   5.271  14.803  0.9002  1.1824 -1.3932
11083TIP3    H254665   3.414   5.394  14.883 -0.5272  0.5043  0.3317
11084TIP3   OH254666   5.906   4.123  12.018  0.5223  0.7717 -0.5534
11084TIP3    H154667   5.853   4.070  11.959  0.5382 -0.5414  0.5734
11084TIP3    H254668   5.978   4.154  11.964  1.6914 -2.1252 -0.7996
11085TIP3   OH254669   0.513   4.200   5.723  0.2753  0.8343 -0.7522
11085TIP3    H154670   0.441   4.262   5.714 -0.1739  0.7348  1.5382
11085TIP3    H254671   0.592   4.253   5.715 -0.1002  1.7440  1.0253
11086TIP3   OH254672   2.014   1.220   0.738 -0.1928  0.6562 -0.1092
11086TIP3    H154673   2.089   1.173   0.775 -0.3149 -0.0155 -0.6904
11086TIP3    H254674   1.947   1.216   0.806 -0.5388 -0.8844 -0.5026
11087TIP3   OH254675   2.321   2.382   1.448 -0.2585 -0.4409 -0.2029
11087TIP3    H154676   2.328   2.438   1.371  1.5539  1.8278  1.4682
11087TIP3    H254677   2.396   2.322   1.441  0.1418  0.0323 -0.0373
11088TIP3   OH254678   0.153   5.564   5.736 -0.2246 -0.2291 -0.1059
11088TIP3    H154679   0.170   5.492   5.796 -1.4902  1.2657  2.1681
11088TIP3    H254680   0.239   5.585   5.699  0.4757 -1.6348  0.6395
11089TIP3   OH254681   4.145   3.994  16.810  0.1952  0.1531 -1.1493
11089TIP3    H154682   4.239   3.980  16.819  0.2172  0.9697  0.1582
11089TIP3    H254683   4.136   4.088  16.793 -0.4730  0.5095  0.9405
11090TIP3   OH254684   3.764   1.065   2.284  0.3699 -0.5910  0.4418
11090TIP3    H154685   3.823   1.086   2.356 -0.1219  0.4082  0.5625
11090TIP3    H254686   3.709   1.143   2.274 -0.3433 -1.1676 -0.2439
11091TIP3   OH254687   5.039   6.015   6.221  0.4874 -0.5334  0.0791
11091TIP3    H154688   4.973   6.023   6.153  0.4607 -0.7230  0.0806
11091TIP3    H254689   5.032   5.924   6.251  0.6363 -0.5092  0.1926
11092TIP3   OH254690   3.316   2.551  15.498  0.7553 -0.6080  0.1287
11092TIP3    H154691   3.365   2.592  15.427 -0.7739  0.1673 -0.5390
11092TIP3    H254692   3.335   2.458  15.491  1.0519 -0.4762 -0.9574
11093TIP3   OH254693   0.744   0.289   6.052 -0.4452 -0.8339  0.1377
11093TIP3    H154694   0.661   0.272   6.097 -0.9304  0.6104 -0.1474
11093TIP3    H254695   0.811   0.259   6.113 -1.1250 -0.1119  1.2800
11094TIP3   OH254696   3.495   2.582   2.573  0.0016 -0.1979  0.1372
11094TIP3    H154697   3.533   2.575   2.661  0.4475  0.6119  0.0203
11094TIP3    H254698   3.447   2.500   2.561 -0.0815 -0.3104  1.1435
11095TIP3   OH254699   1.511   1.348   2.415  0.0372  0.2802 -0.3765
11095TIP3    H154700   1.601   1.373   2.435 -0.0140  0.3255 -0.1995
11095TIP3    H254701   1.499   1.372   2.323 -0.2792  1.7028  0.0033
11096TIP3   OH254702   6.527   5.210  14.935  0.2612  0.0411 -0.4314
11096TIP3    H154703   6.538   5.193  15.028 -3.2418 -1.8957 -0.1992
11096TIP3    H254704   6.453   5.271  14.930  2.6306  3.1304 -1.9740
11097TIP3   OH254705   4.136   6.539  11.391  0.2933 -0.7657  0.3589
11097TIP3    H154706   4.125   6.455  11.434 -0.6259 -0.7585  0.1683
11097TIP3    H254707   4.212   6.579  11.433 -0.1983 -1.0329  1.5213
11098TIP3   OH254708   2.548   3.116   2.639 -0.3638  0.0499  0.0409
11098TIP3    H154709   2.519   3.107   2.730 -0.3890  1.1112  0.1517
11098TIP3    H254710   2.538   3.209   2.620 -0.3342 -0.1569 -1.0491
11099TIP3   OH254711   4.817   4.148  13.436 -0.2646 -0.2774 -0.0310
11099TIP3    H154712   4.734   4.169  13.479 -0.9023 -2.3075 -0.1662
11099TIP3    H254713   4.814   4.197  13.354 -0.3335  1.3361  0.8667
11100TIP3   OH254714   5.760   0.940   3.413  0.5708 -0.4732 -0.9832
11100TIP3    H154715   5.798   1.019   3.373  1.1267 -0.5405 -0.5992
11100TIP3    H254716   5.826   0.872   3.399  1.1610 -0.3029  0.7542
11101TIP3   OH254717   0.319   1.348  16.818  0.0963  0.0970 -0.4235
11101TIP3    H154718   0.249   1.361  16.754  1.7767 -2.0811 -2.9466
11101TIP3    H254719   0.278   1.302  16.891 -1.3608  0.0797 -1.2306
11102TIP3   OH254720   0.197   3.320  13.960 -0.0209  0.0706  0.2158
11102TIP3    H154721   0.254   3.397  13.953 -0.3408  0.2095 -1.3172
11102TIP3    H254722   0.190   3.304  14.054  2.7557 -0.1311  0.4905
11103TIP3   OH254723   2.845   4.016   4.450 -0.1288  0.3756 -0.2966
11103TIP3    H154724   2.884   3.945   4.501 -0.6813  0.1774 -0.1474
11103TIP3    H254725   2.906   4.089   4.460 -0.1651  0.2979  0.5456
11104TIP3   OH254726   6.242   5.411  16.054 -0.0859 -0.1965 -0.4484
11104TIP3    H154727   6.261   5.323  16.022 -1.4793  0.1169 -2.2437
11104TIP3    H254728   6.181   5.397  16.126  1.2197 -0.7659  0.6047
11105TIP3   OH254729   1.289   3.431   1.112  0.2857  0.0315  0.3230
11105TIP3    H154730   1.302   3.363   1.178 -2.1122  0.2192  1.0858
11105TIP3    H254731   1.338   3.506   1.145  1.0129 -0.5855  0.6789
11106TIP3   OH254732   0.278   3.945  12.479  0.1927  0.0650 -0.1223
11106TIP3    H154733   0.206   4.008  12.489 -0.8977 -1.1884  0.1938
11106TIP3    H254734   0.272   3.917  12.388 -0.4738 -0.8861  0.1973
11107TIP3   OH254735   1.592   4.990   6.063  0.1935  0.6900  0.1480
11107TIP3    H154736   1.520   5.014   6.121  1.1988 -0.1455  1.8006
11107TIP3    H254737   1.643   4.926   6.112  0.7935 -0.5018 -1.8834
11108TIP3   OH254738   3.743   5.311  14.450 -0.0509 -0.4699 -0.8237
11108TIP3    H154739   3.754   5.227  14.495  0.0545  0.1225  0.2992
11108TIP3    H254740   3.649   5.322  14.441 -0.1658  0.1394  0.7536
11109TIP3   OH254741   5.088   1.349   4.043  0.0261 -0.0031 -0.1058
11109TIP3    H154742   5.033   1.337   4.121  1.6417 -0.4178  1.0211
11109TIP3    H254743   5.176   1.325   4.072  0.9012  1.0973 -1.7221
11110TIP3   OH254744   3.617   6.284   3.790 -0.2007 -0.9049 -0.2761
11110TIP3    H154745   3.595   6.364   3.743  1.0832  0.0629  0.6938
11110TIP3    H254746   3.617   6.216   3.723 -1.0756 -0.0524 -1.1590
11111TIP3   OH254747   0.981   5.230  11.591  0.0456 -0.0094  0.2740
11111TIP3    H154748   1.012   5.140  11.600 -2.0019 -0.9509 -1.2520
11111TIP3    H254749   1.056   5.284  11.616  1.3035 -2.1086  1.3166
11112TIP3   OH254750   2.733   5.728   5.794  0.4730  0.4138  0.0377
11112TIP3    H154751   2.687   5.794   5.742  0.9679  0.5386 -0.2506
11112TIP3    H254752   2.789   5.778   5.853 -1.1270  0.3229  1.7281
11113TIP3   OH254753   4.382   1.285  11.340  0.1156  0.1432 -0.3568
11113TIP3    H154754   4.372   1.379  11.326 -0.0990  0.2243  0.2699
11113TIP3    H254755   4.316   1.245  11.283 -1.0225  0.4766  0.6607
11114TIP3   OH254756   4.026   2.463   4.095  0.1133 -0.3841 -0.2643
11114TIP3    H154757   3.989   2.504   4.017  2.1907  0.8355 -0.6846
11114TIP3    H254758   3.951   2.427   4.142 -1.8295  3.2315 -0.2677
11115TIP3   OH254759   6.734   6.505  16.804 -0.0426 -0.2845  0.3530
11115TIP3    H154760   6.654   6.511  16.752  1.1275  2.6971 -1.3438
11115TIP3    H254761   6.720   6.567  16.877  1.1138  1.3009 -0.6974
11116TIP3   OH254762   1.431   5.930   1.765 -0.6075  0.4954 -0.9186
11116TIP3    H154763   1.362   5.917   1.830  0.2252 -1.0805 -0.3063
11116TIP3    H254764   1.509   5.893   1.805  0.3624  1.2206 -2.0688
11117TIP3   OH254765   4.080   5.418  11.789 -0.2352  0.5226  0.5718
11117TIP3    H154766   4.168   5.379  11.788 -1.1005 -1.5795  1.0920
11117TIP3    H254767   4.049   5.408  11.699  0.5083  2.4799  0.0531
11118TIP3   OH254768   2.094   0.847  16.745 -0.1177 -0.0845  0.0555
11118TIP3    H154769   2.184   0.847  16.712 -0.1641 -0.4814 -0.0796
11118TIP3    H254770   2.102   0.870  16.838  0.1311 -0.2312  0.0702
11119TIP3   OH254771   3.383   1.988  11.959  0.5718  0.1316  0.1669
11119TIP3    H154772   3.474   1.982  11.987 -0.1672 -0.7015  2.6774
11119TIP3    H254773   3.351   1.898  11.960 -0.0580  0.2764 -1.7347
11120TIP3   OH254774   6.740   1.406   3.545  0.7793 -0.0493  0.1899
11120TIP3    H154775   6.799   1.339   3.511  0.9350 -0.0090  0.3815
11120TIP3    H254776   6.654   1.381   3.511  0.6568 -0.9215  1.0815
11121TIP3   OH254777   3.052   3.625  16.340  0.7460  0.5187 -0.0972
11121TIP3    H154778   3.114   3.573  16.391  2.1356  2.4918  0.3249
11121TIP3    H254779   3.068   3.715  16.367 -1.4344  1.2184 -0.9526
11122TIP3   OH254780   5.624   3.149  10.423 -0.2373 -0.0185 -0.3743
11122TIP3    H154781   5.619   3.066  10.376  0.1720 -1.1640  1.5113
11122TIP3    H254782   5.533   3.170  10.444 -0.5372  1.0274 -2.4264
11123TIP3   OH254783   4.340   2.213   2.709 -0.1116 -0.5687  0.0828
11123TIP3    H154784   4.336   2.267   2.630 -0.1618  1.1386  1.1878
11123TIP3    H254785   4.251   2.179   2.720 -0.5817  0.7039  0.3825
11124TIP3   OH254786   5.597   4.715  15.977 -0.6313 -0.5576  0.4368
11124TIP3    H154787   5.619   4.657  16.050  1.4936 -0.5397 -0.1191
11124TIP3    H254788   5.543   4.783  16.016  0.3688 -0.6142  2.0028
11125TIP3   OH254789   1.824   0.692   1.998  0.3482 -1.0085 -0.2200
11125TIP3    H154790   1.755   0.687   2.064  0.3394  0.1981 -0.1141
11125TIP3    H254791   1.780   0.725   1.920  0.8856  0.2893  0.0013
11126TIP3   OH254792   0.281   0.495  13.891  0.0673 -0.1401  0.2827
11126TIP3    H154793   0.304   0.462  13.804 -1.1112 -0.2980  0.0189
11126TIP3    H254794   0.209   0.556  13.876  0.5335  0.6131  1.0454
11127TIP3   OH254795   1.710   0.671  16.049  1.6548  0.1169  0.0095
11127TIP3    H154796   1.749   0.737  15.992  0.1957 -0.5433 -1.8628
11127TIP3    H254797   1.726   0.588  16.004 -0.4580 -0.3228 -0.0591
11128TIP3   OH254798   1.247   1.948  13.966 -0.1275 -0.1673 -0.5750
11128TIP3    H154799   1.218   2.038  13.950  0.9645 -0.0243 -1.9193
11128TIP3    H254800   1.249   1.907  13.879  1.7620 -0.7301 -0.3119
11129TIP3   OH254801   5.197   5.950   4.299  0.1112 -0.1545  0.4687
11129TIP3    H154802   5.139   5.980   4.229 -0.8352 -0.4725  1.0958
11129TIP3    H254803   5.144   5.955   4.378  0.2592 -2.3815  0.7678
11130TIP3   OH254804   3.152   6.095   4.600 -0.0689 -0.3355  0.6669
11130TIP3    H154805   3.212   6.064   4.532  0.2332 -0.0235  0.7871
11130TIP3    H254806   3.150   6.190   4.588  0.3845 -0.2279  1.4172
11131TIP3   OH254807   1.167   1.366  11.130  0.2945  0.5548 -0.1251
11131TIP3    H154808   1.175   1.304  11.203 -1.0613 -0.9455 -1.1990
11131TIP3    H254809   1.248   1.417  11.134  2.0472 -2.0587  0.1014
11132TIP3   OH254810   4.254   3.035   3.915 -0.0557 -0.1921  0.1075
11132TIP3    H154811   4.178   3.000   3.868 -0.2425  0.8563 -0.4072
11132TIP3    H254812   4.218   3.071   3.996 -0.0049 -0.3226  0.1882
11133TIP3   OH254813   6.413   3.246   2.031  0.2115 -0.0692  0.4115
11133TIP3    H154814   6.355   3.233   2.107 -1.8027 -0.9271 -1.1811
11133TIP3    H254815   6.416   3.160   1.989  0.7372  0.5440 -0.8514
11134TIP3   OH254816   6.015   5.584  14.596  1.3937 -0.1316 -0.3414
11134TIP3    H154817   6.001   5.506  14.542  2.7613 -0.6713  0.0497
11134TIP3    H254818   5.954   5.573  14.669  1.2872 -0.6208 -0.5007
11135TIP3   OH254819   3.108   5.250  13.054 -0.1957  0.4693 -0.6553
11135TIP3    H154820   3.074   5.317  12.996 -0.6483  1.4161  0.6491
11135TIP3    H254821   3.049   5.252  13.130 -0.2105 -1.3917 -0.5736
11136TIP3   OH254822   4.863   3.420   0.828  0.3036  0.0096 -0.0729
11136TIP3    H154823   4.791   3.443   0.886  0.1900 -0.5480  0.0143
11136TIP3    H254824   4.927   3.490   0.839 -0.1955  0.4740 -0.1036
11137TIP3   OH254825   3.669   4.909  16.797  0.5584 -0.2852  0.1923
11137TIP3    H154826   3.635   4.839  16.853  0.4339 -0.1575  0.2791
11137TIP3    H254827   3.709   4.863  16.723  0.4886 -0.4485  0.2545
11138TIP3   OH254828   3.647   2.280  17.114 -0.0933  0.4238  0.3462
11138TIP3    H154829   3.671   2.228  17.191  3.5945  0.7681 -0.3883
11138TIP3    H254830   3.580   2.227  17.069 -0.7512 -0.7920  2.5973
11139TIP3   OH254831   4.721   4.888   4.545 -0.4333  0.1903 -0.3103
11139TIP3    H154832   4.752   4.974   4.570  0.2782 -0.2715  0.4328
11139TIP3    H254833   4.642   4.905   4.493  0.3685  1.3274 -1.2187
11140TIP3   OH254834   0.004   4.153   6.352 -0.1051 -0.4317 -0.0475
11140TIP3    H154835   0.070   4.223   6.355 -0.8247  0.3414 -1.1680
11140TIP3    H254836  -0.075   4.194   6.389 -0.3105 -0.9377  0.0797
11141TIP3   OH254837   2.144   3.514   3.151 -0.6007 -0.3331 -0.6570
11141TIP3    H154838   2.080   3.457   3.193 -1.7000  1.2530 -0.1103
11141TIP3    H254839   2.123   3.509   3.058  0.7870 -2.5520 -0.9388
11142TIP3   OH254840   3.864   4.898  13.965  0.1041 -0.0154 -0.0142
11142TIP3    H154841   3.865   4.987  13.932  2.1200  0.9347  2.2963
11142TIP3    H254842   3.956   4.870  13.961 -0.4997 -2.0567 -0.7711
11143TIP3   OH254843   5.545   4.104  12.076 -0.3869 -0.4964 -0.1882
11143TIP3    H154844   5.535   4.009  12.088  0.4740 -0.5084  0.5489
11143TIP3    H254845   5.565   4.137  12.163  1.5243  0.0652 -0.7928
11144TIP3   OH254846   4.464   5.253   3.610 -0.0371  0.3381 -0.5307
11144TIP3    H154847   4.447   5.332   3.559  0.3499  1.2226  0.6718
11144TIP3    H254848   4.483   5.285   3.698  1.1198 -1.0335 -0.2474
11145TIP3   OH254849   2.563   5.506  13.869  0.1396  0.3653 -0.0737
11145TIP3    H154850   2.604   5.538  13.788 -0.9622 -0.3201 -0.9426
11145TIP3    H254851   2.637   5.481  13.925  0.9328 -0.2948 -1.3509
11146TIP3   OH254852   1.504   3.451  14.337  0.2875 -0.1661  0.2099
11146TIP3    H154853   1.556   3.506  14.279  0.0936  1.4962  1.5590
11146TIP3    H254854   1.568   3.415  14.399 -0.1310  2.1817  2.1053
11147TIP3   OH254855   5.573   5.276  14.850 -0.5090 -0.3437  0.3588
11147TIP3    H154856   5.483   5.307  14.861 -0.6288 -1.0206  1.4139
11147TIP3    H254857   5.576   5.244  14.760 -0.9771  0.7580 -0.0745
11148TIP3   OH254858   1.003   3.477   4.563  0.7461  0.1264 -0.6493
11148TIP3    H154859   1.007   3.419   4.639 -2.9698  0.8429  0.3096
11148TIP3    H254860   1.079   3.534   4.571  1.8267 -1.4653  1.0773
11149TIP3   OH254861   2.052   5.050   3.578  0.2716 -0.6515  0.0764
11149TIP3    H154862   2.115   5.094   3.635 -0.2760  0.1664  0.0559
11149TIP3    H254863   2.102   5.025   3.501  0.6006 -0.1186  0.1163
11150TIP3   OH254864   3.644   4.111  10.801 -0.3223  0.2764 -0.4406
11150TIP3    H154865   3.581   4.041  10.784  0.9707 -1.0747  0.0431
11150TIP3    H254866   3.595   4.192  10.786 -1.9759 -0.7139 -0.6714
11151TIP3   OH254867   6.006   6.655  10.907 -0.1746  0.3233  0.7174
11151TIP3    H154868   6.025   6.711  10.982 -1.6041  0.0343  1.3360
11151TIP3    H254869   6.027   6.566  10.937 -3.2418 -0.1725  1.8455
11152TIP3   OH254870   5.539   2.785   3.229  0.4609  0.6333  0.3405
11152TIP3    H154871   5.475   2.851   3.253 -1.2379 -1.0107  0.5911
11152TIP3    H254872   5.532   2.718   3.296  0.3472 -0.9420 -1.1569
11153TIP3   OH254873   4.112   2.480   1.413  0.5081  0.1542  0.0285
11153TIP3    H154874   4.019   2.500   1.410  0.6239  0.6061 -0.7490
11153TIP3    H254875   4.149   2.547   1.471  0.6259  1.1554 -1.1712
11154TIP3   OH254876   0.695   3.706  15.148  0.4945  0.0414  0.1818
11154TIP3    H154877   0.728   3.748  15.068  0.3369  1.7113  0.9466
11154TIP3    H254878   0.658   3.623  15.118  1.1984  0.2436 -1.3527
11155TIP3   OH254879   0.723   5.868   4.320 -0.0458 -0.2633  0.4016
11155TIP3    H154880   0.807   5.841   4.359 -0.6097  0.2443  2.0624
11155TIP3    H254881   0.731   5.962   4.310 -0.0525 -0.3426 -0.4178
11156TIP3   OH254882   4.194   3.221  12.073 -0.2169 -0.2346 -0.2308
11156TIP3    H154883   4.126   3.280  12.040  1.5774  0.4065 -3.1033
11156TIP3    H254884   4.222   3.261  12.155 -0.9365  1.4042 -0.7355
11157TIP3   OH254885   5.264   6.671   0.760  0.2930 -0.1234 -0.1501
11157TIP3    H154886   5.275   6.581   0.791 -1.2316 -0.3805 -0.2976
11157TIP3    H254887   5.311   6.724   0.824 -0.6794 -0.8478  1.2180
11158TIP3   OH254888   0.481   1.222   0.858 -0.9909 -0.4964  0.3554
11158TIP3    H154889   0.503   1.308   0.823  0.2514  0.0017  2.2352
11158TIP3    H254890   0.394   1.204   0.821 -0.2710  0.4370 -2.0035
11159TIP3   OH254891   1.375   1.662   1.191 -0.0986 -1.0532 -0.3361
11159TIP3    H154892   1.402   1.670   1.283  0.7038 -1.4372 -0.5264
11159TIP3    H254893   1.448   1.700   1.141 -0.5164 -0.8743 -0.8137
11160TIP3   OH254894   4.284   5.214  11.391 -0.0630  0.2022  0.6590
11160TIP3    H154895   4.293   5.309  11.388 -0.1620  0.2824  2.0193
11160TIP3    H254896   4.291   5.185  11.300 -3.8283  1.8460 -0.3313
11161TIP3   OH254897   2.856   3.791  12.641  0.0369 -0.6071  0.2881
11161TIP3    H154898   2.774   3.753  12.673 -0.6479  0.3844 -0.2006
11161TIP3    H254899   2.828   3.872  12.597  1.3005 -0.1908  0.2263
11162TIP3   OH254900   1.762   5.061  11.719  0.1015  0.0330 -0.6368
11162TIP3    H154901   1.757   5.042  11.813  1.9182  1.6169 -0.1616
11162TIP3    H254902   1.851   5.039  11.694 -0.4246 -0.6168 -2.1020
11163TIP3   OH254903   5.132   1.731   2.540 -0.0167 -0.0888 -0.0456
11163TIP3    H154904   5.044   1.726   2.577 -0.1763 -0.4127 -0.4572
11163TIP3    H254905   5.122   1.787   2.463  0.7638  2.5739  1.6637
11164TIP3   OH254906   3.458   1.484  14.599 -0.5118 -0.1870 -0.1346
11164TIP3    H154907   3.396   1.515  14.666  1.0961  0.8061  0.9561
11164TIP3    H254908   3.496   1.405  14.637  0.8014  0.6780  0.4187
11165TIP3   OH254909   5.553   3.381   2.357 -0.0773  0.6413  0.5759
11165TIP3    H154910   5.577   3.361   2.448 -1.0680 -0.4132  0.6215
11165TIP3    H254911   5.606   3.320   2.305  0.2192  0.9973  0.4548
11166TIP3   OH254912   3.894   0.165  15.780 -0.2991  0.1666 -0.5651
11166TIP3    H154913   3.811   0.128  15.811  0.1485 -1.2459 -0.9876
11166TIP3    H254914   3.909   0.123  15.696 -0.6406  2.6773 -1.9961
11167TIP3   OH254915   4.697   0.083  16.382 -0.4347  0.2709 -0.6837
11167TIP3    H154916   4.683   0.039  16.466  1.2728 -0.3779 -0.7003
11167TIP3    H254917   4.753   0.157  16.403  0.9283 -0.5273 -1.3792
11168TIP3   OH254918   2.500   3.982  16.454  0.0872  0.0927  0.6375
11168TIP3    H154919   2.512   4.068  16.493 -0.1536  0.5968 -0.3789
11168TIP3    H254920   2.450   3.933  16.520 -1.6321  1.3879  0.3820
11169TIP3   OH254921   3.991   5.482   2.836 -0.2916  0.4714 -0.7158
11169TIP3    H154922   3.900   5.493   2.810  0.2702  1.4891 -2.4452
11169TIP3    H254923   4.040   5.489   2.754  1.2291 -1.8884 -0.0877
11170TIP3   OH254924   2.254   2.318  16.124  0.1299 -0.0086  0.4417
11170TIP3    H154925   2.259   2.397  16.071 -0.1303  0.5461  1.2295
11170TIP3    H254926   2.175   2.273  16.093  0.0494  0.2512  0.2682
11171TIP3   OH254927   2.732   2.058   4.500 -0.3550 -0.5132 -0.4029
11171TIP3    H154928   2.786   2.118   4.550  0.9561 -0.8883 -1.3174
11171TIP3    H254929   2.643   2.073   4.532  0.5030 -1.4880  2.7655
11172TIP3   OH254930   1.952   5.608  11.744  0.6876 -0.6087  0.0394
11172TIP3    H154931   1.920   5.659  11.818 -0.6358 -0.8505 -0.3277
11172TIP3    H254932   2.046   5.600  11.758  0.5282 -0.2354  1.4255
11173TIP3   OH254933   2.795   0.969  15.088  0.1895  0.1186 -0.2322
11173TIP3    H154934   2.814   0.899  15.026  0.7044 -0.2331  0.3087
11173TIP3    H254935   2.878   1.015  15.099  0.4473 -0.5870  1.1091
11174TIP3   OH254936   2.593   2.302   2.716  1.1514  0.5768 -0.3095
11174TIP3    H154937   2.671   2.340   2.675  0.0555  3.4489  0.0372
11174TIP3    H254938   2.527   2.371   2.710 -1.1867 -1.4883  0.0545
11175TIP3   OH254939   1.983   4.907  13.005  0.1757 -0.3651  0.8868
11175TIP3    H154940   1.982   4.812  13.019 -0.9306 -0.4208  0.4903
11175TIP3    H254941   2.020   4.918  12.918 -0.0772 -0.4532  0.7684
11176TIP3   OH254942   3.702   4.558  14.658 -0.5213  0.1583 -0.2736
11176TIP3    H154943   3.745   4.474  14.642 -1.3962 -0.7758  1.8257
11176TIP3    H254944   3.680   4.591  14.571  1.8665 -0.6465 -1.2672
11177TIP3   OH254945   1.875   4.102  16.747 -0.4395  0.6989  0.0251
11177TIP3    H154946   1.842   4.036  16.685  1.3081 -0.3176  0.1053
11177TIP3    H254947   1.805   4.166  16.754 -1.3973 -0.1142 -1.6238
11178TIP3   OH254948   4.198   0.048   0.971  0.0723  0.3277  0.6791
11178TIP3    H154949   4.285   0.030   0.937 -0.0997  0.6609  0.0398
11178TIP3    H254950   4.212   0.074   1.062  0.4334 -1.8310  1.3005
11179TIP3   OH254951   0.716   2.031  12.273 -0.2626 -0.0788  0.4297
11179TIP3    H154952   0.795   1.982  12.298  0.1722  1.1765  1.6244
11179TIP3    H254953   0.662   2.032  12.351 -0.9703  0.0268 -0.0517
11180TIP3   OH254954   3.422   5.870  14.291 -0.6406  0.5839 -0.2706
11180TIP3    H154955   3.493   5.873  14.355  1.4485 -1.7578 -2.2711
11180TIP3    H254956   3.457   5.911  14.212 -1.2376 -1.1106 -1.4801
11181TIP3   OH254957   2.376   3.352   1.356  0.3499  0.6959 -0.2778
11181TIP3    H154958   2.454   3.361   1.411  0.1392 -0.5925  0.2689
11181TIP3    H254959   2.405   3.299   1.282 -0.4604 -1.6904  1.0103
11182TIP3   OH254960   3.183   6.780   1.798 -0.2947  0.1795  0.3844
11182TIP3    H154961   3.145   6.694   1.781 -1.7723  0.9240 -0.2120
11182TIP3    H254962   3.259   6.784   1.739 -0.0558 -0.7939  0.6040
11183TIP3   OH254963   3.224   4.427   4.658 -0.0887  0.0120 -0.1718
11183TIP3    H154964   3.230   4.375   4.578  1.2107 -1.4898  0.8398
11183TIP3    H254965   3.260   4.512   4.633  1.3832 -0.7875 -0.9546
11184TIP3   OH254966   5.447   1.195  13.605  0.0648 -0.2006 -0.0726
11184TIP3    H154967   5.494   1.147  13.673  2.8222  2.3733  0.0373
11184TIP3    H254968   5.403   1.266  13.652 -0.9995 -0.4589 -0.6348
11185TIP3   OH254969   1.209   0.306   2.428 -0.0776 -0.3859 -0.2599
11185TIP3    H154970   1.201   0.376   2.363 -0.5158  0.1337  0.3362
11185TIP3    H254971   1.220   0.352   2.512 -2.3868 -0.9425  0.4332
11186TIP3   OH254972   1.127   6.172  14.136 -0.2107  0.4469  0.2689
11186TIP3    H154973   1.096   6.147  14.223 -0.7520 -0.4604 -0.1609
11186TIP3    H254974   1.131   6.267  14.138 -1.3917  0.5049  0.8984
11187TIP3   OH254975   3.893   0.405  12.336 -0.1900  0.2160 -0.0071
11187TIP3    H154976   3.913   0.475  12.398 -3.0474  1.3267 -0.1844
11187TIP3    H254977   3.883   0.327  12.391  0.3467  0.5253  0.5413
11188TIP3   OH254978   3.440   5.721   3.059  0.0301 -0.6541 -0.4613
11188TIP3    H154979   3.455   5.812   3.085  1.5713 -0.6725 -1.2148
11188TIP3    H254980   3.501   5.670   3.113 -0.2360 -1.1652 -0.6304
11189TIP3   OH254981   3.936   4.885   4.940 -0.0373 -0.2930 -0.0191
11189TIP3    H154982   3.857   4.913   4.985  0.9154  1.2978  0.7763
11189TIP3    H254983   3.971   4.814   4.993  0.2871  0.5740  0.9590
11190TIP3   OH254984   4.794   2.537  13.850  0.1570 -0.1935 -0.1019
11190TIP3    H154985   4.836   2.572  13.928  0.4692 -0.1994 -0.2650
11190TIP3    H254986   4.726   2.601  13.828 -0.1793 -0.3805  0.3892
11191TIP3   OH254987   0.657   1.307  11.790  0.1321  0.3478  0.3763
11191TIP3    H154988   0.583   1.254  11.761 -0.7056  1.1282  1.0301
11191TIP3    H254989   0.649   1.309  11.885  1.8723 -0.7914  0.6033
11192TIP3   OH254990   5.050   5.444   3.714 -0.4156  0.0254 -0.0406
11192TIP3    H154991   4.957   5.466   3.709 -0.3600  0.4111  0.4672
11192TIP3    H254992   5.059   5.363   3.663 -0.9465  0.2297 -0.4631
11193TIP3   OH254993   3.372   2.436  12.688  0.3701  0.1219  0.7239
11193TIP3    H154994   3.360   2.513  12.744  1.4190  0.1377  0.9570
11193TIP3    H254995   3.361   2.362  12.748 -0.0590  0.0955  0.6182
11194TIP3   OH254996   0.429   5.141  16.322  0.2263 -0.1751 -0.2538
11194TIP3    H154997   0.466   5.094  16.397  2.8117  0.2777 -1.1365
11194TIP3    H254998   0.395   5.222  16.360 -1.3397 -1.2657  0.8144
11195TIP3   OH254999   0.765   1.705  11.680 -0.2934 -0.3662 -0.3027
11195TIP3    H155000   0.793   1.613  11.678 -0.2599 -0.3675  0.2147
11195TIP3    H255001   0.844   1.754  11.703 -0.4151 -0.2469 -0.1380
11196TIP3   OH255002   5.895   3.163  13.894  0.5853 -0.3180 -0.2605
11196TIP3    H155003   5.990   3.174  13.889  0.3600  2.4916  0.2643
11196TIP3    H255004   5.860   3.228  13.834 -1.0630 -1.9415 -1.1684
11197TIP3   OH255005   1.276   3.566   4.520  0.1943 -0.1636 -0.2392
11197TIP3    H155006   1.258   3.659   4.509 -0.1927 -0.0852  0.8794
11197TIP3    H255007   1.362   3.563   4.562 -0.3589 -0.2365  0.9344
11198TIP3   OH255008   6.583   4.410   5.450  0.3964  0.7391 -0.5006
11198TIP3    H155009   6.531   4.330   5.459  1.0183  0.1168 -2.1780
11198TIP3    H255010   6.560   4.445   5.364  1.6743  1.2439 -0.6545
11199TIP3   OH255011   6.377   4.484  14.909 -0.3657 -0.2078  0.2924
11199TIP3    H155012   6.328   4.411  14.872  0.0168 -1.3789  1.9582
11199TIP3    H255013   6.469   4.455  14.905  0.3210  1.8681 -2.6241
11200TIP3   OH255014   6.708   1.205  11.191  0.2957  0.5373 -0.1020
11200TIP3    H155015   6.789   1.153  11.197  0.0688  0.2193  0.2416
11200TIP3    H255016   6.674   1.186  11.103  0.5243  0.5691 -0.1978
11201TIP3   OH255017   4.849   0.846   6.096  0.4353 -1.0637 -0.3747
11201TIP3    H155018   4.914   0.799   6.148  0.2429 -0.7378  0.1622
11201TIP3    H255019   4.828   0.924   6.148  0.5159 -0.5400 -1.1042
11202TIP3   OH255020   0.219   3.211   4.326 -0.3031  0.0668 -0.0912
11202TIP3    H155021   0.254   3.129   4.359 -1.4036  0.7209  3.1206
11202TIP3    H255022   0.245   3.214   4.234 -0.5711 -4.0163 -0.4722
11203TIP3   OH255023   1.558   4.139   5.055  0.0315  0.8355  0.1930
11203TIP3    H155024   1.578   4.211   5.114 -0.9860  0.6424  0.7863
11203TIP3    H255025   1.497   4.084   5.103  0.4395 -0.1910 -0.4240
11204TIP3   OH255026   4.171   1.801  14.084  0.3107  0.0243  0.3641
11204TIP3    H155027   4.260   1.814  14.052  0.5014 -1.3094  0.2808
11204TIP3    H255028   4.179   1.799  14.179  0.9207 -3.1612  0.3488
11205TIP3   OH255029   2.039   2.623  12.243  0.7642 -0.6052 -0.4777
11205TIP3    H155030   2.102   2.689  12.214  0.4114 -0.4865 -1.0034
11205TIP3    H255031   1.957   2.672  12.254  0.1638 -1.1525 -2.1474
11206TIP3   OH255032   4.989   3.685   4.843  0.4085 -0.2244  0.4098
11206TIP3    H155033   4.930   3.630   4.894 -1.6911  1.6072  0.1260
11206TIP3    H255034   5.034   3.740   4.908 -2.5606  2.3952  0.5065
11207TIP3   OH255035   5.610   0.869  12.161 -0.1519 -0.4540  0.2170
11207TIP3    H155036   5.517   0.863  12.180 -0.6006  2.0238 -0.8503
11207TIP3    H255037   5.641   0.778  12.164 -2.3421 -1.2228  1.6318
11208TIP3   OH255038   1.878   1.196   0.504 -0.1605  0.0802  0.0820
11208TIP3    H155039   1.932   1.213   0.581  1.4520 -0.6326 -0.8295
11208TIP3    H255040   1.887   1.275   0.451  0.5627 -0.2968 -0.3732
11209TIP3   OH255041   0.979   1.317   1.190  0.4326 -0.2100 -0.1790
11209TIP3    H155042   0.976   1.402   1.147  0.5295 -0.2545 -0.2762
11209TIP3    H255043   0.894   1.278   1.173  0.0195  0.2816  0.7243
11210TIP3   OH255044   4.801   0.521   1.556  0.3407 -0.1425  0.0945
11210TIP3    H155045   4.862   0.500   1.626 -1.1601  0.5395  1.6835
11210TIP3    H255046   4.770   0.436   1.524 -0.8257 -0.5029  2.0228
11211TIP3   OH255047   6.527   3.306  13.572  0.3162 -0.7163  0.3813
11211TIP3    H155048   6.593   3.331  13.636  0.5086  0.5863 -0.2818
11211TIP3    H255049   6.577   3.268  13.500  0.0952 -2.2472  1.0104
11212TIP3   OH255050   5.671   4.217   5.657 -0.3196  0.3685  0.1608
11212TIP3    H155051   5.678   4.228   5.752  0.5211  3.5328 -0.1605
11212TIP3    H255052   5.579   4.236   5.638 -0.5335 -0.4563  0.3308
11213TIP3   OH255053   3.486   4.638  14.843 -0.3784  0.2182 -0.2311
11213TIP3    H155054   3.512   4.632  14.935 -1.9710  1.6760  0.3859
11213TIP3    H255055   3.530   4.565  14.800  0.3397 -0.5481  1.7057
11214TIP3   OH255056   3.384   2.965   5.568 -0.2265  0.2001 -0.4778
11214TIP3    H155057   3.319   3.021   5.525  0.8718  1.1007 -0.9883
11214TIP3    H255058   3.445   2.941   5.499  0.8937  0.6946  0.3086
11215TIP3   OH255059   4.849   5.240   4.234  0.0881  0.0275 -0.0569
11215TIP3    H155060   4.763   5.232   4.193  0.3157  0.3260 -0.6008
11215TIP3    H255061   4.832   5.230   4.328 -0.7300  1.5387 -0.0222
11216TIP3   OH255062   3.490   6.165   2.813  0.3773 -0.7211 -0.7836
11216TIP3    H155063   3.432   6.095   2.783 -0.6910 -0.0031 -0.4574
11216TIP3    H255064   3.564   6.164   2.752 -0.1654 -1.4080 -1.4364
11217TIP3   OH255065   2.309   6.729  12.451  0.0620 -0.5659  0.6433
11217TIP3    H155066   2.352   6.644  12.462  3.5936  1.1024  1.1053
11217TIP3    H255067   2.303   6.764  12.540 -0.1616  0.2118  0.3270
11218TIP3   OH255068   6.668   3.929   4.871  0.2868 -0.4066 -0.1716
11218TIP3    H155069   6.685   3.870   4.945  0.8606 -1.6577 -1.2671
11218TIP3    H255070   6.753   3.935   4.826  0.3341  1.5472  0.0856
11219TIP3   OH255071   5.889   3.416  15.165  0.2933  0.1819  0.5284
11219TIP3    H155072   5.889   3.484  15.097 -1.1934  1.1569  1.4492
11219TIP3    H255073   5.810   3.365  15.148  1.8661 -2.0369 -0.7447
11220TIP3   OH255074   0.384   2.374   1.373 -0.3509 -0.0947  0.6365
11220TIP3    H155075   0.461   2.428   1.359 -1.0933  1.0913  0.9600
11220TIP3    H255076   0.341   2.413   1.449 -1.4214 -0.5280  0.2800
11221TIP3   OH255077   4.854   0.375  12.335  0.8552 -0.6139 -0.2598
11221TIP3    H155078   4.949   0.368  12.349  0.7596 -0.3477  0.5937
11221TIP3    H255079   4.816   0.340  12.415  0.2420 -0.1192 -0.3290
11222TIP3   OH255080   1.895   2.712   2.319  0.2683  0.1375  0.6735
11222TIP3    H155081   1.953   2.707   2.242 -0.9246 -1.1720 -0.1878
11222TIP3    H255082   1.944   2.765   2.382  1.3233  1.1895 -0.9474
11223TIP3   OH255083   3.120   4.825  11.418 -0.5221  0.1089 -0.6911
11223TIP3    H155084   3.210   4.855  11.426 -0.5932  0.3737 -0.8805
11223TIP3    H255085   3.108   4.806  11.325 -0.8861  0.7901 -0.7857
11224TIP3   OH255086   3.044   4.655  16.939  0.4876  0.4086 -0.3322
11224TIP3    H155087   2.984   4.588  16.971 -1.6696  1.2399 -2.3802
11224TIP3    H255088   3.063   4.709  17.016  0.5551 -1.2635  0.8703
11225TIP3   OH255089   4.488   6.769   6.097 -0.0955 -0.7842 -0.2738
11225TIP3    H155090   4.508   6.806   6.183 -2.1027 -0.5975  0.1744
11225TIP3    H255091   4.543   6.817   6.036 -1.2823  1.7324  0.4979
11226TIP3   OH255092   2.317   3.031   4.449 -0.2494  0.0916 -0.4315
11226TIP3    H155093   2.388   2.985   4.493  0.1575  1.1214  0.0308
11226TIP3    H255094   2.351   3.120   4.435 -2.2166  1.3217  1.8674
11227TIP3   OH255095   1.136   1.194   5.086 -0.2132  0.0401  0.4689
11227TIP3    H155096   1.164   1.192   5.178 -1.3122  0.7341  0.8351
11227TIP3    H255097   1.044   1.220   5.089 -0.0842  0.7564 -0.8754
11228TIP3   OH255098   6.700   4.492  12.987 -0.2615  0.0899 -0.1608
11228TIP3    H155099   6.744   4.536  13.059  0.4242  0.4576 -0.7970
11228TIP3    H255100   6.768   4.480  12.920 -0.8478 -0.3773 -0.6863
11229TIP3   OH255101   5.694   2.892  15.662  0.3025 -0.3822 -0.7570
11229TIP3    H155102   5.757   2.853  15.602  2.1444  1.6512 -0.2385
11229TIP3    H255103   5.745   2.915  15.739 -1.6196 -1.0820  0.8068
11230TIP3   OH255104   0.891   6.170  16.563 -0.2614 -0.0488 -0.8835
11230TIP3    H155105   0.952   6.138  16.630 -2.8586  1.5422  2.5926
11230TIP3    H255106   0.855   6.090  16.524  0.1158 -1.1895  0.9361
11231TIP3   OH255107   1.428   0.703  16.721 -0.7766  0.7352  0.1894
11231TIP3    H155108   1.495   0.768  16.700 -0.1269 -0.2398 -0.8747
11231TIP3    H255109   1.403   0.723  16.812  1.6303  0.5624  0.9550
11232TIP3   OH255110   6.180   0.423   2.302  0.2467  0.7358 -1.2299
11232TIP3    H155111   6.181   0.329   2.285  0.6909  0.5131 -0.0320
11232TIP3    H255112   6.256   0.438   2.358  0.0534  1.7804 -1.2327
11233TIP3   OH255113   2.066   6.775   5.022  0.2953  0.3479 -0.1416
11233TIP3    H155114   2.144   6.780   5.078  0.3891 -0.2691 -0.2050
11233TIP3    H255115   2.098   6.796   4.935  0.3766  0.1736 -0.1546
11234TIP3   OH255116   4.953   1.162  17.109  0.4289 -0.3195 -0.2877
11234TIP3    H155117   5.008   1.113  17.169  0.0503  0.0246  0.3519
11234TIP3    H255118   4.923   1.238  17.160 -0.9395 -0.6894 -0.4865
11235TIP3   OH255119   6.330   4.337  13.545  0.3360 -0.1187 -0.3206
11235TIP3    H155120   6.292   4.283  13.614 -0.2518 -0.1377 -0.6545
11235TIP3    H255121   6.391   4.280  13.500  0.8929 -0.0420  0.3243
11236TIP3   OH255122   0.494   4.468  13.985 -0.3460 -0.0848  0.4508
11236TIP3    H155123   0.492   4.552  14.031 -3.7329  0.7946 -0.9835
11236TIP3    H255124   0.558   4.480  13.915 -1.3663  1.6618 -0.2295
11237TIP3   OH255125   0.816   2.077   3.363  0.1073  0.0697  0.0453
11237TIP3    H155126   0.836   2.098   3.272 -0.5092  1.0262  0.1080
11237TIP3    H255127   0.860   2.145   3.414  0.8537 -0.7465  0.4974
11238TIP3   OH255128   5.951   4.257   5.800 -0.3508 -0.2946 -0.0525
11238TIP3    H155129   6.021   4.320   5.818  0.7457 -0.7210 -2.4435
11238TIP3    H255130   5.873   4.312   5.791 -0.0103  0.3805  0.8706
11239TIP3   OH255131   3.586   4.575   0.578 -0.0496 -0.2237  0.1623
11239TIP3    H155132   3.670   4.536   0.554 -0.3933 -0.1809 -1.1842
11239TIP3    H255133   3.609   4.662   0.612  0.5098 -0.5596  0.6602
11240TIP3   OH255134   6.734   5.406  14.606  0.3676 -0.2793  0.1760
11240TIP3    H155135   6.738   5.450  14.690 -2.8630 -0.0292  0.3169
11240TIP3    H255136   6.759   5.315  14.625  4.2272  0.6533  0.4059
11241TIP3   OH255137   1.693   3.380   1.508 -0.1453  0.5486 -0.5074
11241TIP3    H155138   1.612   3.356   1.462 -0.2502 -3.1366  1.2313
11241TIP3    H255139   1.762   3.364   1.444 -0.5901  0.8522 -1.0812
11242TIP3   OH255140   1.032   0.008   1.356  0.3505 -0.1991  0.4896
11242TIP3    H155141   1.062  -0.048   1.285 -0.6672  1.5250 -1.3789
11242TIP3    H255142   1.111   0.056   1.384  0.5900 -0.2787 -0.0482
11243TIP3   OH255143   2.429   3.980   3.916 -0.3724 -0.6926  0.3170
11243TIP3    H155144   2.363   4.032   3.871  2.4190  2.1945 -0.8956
11243TIP3    H255145   2.433   4.018   4.004 -1.2485 -1.8004  0.8450
11244TIP3   OH255146   4.289   5.977   6.225  0.7412 -0.1062  0.2253
11244TIP3    H155147   4.342   5.898   6.221  0.8182 -0.1245  1.4665
11244TIP3    H255148   4.301   6.010   6.314 -0.7456  0.2980  0.2922
11245TIP3   OH255149   0.311   5.359  16.451  0.0657 -0.0019  0.2557
11245TIP3    H155150   0.384   5.362  16.513 -0.4049  0.4679  0.8061
11245TIP3    H255151   0.239   5.320  16.502 -0.4884  0.9142  0.1846
11246TIP3   OH255152   1.367   6.054   4.297 -0.1222  0.4350  0.6574
11246TIP3    H155153   1.410   6.001   4.230 -3.1036 -1.4202  0.0018
11246TIP3    H255154   1.391   6.011   4.380  0.8805  0.6884  0.5110
11247TIP3   OH255155   0.709   0.635  11.275 -0.4786  0.7137  0.0474
11247TIP3    H155156   0.653   0.562  11.248  0.0751 -0.5794  2.2085
11247TIP3    H255157   0.697   0.641  11.369  1.4135  1.7920  0.2714
11248TIP3   OH255158   5.919   6.141  13.867 -0.1825  0.2682  0.0632
11248TIP3    H155159   5.968   6.065  13.836  0.3141  0.0254  1.3492
11248TIP3    H255160   5.953   6.215  13.817  0.3857 -0.1433 -0.1681
11249TIP3   OH255161   0.814   3.161  14.667 -0.0428 -0.1002 -0.6522
11249TIP3    H155162   0.748   3.229  14.658 -0.0770 -0.1858 -1.0979
11249TIP3    H255163   0.891   3.195  14.622  1.4236  1.4643  2.6748
11250TIP3   OH255164   1.403   1.775   0.057 -0.0335 -0.5544 -0.6253
11250TIP3    H155165   1.391   1.849   0.116  1.0811 -1.3937  0.7127
11250TIP3    H255166   1.486   1.736   0.084  0.0973 -1.4734 -2.2242
11251TIP3   OH255167   0.836   2.898  16.436  0.0242 -0.3928  0.4172
11251TIP3    H155168   0.885   2.949  16.500 -0.9919  1.3717 -0.1270
11251TIP3    H255169   0.870   2.927  16.351 -1.8489  0.9044  0.0214
11252TIP3   OH255170   3.318   5.510   4.004 -0.5896 -0.2230 -0.2070
11252TIP3    H155171   3.357   5.519   3.917 -0.7872  0.6855 -0.2172
11252TIP3    H255172   3.385   5.466   4.056  0.0639  0.4237 -0.4768
11253TIP3   OH255173   5.503   3.571  11.705  0.3594 -0.0066 -0.2411
11253TIP3    H155174   5.419   3.568  11.659 -0.1739 -2.8121  0.7285
11253TIP3    H255175   5.566   3.593  11.637 -0.5689 -2.8131 -2.1932
11254TIP3   OH255176   0.416   0.344  14.093 -0.3749  0.4922  0.3975
11254TIP3    H155177   0.360   0.268  14.108 -0.7653  0.7482  0.2680
11254TIP3    H255178   0.366   0.398  14.031  0.1176  0.6138  0.1045
11255TIP3   OH255179   1.100   2.940   4.271  0.1544 -0.0096 -0.1540
11255TIP3    H155180   1.085   3.028   4.235  0.0380 -0.4013 -1.0938
11255TIP3    H255181   1.171   2.952   4.334 -0.7172  0.9827  0.6737
11256TIP3   OH255182   3.004   0.688   2.299 -0.3874 -0.2703 -0.1463
11256TIP3    H155183   3.072   0.749   2.326  0.0922 -1.2334  0.9208
11256TIP3    H255184   3.049   0.604   2.287 -0.8000 -0.2117 -2.8069
11257TIP3   OH255185   6.499   3.795   0.248  0.2392 -0.2266  0.1370
11257TIP3    H155186   6.589   3.787   0.216  0.4806  1.5177  0.2386
11257TIP3    H255187   6.500   3.876   0.300 -1.8254  1.0158 -1.5750
11258TIP3   OH255188   4.533   4.010  15.362 -0.1244  0.8024  0.5703
11258TIP3    H155189   4.615   3.966  15.339 -1.2275 -0.8160 -0.4699
11258TIP3    H255190   4.465   3.945  15.346 -1.7146  2.3738  0.5759
11259TIP3   OH255191   3.936   5.126  12.013  0.0669  0.8741  0.1034
11259TIP3    H155192   3.944   5.220  12.000  0.9556  0.8750  0.5998
11259TIP3    H255193   3.973   5.110  12.099  0.1190  0.0374 -0.0673
11260TIP3   OH255194   5.517   0.176  10.904  0.1424  0.1048 -0.5188
11260TIP3    H155195   5.520   0.188  10.999  0.9291  1.1009 -0.6524
11260TIP3    H255196   5.508   0.081  10.892  2.1377 -0.2650  0.5242
11261TIP3   OH255197   5.794   4.217   0.556  0.2617 -0.0684 -0.0033
11261TIP3    H155198   5.753   4.165   0.625 -3.0534 -0.1254 -1.8177
11261TIP3    H255199   5.778   4.308   0.581 -0.6637 -0.0860 -0.4790
11262TIP3   OH255200   6.349   1.699   3.320 -0.4389  0.3262 -0.3556
11262TIP3    H155201   6.294   1.644   3.376 -0.0265 -2.4905 -2.4832
11262TIP3    H255202   6.432   1.706   3.366 -1.0151  0.5420  0.6759
11263TIP3   OH255203   4.251   1.986   3.208  0.5342 -0.3695  0.0574
11263TIP3    H155204   4.297   2.059   3.249 -1.3357  1.4274 -0.8445
11263TIP3    H255205   4.179   1.966   3.269  0.0029 -0.2562 -0.5216
11264TIP3   OH255206   0.105   5.667   0.056  0.1083  0.1318 -0.1632
11264TIP3    H155207   0.052   5.597   0.095  0.6776 -0.6063 -0.6639
11264TIP3    H255208   0.070   5.678  -0.032  0.2896  0.1855 -0.2291
11265TIP3   OH255209   0.480   1.589  12.624 -0.5792  0.2358  0.4305
11265TIP3    H155210   0.566   1.549  12.635  0.3493  1.4557 -1.6992
11265TIP3    H255211   0.438   1.581  12.710  1.8655  0.0909  1.6885
11266TIP3   OH255212   0.228   5.680   2.642 -0.4427 -0.2062 -0.5811
11266TIP3    H155213   0.165   5.684   2.569  0.1100 -0.7268 -1.0992
11266TIP3    H255214   0.313   5.685   2.599 -0.1078  1.6439  0.1926
11267TIP3   OH255215   3.028   0.229  11.227 -0.2498 -0.2219 -0.1607
11267TIP3    H155216   3.122   0.219  11.208  0.4165  2.5001  1.1712
11267TIP3    H255217   2.986   0.227  11.141  1.1613 -0.4912 -0.8763
11268TIP3   OH255218   1.436   0.146   1.613  0.0452  0.2481  0.4104
11268TIP3    H155219   1.474   0.225   1.651 -1.8269  0.2332  2.5473
11268TIP3    H255220   1.456   0.077   1.676  0.1666 -0.6336 -0.5707
11269TIP3   OH255221   1.102   1.046  11.587  0.3304  0.2180 -0.0199
11269TIP3    H155222   1.053   0.965  11.573  0.5631  0.2634 -1.2110
11269TIP3    H255223   1.036   1.109  11.614 -0.1361  0.0599 -0.7617
11270TIP3   OH255224   4.283   0.132  12.785  0.5847  0.3139  0.4864
11270TIP3    H155225   4.217   0.196  12.811  1.3278  0.4411  2.1811
11270TIP3    H255226   4.328   0.110  12.866 -0.0343 -2.8371  0.0731
11271TIP3   OH255227   2.375   3.005  15.653 -0.4939  0.5356 -0.3435
11271TIP3    H155228   2.339   2.938  15.712  0.1566  0.9392  0.5362
11271TIP3    H255229   2.431   2.956  15.593 -2.4261 -0.1050 -1.7273
11272TIP3   OH255230   1.630   6.275  10.621  0.2312 -0.3584  0.0890
11272TIP3    H155231   1.557   6.329  10.652 -1.5173 -2.4769 -0.0598
11272TIP3    H255232   1.592   6.221  10.552  2.1736 -0.9674 -0.5554
11273TIP3   OH255233   4.961   2.435  11.047  0.2543  0.0705  0.1429
11273TIP3    H155234   4.924   2.480  11.122  0.5785  1.8107 -0.6825
11273TIP3    H255235   4.930   2.484  10.971  1.6688 -0.3214 -0.7374
11274TIP3   OH255236   0.229   6.504   2.557 -0.0713 -0.9612  0.3470
11274TIP3    H155237   0.221   6.446   2.633 -1.0840 -0.3990  0.6896
11274TIP3    H255238   0.284   6.455   2.495 -0.6192 -2.1403  0.7576
11275TIP3   OH255239   0.206   0.896  10.357  0.5901 -0.2626  0.1966
11275TIP3    H155240   0.180   0.926  10.445 -1.5094  0.3824 -0.5773
11275TIP3    H255241   0.133   0.841  10.328  0.6802  0.4951 -1.5931
11276TIP3   OH255242   0.976   1.453   5.616  0.0945  0.6093  0.2199
11276TIP3    H155243   1.032   1.512   5.566  0.8628  2.2064  2.7564
11276TIP3    H255244   0.887   1.476   5.591  0.3446  3.3131  1.4563
11277TIP3   OH255245   0.293   3.173  16.216  0.2415  0.2418 -0.1174
11277TIP3    H155246   0.313   3.165  16.122  0.2281  1.0969 -0.2039
11277TIP3    H255247   0.201   3.199  16.218 -0.4494 -2.0211  0.2284
11278TIP3   OH255248   0.435   1.030   4.028 -0.2078 -0.2602  0.8405
11278TIP3    H155249   0.507   1.044   4.090  1.9192  1.2293 -1.7202
11278TIP3    H255250   0.436   1.109   3.973  0.2186 -2.6584 -3.0387
11279TIP3   OH255251   5.251   3.479  13.723 -0.5081  0.5343  0.0146
11279TIP3    H155252   5.215   3.394  13.697  1.5301 -0.6678  0.8363
11279TIP3    H255253   5.336   3.483  13.680 -0.7970  2.4557 -0.4730
11280TIP3   OH255254   3.409   6.045   5.892  0.2040  0.4044 -0.0197
11280TIP3    H155255   3.426   6.071   5.801 -1.1347 -1.0147 -0.7327
11280TIP3    H255256   3.448   6.114   5.945  2.1110  0.6557 -1.6313
11281TIP3   OH255257   2.227   5.647   5.327  0.5016  0.0363  0.0449
11281TIP3    H155258   2.296   5.585   5.303  1.4858  1.2875 -0.4092
11281TIP3    H255259   2.258   5.732   5.296 -1.2050  0.6481 -0.0918
11282TIP3   OH255260   4.101   3.777  14.187  0.2090  0.1863 -0.6804
11282TIP3    H155261   4.144   3.692  14.187 -0.2429 -0.0511 -1.5909
11282TIP3    H255262   4.017   3.761  14.231  0.3995  0.3220 -0.2529
11283TIP3   OH255263   2.493   5.781   5.466  0.9389  0.8100  0.2408
11283TIP3    H155264   2.508   5.819   5.553  0.7723  2.0377 -0.2478
11283TIP3    H255265   2.512   5.852   5.405  1.4889 -0.1586 -0.7651
11284TIP3   OH255266   4.522   2.928  11.591 -1.0944  0.1129  0.8968
11284TIP3    H155267   4.538   2.863  11.660  1.3542 -2.4888 -1.7925
11284TIP3    H255268   4.501   2.876  11.514 -3.0149  2.8369 -0.5774
11285TIP3   OH255269   5.497   4.832  15.626 -0.5257 -0.1461  0.3395
11285TIP3    H155270   5.582   4.855  15.664 -0.2246 -0.6630 -0.0092
11285TIP3    H255271   5.433   4.865  15.689 -0.0418 -0.6021  1.0923
11286TIP3   OH255272   2.527   0.755  11.655  0.8151  0.3824  0.1592
11286TIP3    H155273   2.488   0.831  11.697 -0.3609  0.5284 -1.1472
11286TIP3    H255274   2.570   0.708  11.726  1.9068  2.4444  0.9381
11287TIP3   OH255275   2.814   4.696  13.797  0.2924  0.5181  0.0100
11287TIP3    H155276   2.806   4.673  13.704 -0.7132 -0.0518  0.2253
11287TIP3    H255277   2.775   4.783  13.804  0.8104  0.7724 -0.1729
11288TIP3   OH255278   4.841   2.754   3.460 -0.0135  0.1587  0.9980
11288TIP3    H155279   4.863   2.669   3.421 -0.3382 -0.2815  1.7567
11288TIP3    H255280   4.925   2.799   3.467  0.2123 -0.2464  0.9325
11289TIP3   OH255281   4.462   3.276  16.286  0.2173  0.1854 -0.1424
11289TIP3    H155282   4.522   3.217  16.332 -0.6846 -1.7015 -1.3204
11289TIP3    H255283   4.514   3.311  16.214 -0.0012 -1.2702 -1.0290
11290TIP3   OH255284   4.170   2.126   0.032 -0.1886 -0.1364  0.5204
11290TIP3    H155285   4.117   2.129   0.111 -1.8400 -3.2582 -0.3044
11290TIP3    H255286   4.107   2.105  -0.038  1.9416 -3.9425 -0.5368
11291TIP3   OH255287   5.753   1.496  10.706 -0.4245 -0.5550  0.4689
11291TIP3    H155288   5.840   1.524  10.680  0.4237 -0.2062  3.3165
11291TIP3    H255289   5.735   1.546  10.786 -2.7717 -1.4388  0.5674
11292TIP3   OH255290   3.711   1.971   4.315  0.5675 -0.4562 -0.6905
11292TIP3    H155291   3.677   1.890   4.278  0.8300 -1.7760  1.7682
11292TIP3    H255292   3.755   1.944   4.396  1.3740  2.0446 -0.2179
11293TIP3   OH255293   5.452   6.132   0.054 -0.2326  0.2177  0.4486
11293TIP3    H155294   5.533   6.082   0.066 -0.1756  0.4165  0.8840
11293TIP3    H255295   5.395   6.104   0.126 -1.2858 -1.3592 -0.9211
11294TIP3   OH255296   1.718   2.846   3.700 -0.3473 -0.4068 -0.3147
11294TIP3    H155297   1.777   2.920   3.683 -1.5181  0.8676  0.9714
11294TIP3    H255298   1.768   2.789   3.759 -0.5480  0.9241  1.2007
11295TIP3   OH255299   2.919   1.562   2.869 -0.0158  0.1379  0.4212
11295TIP3    H155300   2.828   1.585   2.848 -0.0482 -0.5332 -0.2124
11295TIP3    H255301   2.928   1.471   2.840  0.8191  0.1513  0.6168
11296TIP3   OH255302   2.903   5.769   1.837 -0.0691 -0.0846  0.2839
11296TIP3    H155303   2.833   5.739   1.895 -0.6905 -0.4116 -0.6104
11296TIP3    H255304   2.984   5.753   1.885 -0.5808 -0.2024  1.1135
11297TIP3   OH255305   4.376   6.564   5.577 -0.1768 -0.3493 -0.7113
11297TIP3    H155306   4.317   6.491   5.595  0.0266 -0.7447 -1.5863
11297TIP3    H255307   4.419   6.540   5.495 -1.0802  1.3428 -1.7503
11298TIP3   OH255308   4.181   1.831  11.140 -0.3162 -0.2763 -0.2908
11298TIP3    H155309   4.129   1.908  11.117 -0.1047  0.1303  0.5240
11298TIP3    H255310   4.267   1.848  11.103 -0.4795 -0.4837 -0.7743
11299TIP3   OH255311   0.181   5.195   0.805 -0.4551 -0.2068  0.2388
11299TIP3    H155312   0.247   5.164   0.867 -1.4685 -1.1171  0.9029
11299TIP3    H255313   0.107   5.136   0.818  0.0006 -1.8772 -3.3092
11300TIP3   OH255314   6.696   0.243   2.858  0.1842  0.0280 -0.5391
11300TIP3    H155315   6.762   0.182   2.890  1.2081  0.7995 -1.1297
11300TIP3    H255316   6.746   0.314   2.819 -0.9273  1.9902  1.4100
11301TIP3   OH255317   0.189   1.237   3.355  0.3291  0.5185 -0.0957
11301TIP3    H155318   0.196   1.252   3.449  0.7117  0.2265 -0.0756
11301TIP3    H255319   0.275   1.205   3.329 -0.1024 -0.4869 -0.3473
11302TIP3   OH255320   6.503   0.955  15.227  0.0576  0.2538 -0.4190
11302TIP3    H155321   6.439   0.900  15.180 -1.2967 -0.9468  2.5675
11302TIP3    H255322   6.453   1.033  15.252  0.8026  0.9435 -1.0166
11303TIP3   OH255323   4.946   6.398   1.915  0.1120 -0.2795  0.4596
11303TIP3    H155324   4.966   6.452   1.991 -0.1327 -1.7589  1.6289
11303TIP3    H255325   4.851   6.388   1.917  0.2106 -1.2679  0.6482
11304TIP3   OH255326   4.863   0.204   5.461 -0.5493  0.3481 -0.4212
11304TIP3    H155327   4.902   0.266   5.523  1.5687  0.5568 -1.8559
11304TIP3    H255328   4.895   0.118   5.490  1.9165  0.5979 -2.1162
11305TIP3   OH255329   6.409   0.626   4.993  0.4032 -0.2363 -0.9937
11305TIP3    H155330   6.416   0.548   5.048  1.0620  0.3836 -0.1731
11305TIP3    H255331   6.365   0.691   5.048 -2.1627 -0.6488 -2.4016
11306TIP3   OH255332   6.164   1.940  12.690  1.0307  0.1460 -0.0783
11306TIP3    H155333   6.216   1.998  12.636  0.8040 -0.4168 -0.9245
11306TIP3    H255334   6.114   1.998  12.748 -0.7072  0.9615 -2.2506
11307TIP3   OH255335   4.282   3.836  15.343  0.0137  0.4525 -0.3524
11307TIP3    H155336   4.266   3.779  15.268  0.8301 -1.5334  0.9040
11307TIP3    H255337   4.247   3.788  15.418  5.7888 -1.4561  1.7132
11308TIP3   OH255338   5.737   2.913   3.884 -0.0812 -0.1184 -0.2640
11308TIP3    H155339   5.830   2.916   3.862 -0.2483 -0.4661 -1.0513
11308TIP3    H255340   5.736   2.901   3.979  0.6856 -0.6100 -0.3007
11309TIP3   OH255341   5.247   3.671  13.148 -0.5813  0.4066  0.6402
11309TIP3    H155342   5.324   3.719  13.117 -1.9403  0.7576 -2.6216
11309TIP3    H255343   5.202   3.733  13.205  1.2149  0.3984  2.1430
11310TIP3   OH255344   2.387   0.800   2.049  0.5722  0.2896  0.0661
11310TIP3    H155345   2.330   0.750   1.990 -0.0049  0.6725  0.2837
11310TIP3    H255346   2.459   0.741   2.068 -0.8650 -1.0926  1.5698
11311TIP3   OH255347   5.255   6.298   3.796 -0.4337 -0.3374  0.0715
11311TIP3    H155348   5.281   6.210   3.824  0.4755  0.4244  1.7788
11311TIP3    H255349   5.199   6.284   3.720  0.6712 -2.3342 -0.4446
11312TIP3   OH255350   2.343   4.022   3.350 -0.3073  0.0041 -0.4666
11312TIP3    H155351   2.280   4.013   3.279 -0.5820 -0.4666 -0.1646
11312TIP3    H255352   2.400   3.946   3.341  0.4450  0.6030 -0.9495
11313TIP3   OH255353   2.406   5.736  13.651  0.0782  0.3289 -0.1734
11313TIP3    H155354   2.402   5.765  13.559  0.0489  0.3482 -0.1659
11313TIP3    H255355   2.450   5.651  13.648 -0.3592  0.0977 -0.2629
11314TIP3   OH255356   4.163   6.068   3.823  0.4856 -0.3930  0.1867
11314TIP3    H155357   4.164   5.984   3.868  0.6021 -0.4654  0.0500
11314TIP3    H255358   4.169   6.046   3.730 -0.4755 -0.2828  0.0858
11315TIP3   OH255359   3.995   0.060  11.647  0.4043  0.0058  0.1953
11315TIP3    H155360   3.972  -0.031  11.627  0.3119  0.3862 -1.5887
11315TIP3    H255361   3.972   0.071  11.740  0.5553 -1.8169  0.4770
11316TIP3   OH255362   2.799   1.437   3.861 -0.2332  0.0150  0.5397
11316TIP3    H155363   2.855   1.370   3.824  1.7726  1.7610  0.2549
11316TIP3    H255364   2.761   1.482   3.786 -2.7420 -1.5839  0.7076
11317TIP3   OH255365   6.759   2.286  12.332 -0.3909  0.4876 -0.0254
11317TIP3    H155366   6.811   2.360  12.301  0.3709 -0.3284 -0.7124
11317TIP3    H255367   6.758   2.296  12.427  0.8201  0.6359 -0.0204
11318TIP3   OH255368   5.223   1.991  15.563  0.0023  0.1718  0.1562
11318TIP3    H155369   5.140   1.946  15.581  1.0127 -1.6786  0.3945
11318TIP3    H255370   5.197   2.082  15.547 -2.1707 -0.5224 -0.7114
11319TIP3   OH255371   5.121   4.577   5.383  0.3316  0.1695  0.0881
11319TIP3    H155372   5.161   4.663   5.400  0.3370  0.1723  0.0604
11319TIP3    H255373   5.084   4.584   5.295  1.3777 -0.2419 -0.4025
11320TIP3   OH255374   5.315   5.320   2.256 -0.8237  0.2115  0.5277
11320TIP3    H155375   5.224   5.309   2.281 -1.3363  1.2689 -0.7518
11320TIP3    H255376   5.339   5.238   2.213 -1.2455  0.0342  0.6294
11321TIP3   OH255377   0.658   1.483  13.618  0.1167 -0.1894  0.1566
11321TIP3    H155378   0.694   1.566  13.649  1.8674 -0.6153 -0.6548
11321TIP3    H255379   0.702   1.417  13.671 -0.3397 -0.6777 -0.0679
11322TIP3   OH255380   4.572   0.339  12.063 -0.0432 -0.1887 -0.2748
11322TIP3    H155381   4.629   0.415  12.073 -1.2569  0.6361  0.5844
11322TIP3    H255382   4.519   0.359  11.986 -0.3788 -0.1464 -0.0352
11323TIP3   OH255383   5.847   3.155  17.163  0.1960  0.7657  0.0511
11323TIP3    H155384   5.838   3.101  17.242 -0.8077 -1.7991 -1.7048
11323TIP3    H255385   5.758   3.171  17.134  0.4509  3.5557  0.5115
11324TIP3   OH255386   2.435   3.372  14.353  0.0184  0.0734  0.1348
11324TIP3    H155387   2.459   3.414  14.436 -1.4056 -0.1698  0.6964
11324TIP3    H255388   2.400   3.443  14.299 -2.2163 -0.2858  1.0167
11325TIP3   OH255389   2.071   1.719  16.601  0.4475  0.2343  0.1484
11325TIP3    H155390   2.088   1.804  16.641 -0.2600  0.2509  0.4380
11325TIP3    H255391   1.976   1.706  16.612  0.5745 -0.6715  0.2769
11326TIP3   OH255392   1.233   2.801  14.163 -0.5046 -0.0826  0.4803
11326TIP3    H155393   1.241   2.801  14.067  0.1783 -0.3853  0.5320
11326TIP3    H255394   1.141   2.778  14.179  0.0628 -3.3491 -0.0836
11327TIP3   OH255395   6.324   5.084   2.990 -0.1856  0.0371  0.2064
11327TIP3    H155396   6.419   5.098   2.994 -0.3717  1.2708  1.0514
11327TIP3    H255397   6.292   5.114   3.076 -1.5039  1.1661 -0.6246
11328TIP3   OH255398   3.590   5.342   6.197  0.2220 -0.2545  0.0202
11328TIP3    H155399   3.632   5.404   6.137 -0.2419  0.2038  0.1660
11328TIP3    H255400   3.626   5.363   6.283 -1.6931  1.4352  0.4779
11329TIP3   OH255401   0.094   3.634  14.275 -0.0107 -0.3823  0.3832
11329TIP3    H155402   0.139   3.567  14.327  0.4254 -1.7665 -1.6630
11329TIP3    H255403   0.020   3.587  14.236 -0.3223  0.6191 -0.2579
11330TIP3   OH255404   5.474   1.015   4.514  0.1513  0.3089 -0.3385
11330TIP3    H155405   5.402   1.055   4.564  0.7660  0.4051  0.4868
11330TIP3    H255406   5.458   1.043   4.423 -0.6169  0.6726 -0.1026
11331TIP3   OH255407   2.810   2.061   4.225 -0.4169  0.8159 -0.1142
11331TIP3    H155408   2.734   2.010   4.197 -0.2571  0.7486 -0.4210
11331TIP3    H255409   2.795   2.077   4.318 -2.6159  3.8102 -0.8155
11332TIP3   OH255410   5.647   2.177  16.955  0.1783 -0.4016  0.3732
11332TIP3    H155411   5.736   2.211  16.962 -0.5804  1.2890  2.9382
11332TIP3    H255412   5.603   2.238  16.896  0.0820  0.2543  1.1114
11333TIP3   OH255413   6.392   0.440   4.226  0.1322 -0.2170 -0.0788
11333TIP3    H155414   6.412   0.530   4.252  0.2323 -0.1017 -0.5553
11333TIP3    H255415   6.412   0.388   4.304  1.5849 -0.0181 -0.2883
11334TIP3   OH255416   1.422   0.138  17.022 -0.9898  0.3498  0.8988
11334TIP3    H155417   1.452   0.060  16.976 -2.6915  0.1154  0.1294
11334TIP3    H255418   1.436   0.119  17.114 -0.2469 -0.3589  0.6506
11335TIP3   OH255419   3.831   0.500   4.912  0.0910 -0.1167  0.5244
11335TIP3    H155420   3.838   0.595   4.910  0.1191 -0.1345 -0.6003
11335TIP3    H255421   3.889   0.473   4.983 -0.8173  0.7635  1.6473
11336TIP3   OH255422   0.143   1.934  15.761  0.4681  0.0895 -0.2535
11336TIP3    H155423   0.163   2.022  15.794  2.1284  0.0399 -1.0231
11336TIP3    H255424   0.047   1.929  15.763  0.4064  1.2597  1.4275
11337TIP3   OH255425   5.914   4.574   1.685  0.6600 -0.2974  0.6562
11337TIP3    H155426   5.998   4.618   1.704  0.2151  0.2079  1.5374
11337TIP3    H255427   5.907   4.576   1.590  1.5109 -0.0694  0.5884
11338TIP3   OH255428   5.985   2.158   0.792 -0.5682  0.0844  0.4179
11338TIP3    H155429   5.940   2.073   0.790  1.6731 -1.1857  0.4035
11338TIP3    H255430   6.068   2.140   0.837  1.0595  1.6919 -1.7082
11339TIP3   OH255431   2.591   4.488   3.237  0.3452 -0.2961  0.2425
11339TIP3    H155432   2.529   4.559   3.252 -0.7821 -1.2418  0.2836
11339TIP3    H255433   2.537   4.408   3.240  0.9553 -0.9876 -2.8853
11340TIP3   OH255434   6.333   3.758   4.677  0.0202  0.4609 -0.4037
11340TIP3    H155435   6.266   3.826   4.669 -1.2091 -0.5754  0.6089
11340TIP3    H255436   6.289   3.677   4.649  1.0535 -0.1259 -0.3847
11341TIP3   OH255437   6.012   1.299   0.514  0.3951  0.2164 -0.2738
11341TIP3    H155438   6.060   1.277   0.435  1.2497  2.6295 -0.5133
11341TIP3    H255439   6.041   1.235   0.579  0.1733 -1.3810 -1.7110
11342TIP3   OH255440   3.460   4.715   3.076 -0.2323  0.0035 -0.1511
11342TIP3    H155441   3.540   4.724   3.128 -0.7604 -0.6728  0.8234
11342TIP3    H255442   3.482   4.651   3.008  0.2834  0.4234 -0.3827
11343TIP3   OH255443   5.379   0.538  15.457  0.6166 -0.3706  0.2479
11343TIP3    H155444   5.353   0.622  15.418  3.7462  0.1996 -0.9476
11343TIP3    H255445   5.450   0.561  15.517  0.2702 -2.0184  1.3535
11344TIP3   OH255446   0.252   3.603   3.691 -0.0597 -0.0253  0.0716
11344TIP3    H155447   0.248   3.550   3.770 -0.7694  0.4736  0.3798
11344TIP3    H255448   0.239   3.693   3.722 -0.1240  0.1941 -0.5808
11345TIP3   OH255449   2.255   6.786  16.471 -0.1398  0.2313 -0.2072
11345TIP3    H155450   2.348   6.769  16.451 -0.7875 -1.6379 -1.9812
11345TIP3    H255451   2.242   6.877  16.443  1.5290  1.1580  1.7505
11346TIP3   OH255452   4.085   5.599  10.848 -0.2005  0.1885  0.1787
11346TIP3    H155453   4.160   5.540  10.849  0.6770  1.2578  0.0975
11346TIP3    H255454   4.109   5.669  10.909 -0.5383  1.2203 -0.8191
11347TIP3   OH255455   0.714   2.419   1.719  0.4564 -0.0043  0.2541
11347TIP3    H155456   0.747   2.508   1.729  1.9949 -0.5268  0.0933
11347TIP3    H255457   0.713   2.384   1.808  2.2818 -0.6056  0.0968
11348TIP3   OH255458   3.367   4.885  16.097  0.3991  0.4274  0.3755
11348TIP3    H155459   3.363   4.837  16.179 -0.3814  0.5641  0.4210
11348TIP3    H255460   3.369   4.817  16.029  1.1559  0.3145  0.5044
11349TIP3   OH255461   3.377   0.836  11.867  0.1156 -0.0008  0.3122
11349TIP3    H155462   3.403   0.905  11.806 -2.0501 -0.2933 -1.0485
11349TIP3    H255463   3.385   0.755  11.817 -0.2840 -0.4096  0.8971
11350TIP3   OH255464   0.791   0.361  11.722 -0.0429 -0.6762  0.3716
11350TIP3    H155465   0.731   0.338  11.650  0.5485 -0.8193 -0.0837
11350TIP3    H255466   0.773   0.295  11.789  0.5449 -1.5693 -0.3099
11351TIP3   OH255467   5.779   0.307   3.379 -0.1994 -0.0802  0.2341
11351TIP3    H155468   5.777   0.364   3.302 -0.3439  0.3483  0.5494
11351TIP3    H255469   5.689   0.276   3.388 -0.1252 -0.3411  0.0755
11352TIP3   OH255470   1.774   5.064  13.039 -0.3638 -0.6476 -0.3382
11352TIP3    H155471   1.807   5.135  13.093 -1.4526  1.2119 -1.9973
11352TIP3    H255472   1.852   5.013  13.016  0.3559 -0.3795  1.3610
11353TIP3   OH255473   1.287   2.535  15.506  0.2429  0.2064 -0.9343
11353TIP3    H155474   1.352   2.467  15.493 -0.5089 -0.4195 -1.5477
11353TIP3    H255475   1.332   2.616  15.484  1.0948 -0.0964 -0.3690
11354TIP3   OH255476   1.734   3.038  13.687  0.0327 -0.0048 -0.5805
11354TIP3    H155477   1.724   3.010  13.596 -1.3629  0.9616 -0.7576
11354TIP3    H255478   1.818   3.083  13.690  0.9306 -1.5685 -0.9558
11355TIP3   OH255479   4.050   2.856  11.183  0.3116 -0.4070  0.3401
11355TIP3    H155480   4.047   2.922  11.113 -0.1563 -1.2468 -0.4549
11355TIP3    H255481   4.003   2.897  11.255 -0.3423 -0.0191 -0.2845
11356TIP3   OH255482   4.784   0.407  11.842 -0.3222  0.1055  0.2051
11356TIP3    H155483   4.769   0.450  11.927 -1.0236 -0.0117  0.1501
11356TIP3    H255484   4.849   0.462  11.799 -0.3031  0.4277  0.6329
11357TIP3   OH255485   1.893   1.375   2.407 -0.3137 -0.1526  0.7909
11357TIP3    H155486   1.894   1.363   2.502 -1.2095 -0.1811  0.8108
11357TIP3    H255487   1.898   1.470   2.395  0.4416 -0.1820  0.8410
11358TIP3   OH255488   0.703   5.292  15.746 -0.2231  0.0841  0.3839
11358TIP3    H155489   0.744   5.299  15.660  1.9836 -0.4468  1.3170
11358TIP3    H255490   0.697   5.197  15.761  0.3017  0.1739  1.1957
11359TIP3   OH255491   6.796   4.804  16.189 -0.4176 -0.3914 -0.0780
11359TIP3    H155492   6.785   4.815  16.094 -1.1920 -1.8931 -0.1941
11359TIP3    H255493   6.752   4.880  16.227  0.7544  0.7631 -0.9171
11360TIP3   OH255494   1.443   5.358  12.509  0.0006 -0.4130 -0.0107
11360TIP3    H155495   1.521   5.374  12.456 -0.6432 -0.1777 -0.9083
11360TIP3    H255496   1.442   5.263  12.522 -0.0637 -0.5273 -0.7929
11361TIP3   OH255497   1.222   6.069  12.115 -0.1641 -0.1579 -0.2385
11361TIP3    H155498   1.282   6.012  12.067 -0.7758  0.1317 -1.3877
11361TIP3    H255499   1.135   6.039  12.090 -0.5034  1.3082 -0.9509
11362TIP3   OH255500   4.015   1.501   2.916  0.2820 -0.2222 -0.2951
11362TIP3    H155501   4.051   1.449   2.987  0.2654 -2.0197 -1.5176
11362TIP3    H255502   4.061   1.470   2.838 -1.1962  0.1416 -1.3610
11363TIP3   OH255503   2.687   3.545   2.277 -0.1323 -0.4434 -0.0261
11363TIP3    H155504   2.719   3.498   2.201 -1.2446 -1.6491  0.2166
11363TIP3    H255505   2.645   3.478   2.331  0.0475  0.4936  1.3370
11364TIP3   OH255506   6.318   3.539  13.259 -0.6064 -0.5580 -0.2210
11364TIP3    H155507   6.380   3.520  13.188 -0.4187  1.1691 -0.5659
11364TIP3    H255508   6.373   3.571  13.331 -1.0858  1.7283 -0.7917
11365TIP3   OH255509   4.164   6.246   4.500  0.0650 -0.2552  0.2790
11365TIP3    H155510   4.111   6.183   4.548 -0.0362 -0.4731 -0.1137
11365TIP3    H255511   4.253   6.212   4.506  0.2286  0.3036  1.2515
11366TIP3   OH255512   4.306   0.719   6.765 -0.1731 -0.6989 -0.1512
11366TIP3    H155513   4.227   0.766   6.741 -1.7716 -2.6176  1.0045
11366TIP3    H255514   4.332   0.757   6.849  0.8236  0.6755 -1.0461
11367TIP3   OH255515   1.505   4.410  14.494  0.7402  0.2997 -0.0627
11367TIP3    H155516   1.469   4.442  14.412 -1.2715  3.4196  1.8461
11367TIP3    H255517   1.433   4.366  14.538  0.9216  1.1553  1.1777
11368TIP3   OH255518   6.268   4.827   2.804  0.6617  0.1585  0.6444
11368TIP3    H155519   6.278   4.898   2.868  0.9150 -0.3984  1.2456
11368TIP3    H255520   6.180   4.839   2.768 -0.4744 -0.8707  2.8385
11369TIP3   OH255521   5.623   1.506  10.450 -0.4276  0.3243 -0.0387
11369TIP3    H155522   5.691   1.514  10.517 -2.2373 -0.1506  1.9683
11369TIP3    H255523   5.577   1.590  10.452  0.0010  0.6139 -1.3291
11370TIP3   OH255524   2.079   0.530  14.173  0.6780 -0.5746 -0.0152
11370TIP3    H155525   2.073   0.616  14.130  0.2802 -0.5343  0.1212
11370TIP3    H255526   2.014   0.533  14.243  0.6687 -0.9834 -0.0021
11371TIP3   OH255527   0.446   5.879   1.814 -0.2375 -0.5260 -0.0699
11371TIP3    H155528   0.374   5.886   1.750 -1.5100  2.4962  1.4649
11371TIP3    H255529   0.497   5.959   1.802  0.3838 -0.6092  1.6671
11372TIP3   OH255530   2.870   2.912  16.085 -0.3053 -0.3231  0.1380
11372TIP3    H155531   2.853   2.989  16.138 -0.1221  0.0740 -0.3736
11372TIP3    H255532   2.960   2.924  16.054  0.0537 -1.1888  0.8003
11373TIP3   OH255533   0.329   5.047  15.455 -0.0901 -0.0127  0.4371
11373TIP3    H155534   0.372   5.065  15.371 -1.2189 -0.9093 -0.3687
11373TIP3    H255535   0.331   5.131  15.501  0.8724  0.4109 -0.3236
11374TIP3   OH255536   5.465   2.114   5.389 -0.1747  0.0480  0.0593
11374TIP3    H155537   5.398   2.179   5.367  1.7510  1.7161 -1.1996
11374TIP3    H255538   5.482   2.128   5.482  0.0454  1.1823 -0.1460
11375TIP3   OH255539   0.373   2.213   0.417 -0.5396  0.4305 -0.1958
11375TIP3    H155540   0.386   2.192   0.509  2.1039  0.6030 -0.4345
11375TIP3    H255541   0.371   2.128   0.373 -2.5690  0.3099  0.0303
11376TIP3   OH255542   3.995   4.156  12.492  0.8026  0.1527 -0.0714
11376TIP3    H155543   4.079   4.118  12.468 -0.1887 -1.7440 -0.7219
11376TIP3    H255544   3.945   4.159  12.411  0.1976  1.2114  0.3112
11377TIP3   OH255545   6.426   4.579  15.334  0.0836  0.1298 -0.1665
11377TIP3    H155546   6.459   4.489  15.325 -0.5032 -0.0189 -0.9128
11377TIP3    H255547   6.505   4.633  15.331  0.6134 -0.4182  1.9128
11378TIP3   OH255548   1.186   2.855   1.263 -0.0919  0.2329 -0.1223
11378TIP3    H155549   1.253   2.859   1.332  0.4090 -0.8785 -0.5091
11378TIP3    H255550   1.122   2.922   1.287  0.0590 -0.1462  1.4376
11379TIP3   OH255551   3.376   2.081  16.677 -0.0019 -0.4929  0.0102
11379TIP3    H155552   3.470   2.097  16.679  0.1989 -1.3951 -1.2852
11379TIP3    H255553   3.345   2.109  16.763  1.4591 -0.2965  0.4925
11380TIP3   OH255554   5.909   2.985  15.229 -0.6113 -0.0485 -0.3776
11380TIP3    H155555   5.998   3.012  15.206 -0.6985  0.8292  0.2656
11380TIP3    H255556   5.908   2.890  15.214 -0.1820  0.2209 -2.3343
11381TIP3   OH255557   6.759   0.167   6.094  0.1937 -0.8493  0.1801
11381TIP3    H155558   6.703   0.123   6.158  1.1737 -1.2604  0.7783
11381TIP3    H255559   6.776   0.253   6.132 -0.1390 -0.6776 -0.0614
11382TIP3   OH255560   5.707   3.936  16.939  0.0148 -0.2328  0.0893
11382TIP3    H155561   5.728   4.024  16.971  0.3746  0.3382 -1.6346
11382TIP3    H255562   5.788   3.906  16.897  0.0260 -1.5835  0.9972
11383TIP3   OH255563   5.784   3.914   5.689 -0.0737 -0.2058  0.3899
11383TIP3    H155564   5.827   3.945   5.769 -0.7983  0.3155  0.5831
11383TIP3    H255565   5.854   3.914   5.623  0.5315 -0.6403  1.0080
11384TIP3   OH255566   2.825   6.451  16.247 -0.3624  0.2599 -0.8336
11384TIP3    H155567   2.746   6.404  16.219 -0.4647  0.3050 -0.6266
11384TIP3    H255568   2.795   6.541  16.262 -0.6424 -0.0687  0.8042
11385TIP3   OH255569   6.331   5.654   2.143 -0.2312  0.0407  0.7612
11385TIP3    H155570   6.360   5.564   2.137 -0.4950  0.0598 -2.9058
11385TIP3    H255571   6.409   5.706   2.123 -0.4141  0.6010  1.4411
11386TIP3   OH255572   1.647   0.267   0.462 -0.3696 -0.5481  0.1682
11386TIP3    H155573   1.664   0.334   0.396  0.5896 -2.3601 -1.5439
11386TIP3    H255574   1.641   0.315   0.544  0.3982  1.6008 -0.9592
11387TIP3   OH255575   1.751   2.726  11.709 -0.2362  0.0860  0.8410
11387TIP3    H155576   1.746   2.809  11.660  2.4919  0.2716  0.7264
11387TIP3    H255577   1.829   2.736  11.764  0.3377 -2.5192  0.6045
11388TIP3   OH255578   4.148   5.734   1.587  0.3263 -0.1311  0.2274
11388TIP3    H155579   4.099   5.666   1.634  0.3056  0.6616  1.3825
11388TIP3    H255580   4.232   5.739   1.633  0.7636 -0.1413 -0.5544
11389TIP3   OH255581   6.738   4.489  16.849  0.3530  0.0027 -0.4089
11389TIP3    H155582   6.816   4.545  16.858  1.0048 -0.5157 -2.2467
11389TIP3    H255583   6.711   4.471  16.938  2.0384  0.6473  0.2818
11390TIP3   OH255584   6.694   4.119   4.279 -0.6680  0.2068  0.2824
11390TIP3    H155585   6.702   4.152   4.189  1.5283  0.8765  0.6678
11390TIP3    H255586   6.703   4.024   4.270  2.4628  0.4323 -0.0236
11391TIP3   OH255587   6.763   1.167   1.611  0.1301  0.3352  0.8014
11391TIP3    H155588   6.689   1.210   1.655  1.0628  2.8562  0.0862
11391TIP3    H255589   6.840   1.196   1.660  0.9674  1.1617 -0.8931
11392TIP3   OH255590   5.902   0.024   2.047 -1.0006 -0.5600 -0.0759
11392TIP3    H155591   5.841   0.053   1.979 -0.7530 -0.7777 -0.3903
11392TIP3    H255592   5.945   0.105   2.077 -0.1385 -0.6091 -1.1133
11393TIP3   OH255593   1.691   6.254  11.633 -0.0308  0.3835 -0.1082
11393TIP3    H155594   1.685   6.341  11.594  1.0588  0.7811  0.5715
11393TIP3    H255595   1.606   6.241  11.675 -0.0449  1.3020  0.1603
11394TIP3   OH255596   2.223   6.199  11.587  0.1119  0.2015 -0.6889
11394TIP3    H155597   2.310   6.176  11.556  0.6925  0.1024  0.9447
11394TIP3    H255598   2.169   6.123  11.567  1.1425 -1.0764  1.1932
11395TIP3   OH255599   0.916   5.633   1.311  0.0537 -0.3281  0.4620
11395TIP3    H155600   0.858   5.598   1.245  0.3167  0.3655 -0.1448
11395TIP3    H255601   1.001   5.642   1.267  0.2154  0.2038  0.8646
11396TIP3   OH255602   0.240   3.543  11.518 -0.3422  0.7626  0.0403
11396TIP3    H155603   0.266   3.453  11.534 -3.5940 -0.5041 -0.8472
11396TIP3    H255604   0.296   3.572  11.446  1.1215 -0.3349  0.6953
11397TIP3   OH255605   0.316   0.548  14.319  0.6704  0.0211  0.0126
11397TIP3    H155606   0.264   0.554  14.399 -1.2014 -0.1942 -1.1342
11397TIP3    H255607   0.308   0.456  14.292  0.5958  0.2734 -0.8506
11398TIP3   OH255608   2.736   2.059  15.941  0.3604  0.5111 -0.2710
11398TIP3    H155609   2.677   1.984  15.943 -0.5373  1.1855 -0.8246
11398TIP3    H255610   2.680   2.133  15.915  1.2955  1.3016 -0.0785
11399TIP3   OH255611   2.975   1.339  16.749 -0.4357 -0.3393 -0.6104
11399TIP3    H155612   3.011   1.267  16.802 -0.2370 -1.2723 -1.9674
11399TIP3    H255613   3.051   1.394  16.728 -0.5834  0.2722  0.4068
11400TIP3   OH255614   5.624   6.638   0.044  0.0014  0.2105 -0.4556
11400TIP3    H155615   5.588   6.707   0.101 -1.1685 -0.5722 -0.2029
11400TIP3    H255616   5.617   6.558   0.097 -0.3108 -0.3899 -1.3846
11401TIP3   OH255617   2.267   4.815   4.685  0.6003  0.4886 -0.2736
11401TIP3    H155618   2.339   4.765   4.645  0.8153  0.7339 -0.1994
11401TIP3    H255619   2.265   4.786   4.776  0.6251  0.4998 -0.2691
11402TIP3   OH255620   6.273   1.213   3.289 -0.4502  0.3014  0.0568
11402TIP3    H155621   6.255   1.121   3.267  3.3214 -0.8731  1.1211
11402TIP3    H255622   6.329   1.244   3.218 -0.0922  1.1662  0.7083
11403TIP3   OH255623   0.217   0.813   4.354 -0.4831 -0.0666  0.1227
11403TIP3    H155624   0.230   0.720   4.334  0.3337 -0.4077  2.0278
11403TIP3    H255625   0.298   0.840   4.398 -1.4621  1.0342  1.3470
11404TIP3   OH255626   1.648   1.174  14.259 -0.4634 -0.4042  0.2445
11404TIP3    H155627   1.620   1.117  14.330 -1.3651 -0.7795 -0.3996
11404TIP3    H255628   1.586   1.247  14.261 -1.1662 -0.9529 -0.8253
11405TIP3   OH255629   2.554   5.471  15.744 -0.7420 -0.5280 -0.1466
11405TIP3    H155630   2.576   5.401  15.806 -2.0828 -0.3479  0.5769
11405TIP3    H255631   2.629   5.530  15.747 -1.1441 -0.0379  2.0266
11406TIP3   OH255632   2.304   4.109  15.579 -0.3216 -0.2315  0.7213
11406TIP3    H155633   2.257   4.034  15.542  2.0290 -1.5572  0.1821
11406TIP3    H255634   2.371   4.070  15.635  1.7947  1.3270 -0.5483
11407TIP3   OH255635   2.736   5.517  14.119 -0.0117  0.1073 -0.7739
11407TIP3    H155636   2.687   5.598  14.132 -0.6015 -0.3072 -0.3455
11407TIP3    H255637   2.808   5.521  14.181  0.8855  1.0019 -1.8303
11408TIP3   OH255638   0.257   1.533   4.673 -0.2781 -0.1438 -0.1726
11408TIP3    H155639   0.236   1.529   4.580  0.3042 -2.2227 -0.2700
11408TIP3    H255640   0.175   1.558   4.715 -0.4017  1.4310 -1.2518
11409TIP3   OH255641   2.396   6.361  14.935  0.0459  0.0079  0.4776
11409TIP3    H155642   2.451   6.287  14.959 -0.3277 -0.2771  0.4577
11409TIP3    H255643   2.374   6.346  14.843  0.1889  0.2848  0.3947
11410TIP3   OH255644   3.461   0.812  15.789 -0.0011  0.1070 -0.1014
11410TIP3    H155645   3.507   0.894  15.775  0.6957  0.1717  2.2248
11410TIP3    H255646   3.425   0.790  15.703  1.1275  2.0095 -1.1269
11411TIP3   OH255647   3.408   5.376   5.412 -0.3848 -0.4768 -0.1206
11411TIP3    H155648   3.410   5.364   5.317 -1.9472  0.1546 -0.2577
11411TIP3    H255649   3.320   5.350   5.438 -0.4403  0.6781  0.9581
11412TIP3   OH255650   3.862   4.136   5.322 -0.8278  0.1466  0.1200
11412TIP3    H155651   3.945   4.171   5.355  0.4882 -2.1147 -0.5138
11412TIP3    H255652   3.876   4.126   5.228 -1.3195 -1.4405  0.1853
11413TIP3   OH255653   4.614   3.872  11.071 -0.5583  0.0970  0.2936
11413TIP3    H155654   4.624   3.778  11.055 -0.8503 -0.2857  2.1171
11413TIP3    H255655   4.599   3.879  11.165  0.6240  2.0739  0.3951
11414TIP3   OH255656   5.187   3.730  12.047  0.0725 -0.1894  0.3442
11414TIP3    H155657   5.235   3.655  12.011 -1.6118 -0.6973 -0.9892
11414TIP3    H255658   5.104   3.730  11.999 -0.7801  1.3551  1.7268
11415TIP3   OH255659   5.762   0.690   3.294  0.1784 -0.5186  0.0585
11415TIP3    H155660   5.750   0.618   3.233  1.3070 -0.7576  0.0982
11415TIP3    H255661   5.750   0.650   3.380  0.9267 -0.6933  0.0859
11416TIP3   OH255662   4.005   1.514  14.928 -0.2694 -0.1224 -0.2592
11416TIP3    H155663   3.988   1.423  14.904  0.6764  0.1563 -2.1720
11416TIP3    H255664   3.931   1.563  14.891  0.0502  0.0640 -0.6578
11417TIP3   OH255665   2.310   5.899  11.886 -0.1022  0.3435 -0.0119
11417TIP3    H155666   2.333   5.882  11.794 -0.4566 -1.9178  0.2632
11417TIP3    H255667   2.227   5.948  11.881  1.0760  2.3783 -0.8809
11418TIP3   OH255668   3.979   0.986  11.100 -0.6818  0.4053 -0.0552
11418TIP3    H155669   3.917   0.930  11.051 -0.6077 -1.3621  1.7278
11418TIP3    H255670   3.993   1.061  11.043 -2.3005 -0.4814 -1.7572
11419TIP3   OH255671   4.732   3.831  10.770  0.0640 -0.0465 -0.7635
11419TIP3    H155672   4.792   3.837  10.696  3.3132 -1.3884  1.5528
11419TIP3    H255673   4.711   3.738  10.777  0.9763 -0.1761  0.7741
11420TIP3   OH255674   5.591   0.866  13.047 -0.1091 -0.2822  0.0210
11420TIP3    H155675   5.627   0.778  13.060  0.3483 -0.0241  0.5458
11420TIP3    H255676   5.627   0.917  13.119 -0.6083  0.2669 -0.1140
11421TIP3   OH255677   0.366   5.953   2.846 -0.1195  0.0058 -0.0044
11421TIP3    H155678   0.394   5.893   2.914 -0.6234  0.2407  0.4196
11421TIP3    H255679   0.316   6.020   2.892 -3.9774 -1.9140 -0.9627
11422TIP3   OH255680   0.434   0.293   5.610 -0.4024  0.2114 -0.3497
11422TIP3    H155681   0.342   0.266   5.619 -0.0594 -1.3099 -1.0825
11422TIP3    H255682   0.461   0.257   5.526  0.4105  2.1117 -0.9625
11423TIP3   OH255683   4.132   0.775  15.916 -0.2701  0.1302  0.1069
11423TIP3    H155684   4.089   0.837  15.975 -1.7494 -2.2211  1.6328
11423TIP3    H255685   4.065   0.752  15.852 -0.2457 -1.0907  0.5111
11424TIP3   OH255686   0.964   3.582  15.153 -0.3125 -0.6870 -0.1112
11424TIP3    H155687   0.918   3.619  15.228  1.2792  0.3853  0.3842
11424TIP3    H255688   0.900   3.586  15.082 -0.9354  0.9700  0.4855
11425TIP3   OH255689   1.709   4.833  13.211 -0.5333  0.2162  0.7665
11425TIP3    H155690   1.727   4.907  13.152 -0.5441 -1.3660 -1.3311
11425TIP3    H255691   1.616   4.815  13.198 -0.1641 -1.2211 -0.0936
11426TIP3   OH255692   4.952   5.686   2.028  0.1942 -0.0196 -0.4355
11426TIP3    H155693   4.998   5.692   2.112  1.1894 -1.5440 -0.8118
11426TIP3    H255694   4.932   5.776   2.005  1.5917  0.5916  0.5555
11427TIP3   OH255695   2.611   6.273   4.900 -0.1717 -0.0112 -0.4133
11427TIP3    H155696   2.516   6.281   4.896 -0.1643  0.6640  0.4240
11427TIP3    H255697   2.633   6.285   4.993  0.7598  0.2841 -0.6540
11428TIP3   OH255698   5.218   3.657  16.187 -0.0128 -0.1918  0.2088
11428TIP3    H155699   5.124   3.678  16.184 -0.4367 -2.0120 -1.5472
11428TIP3    H255700   5.254   3.696  16.108  0.6692  0.2077  0.7040
11429TIP3   OH255701   5.244   3.817   3.280 -0.4616  0.4267  0.1620
11429TIP3    H155702   5.313   3.878   3.251  0.8900 -1.3980 -0.6746
11429TIP3    H255703   5.188   3.870   3.337  0.8121  2.3622 -0.2696
11430TIP3   OH255704   1.399   5.102   5.313 -0.6272 -0.2685 -0.0281
11430TIP3    H155705   1.399   5.083   5.407 -0.2813 -0.1011  0.0065
11430TIP3    H255706   1.458   5.176   5.303  0.5114 -1.2190 -0.5589
11431TIP3   OH255707   4.056   0.806  11.897 -0.2993  0.0159  0.9295
11431TIP3    H155708   4.069   0.715  11.871 -1.3758 -0.5437  2.2182
11431TIP3    H255709   4.117   0.820  11.970  0.9551  0.8300 -0.2140
11432TIP3   OH255710   5.693   0.700  15.924 -0.1513 -0.3848  0.7016
11432TIP3    H155711   5.749   0.708  16.001  0.7231 -0.2807  0.0682
11432TIP3    H255712   5.738   0.637  15.868  0.7319  1.6505 -1.0070
11433TIP3   OH255713   1.905   5.591   3.298  0.1818 -0.2418  0.1572
11433TIP3    H155714   1.861   5.572   3.381  1.8709 -1.9602  0.7395
11433TIP3    H255715   1.981   5.644   3.322  0.3695 -0.2611 -0.3748
11434TIP3   OH255716   3.940   2.605  12.885  0.2638 -0.3279 -0.0155
11434TIP3    H155717   3.997   2.674  12.921 -0.0269 -0.7307  1.2512
11434TIP3    H255718   3.852   2.642  12.890  0.1895 -0.5014 -0.0425
11435TIP3   OH255719   4.682   3.398  15.105 -0.1601  0.9211 -0.4371
11435TIP3    H155720   4.726   3.368  15.025  1.0958  1.7375 -0.0667
11435TIP3    H255721   4.638   3.320  15.138  2.6576 -0.5185  0.2569
11436TIP3   OH255722   4.774   0.686  13.280  0.3384 -0.8974  0.5453
11436TIP3    H155723   4.832   0.642  13.218  0.7413  0.6783 -0.2767
11436TIP3    H255724   4.686   0.678  13.241  0.6217  0.3210 -0.4574
11437TIP3   OH255725   2.821   4.610  14.076 -0.0586  0.3027 -0.4291
11437TIP3    H155726   2.804   4.672  14.146  2.1009  1.1868 -0.6036
11437TIP3    H255727   2.768   4.641  14.002 -0.9957  0.3796  0.2654
11438TIP3   OH255728   3.205   3.913   4.814  0.3745  0.0380  0.3580
11438TIP3    H155729   3.291   3.954   4.820  1.2095 -1.2363 -1.6380
11438TIP3    H255730   3.218   3.825   4.851 -0.1722 -0.0218  0.4112
11439TIP3   OH255731   1.033   6.027   2.189  0.2585 -0.7322  0.5461
11439TIP3    H155732   1.068   5.995   2.272  0.1589  0.0926  0.9219
11439TIP3    H255733   1.108   6.063   2.142  0.4756 -2.0326 -0.1405
11440TIP3   OH255734   2.228   0.838  12.116  0.1510  0.0723  0.1599
11440TIP3    H155735   2.140   0.806  12.093  0.3830 -0.0173 -0.6229
11440TIP3    H255736   2.213   0.900  12.187 -0.7554  1.4645 -1.1817
11441TIP3   OH255737   3.846   4.668  11.263 -0.2278 -0.4106 -0.0807
11441TIP3    H155738   3.880   4.693  11.349  0.4633 -0.3726 -0.3531
11441TIP3    H255739   3.912   4.700  11.201 -0.7454 -0.3817 -0.6313
11442TIP3   OH255740   0.262   0.622   4.870  0.0376  0.1290 -0.3243
11442TIP3    H155741   0.210   0.596   4.946 -1.3289  1.5869 -0.7217
11442TIP3    H255742   0.227   0.707   4.843  1.1537  0.1304 -1.9828
11443TIP3   OH255743   5.051   2.432  16.923 -0.2425  0.0364  0.0343
11443TIP3    H155744   5.065   2.339  16.941 -0.1454  0.0747  0.1575
11443TIP3    H255745   4.985   2.433  16.854 -0.1741 -0.1258 -0.0339
11444TIP3   OH255746   0.016   5.914   1.510  0.4152 -0.5665  0.2811
11444TIP3    H155747   0.027   5.821   1.494  1.4486 -0.5525  0.7982
11444TIP3    H255748   0.017   5.954   1.423  2.1805 -0.8462  0.1322
11445TIP3   OH255749   6.729   6.136   3.298  0.1123 -0.4450 -0.4241
11445TIP3    H155750   6.759   6.226   3.314  0.2141 -0.2437 -1.6319
11445TIP3    H255751   6.775   6.083   3.363  0.4876  0.3012 -0.0700
11446TIP3   OH255752   1.360   0.975   5.590 -0.2475 -0.4575 -0.4290
11446TIP3    H155753   1.430   0.932   5.638  0.0470  0.0568 -0.3978
11446TIP3    H255754   1.327   0.907   5.531  1.3462 -0.2663 -1.6072
11447TIP3   OH255755   6.507   6.192  16.933  1.1145 -0.1727 -0.1447
11447TIP3    H155756   6.423   6.159  16.902  0.9474  0.5893 -0.5343
11447TIP3    H255757   6.487   6.240  17.012  1.4331 -1.4407  0.7353
11448TIP3   OH255758   3.446   2.536   3.660 -0.3072 -0.1650 -0.0869
11448TIP3    H155759   3.538   2.525   3.635 -0.3153  1.1898 -0.8213
11448TIP3    H255760   3.440   2.628   3.687 -1.3005 -0.4279  0.6307
11449TIP3   OH255761   3.423   4.066  15.698 -0.3380  0.6045  0.2417
11449TIP3    H155762   3.384   4.016  15.626 -0.6360  0.3647  0.5713
11449TIP3    H255763   3.375   4.038  15.776  1.4371 -0.7804  0.8960
11450TIP3   OH255764   1.726   0.638  11.149 -0.3894  0.1825  0.1738
11450TIP3    H155765   1.780   0.623  11.227 -0.4168 -1.1539 -0.0418
11450TIP3    H255766   1.652   0.689  11.181 -0.1449  0.0854  0.9196
11451TIP3   OH255767   4.350   5.092  14.285  0.2088 -0.2849 -0.2408
11451TIP3    H155768   4.440   5.119  14.302 -0.0039 -0.0412  0.5752
11451TIP3    H255769   4.336   5.109  14.192  1.1166 -0.6686 -0.4596
11452TIP3   OH255770   0.802   4.203   1.133  0.4196  0.0881 -0.1465
11452TIP3    H155771   0.747   4.229   1.206  0.7801 -1.5254  0.7585
11452TIP3    H255772   0.887   4.183   1.173  0.1026 -2.6436 -0.6306
11453TIP3   OH255773   6.027   6.422   1.047  0.3506 -0.7213 -0.0033
11453TIP3    H155774   5.964   6.495   1.051  0.4203 -0.6911  0.6193
11453TIP3    H255775   5.972   6.344   1.036  0.0669 -0.8530  1.8735
11454TIP3   OH255776   0.945   6.483   1.732  0.1261  0.0823  0.2165
11454TIP3    H155777   1.010   6.445   1.674 -0.1879 -2.7690  1.5890
11454TIP3    H255778   0.866   6.432   1.717 -0.4932  0.5089  1.8031
11455TIP3   OH255779   4.363   2.975  11.062  0.3000 -0.3337 -0.2361
11455TIP3    H155780   4.384   2.884  11.084 -0.3919 -0.4158  0.1208
11455TIP3    H255781   4.448   3.014  11.038  0.6305 -1.0185 -0.2136
11456TIP3   OH255782   3.359   1.918   4.126 -0.6449  0.2505 -0.2417
11456TIP3    H155783   3.274   1.875   4.133 -0.6849  0.4936  0.8663
11456TIP3    H255784   3.412   1.881   4.196 -0.0280  0.5405 -0.5395
11457TIP3   OH255785   6.060   3.777   5.127  0.0027  0.4340 -0.1367
11457TIP3    H155786   6.150   3.774   5.161  1.0315  1.9975 -2.4901
11457TIP3    H255787   6.034   3.868   5.137 -1.2969  0.0366  0.3283
11458TIP3   OH255788   0.011   1.241   0.081 -0.4659  1.0796  0.1920
11458TIP3    H155789   0.060   1.184   0.021 -1.9357 -0.4614  0.3854
11458TIP3    H255790   0.043   1.216   0.168 -0.2766  1.4021  0.2179
11459TIP3   OH255791   3.848   0.557  16.576 -0.1537 -0.7226  0.1062
11459TIP3    H155792   3.770   0.568  16.521  0.7554 -0.5861 -1.1919
11459TIP3    H255793   3.846   0.465  16.602  0.2078 -1.1951 -1.4412
11460TIP3   OH255794   4.785   3.424  16.091 -0.1887 -0.0466  0.0127
11460TIP3    H155795   4.794   3.376  16.173  0.6548 -2.4128 -1.3758
11460TIP3    H255796   4.691   3.441  16.083 -0.4234 -0.9173  0.8421
11461TIP3   OH255797   1.992   4.163   5.191  0.3131  0.7795  0.7143
11461TIP3    H155798   1.980   4.253   5.222  0.9404  1.1478 -0.0818
11461TIP3    H255799   2.083   4.142   5.213  0.6835  0.9427 -0.5703
11462TIP3   OH255800   0.521   2.524   2.691  0.0359 -0.1548 -0.4949
11462TIP3    H155801   0.512   2.499   2.783  2.0068 -3.2698 -1.0169
11462TIP3    H255802   0.444   2.487   2.648 -0.6900  0.9772 -0.2240
11463TIP3   OH255803   2.185   0.260   5.873 -0.0433 -0.1365 -0.0654
11463TIP3    H155804   2.216   0.328   5.932 -0.0419 -0.0756 -0.1358
11463TIP3    H255805   2.178   0.182   5.927 -2.1356  0.4083  0.5521
11464TIP3   OH255806   4.494   2.865  12.761  0.0695  0.2045 -0.0960
11464TIP3    H155807   4.497   2.908  12.675 -0.2118 -0.7613 -0.6144
11464TIP3    H255808   4.566   2.801  12.758  0.4892  0.6321  0.6560
11465TIP3   OH255809   4.925   0.840   2.831 -0.0856  0.3403  0.7212
11465TIP3    H155810   4.920   0.754   2.790 -1.7472  0.1571  1.2332
11465TIP3    H255811   4.896   0.824   2.921  1.0932  1.1694  1.2608
11466TIP3   OH255812   2.375   2.556   4.421  0.2270  0.0198 -0.2933
11466TIP3    H155813   2.423   2.473   4.411 -1.6366 -0.9334 -2.1964
11466TIP3    H255814   2.293   2.531   4.464  0.6096  1.3268  1.2870
11467TIP3   OH255815   4.003   5.702  17.088  0.6544 -0.4197 -0.7491
11467TIP3    H155816   4.000   5.663  17.000  0.7616 -1.2029 -0.4087
11467TIP3    H255817   3.964   5.789  17.076  3.0805  0.5837 -2.1401
11468TIP3   OH255818   3.262   3.257  14.991  0.2443 -0.5170  0.1744
11468TIP3    H155819   3.286   3.209  15.070  1.4312  0.0994  0.2148
11468TIP3    H255820   3.231   3.190  14.930  0.8131 -1.1927  0.6153
11469TIP3   OH255821   3.790   6.050  14.325 -0.1028 -0.2273 -0.1285
11469TIP3    H155822   3.832   5.964  14.329  1.0728  0.2120 -1.7837
11469TIP3    H255823   3.831   6.100  14.395 -0.1026 -0.7200  0.2296
11470TIP3   OH255824   6.547   2.947  10.923 -0.2937 -0.1268  0.6062
11470TIP3    H155825   6.545   2.988  11.010 -0.4757 -1.3842  1.2211
11470TIP3    H255826   6.478   2.992  10.874  1.2069  2.0840  0.3720
11471TIP3   OH255827   2.404   3.266  15.075  0.3759  0.2647 -0.5159
11471TIP3    H155828   2.466   3.193  15.066  1.3501  0.8432  1.1074
11471TIP3    H255829   2.393   3.299  14.986  1.0251 -0.9658 -1.0790
11472TIP3   OH255830   2.409   4.709   3.197 -0.1309  0.3132  0.4085
11472TIP3    H155831   2.459   4.769   3.141 -1.6120  1.7087  0.5161
11472TIP3    H255832   2.348   4.667   3.137  0.7339 -0.9602  0.3784
11473TIP3   OH255833   3.157   2.722  14.173  0.2707 -0.0663  0.3530
11473TIP3    H155834   3.129   2.812  14.188 -0.4412 -0.0234 -1.0684
11473TIP3    H255835   3.173   2.717  14.079  3.6562 -0.5289  0.8139
11474TIP3   OH255836   1.000   5.134   2.131  0.7010 -0.2659 -0.0526
11474TIP3    H155837   0.927   5.195   2.124 -0.6365 -1.9542 -1.6850
11474TIP3    H255838   0.959   5.048   2.138  2.5381 -1.2440 -0.6954
11475TIP3   OH255839   0.722   2.007   0.618 -0.5447  0.0342  0.5120
11475TIP3    H155840   0.644   1.974   0.574  0.5609 -1.6862 -0.2851
11475TIP3    H255841   0.728   1.956   0.699 -0.8767  0.9919  1.1493
11476TIP3   OH255842   2.804   5.511   3.584  0.2874 -0.3263 -0.3405
11476TIP3    H155843   2.735   5.445   3.578  0.6178 -0.5914 -1.7910
11476TIP3    H255844   2.833   5.509   3.675  0.2832 -2.1909 -0.3406
11477TIP3   OH255845   5.476   1.649   1.889  0.7898  0.3173  0.6513
11477TIP3    H155846   5.427   1.597   1.826  1.2258 -0.2880  0.8091
11477TIP3    H255847   5.567   1.647   1.858  1.0352 -0.1040  1.3629
11478TIP3   OH255848   3.842   5.910  13.266 -0.4091  0.2184 -0.6321
11478TIP3    H155849   3.861   5.820  13.295 -1.8139  0.2757  0.5727
11478TIP3    H255850   3.925   5.941  13.229  0.8683 -0.6516  1.3502
11479TIP3   OH255851   5.454   6.562  13.683 -0.9783 -0.0502 -0.3824
11479TIP3    H155852   5.412   6.500  13.623 -1.3472  0.2956 -0.4831
11479TIP3    H255853   5.381   6.607  13.726 -0.7539 -1.0582  1.1583
11480TIP3   OH255854   6.371   1.793  13.086 -0.5065 -0.6200  0.1083
11480TIP3    H155855   6.406   1.874  13.049  0.8142 -0.6441  1.2192
11480TIP3    H255856   6.326   1.820  13.166  1.2597 -1.0821  1.3240
11481TIP3   OH255857   1.548   5.641  11.548 -0.9647  0.2024 -0.1960
11481TIP3    H155858   1.614   5.579  11.515 -0.7982  0.7412 -0.9205
11481TIP3    H255859   1.474   5.630  11.489  0.1697  2.8177 -2.3678
11482TIP3   OH255860   2.507   1.698   5.465  0.0445 -0.4106  0.5046
11482TIP3    H155861   2.569   1.746   5.520  0.4461 -1.1388  0.6978
11482TIP3    H255862   2.423   1.741   5.482  0.4826  0.5832  0.2420
11483TIP3   OH255863   5.758   4.580   1.918 -0.1200 -0.1107 -0.6502
11483TIP3    H155864   5.748   4.676   1.917 -0.5225 -0.1278  0.7290
11483TIP3    H255865   5.830   4.564   1.856  0.5911  1.1702 -0.2031
11484TIP3   OH255866   3.200   2.466  11.280 -0.2003 -0.1382  0.1114
11484TIP3    H155867   3.184   2.501  11.367  0.9669  0.8590 -0.0414
11484TIP3    H255868   3.114   2.464  11.238 -0.5049  1.2478  0.6239
11485TIP3   OH255869   3.101   3.290  15.422  0.5746  0.1343  0.0535
11485TIP3    H155870   3.018   3.329  15.395 -1.4176 -3.5232  0.1419
11485TIP3    H255871   3.136   3.249  15.343  0.7748 -0.7361  0.5711
11486TIP3   OH255872   3.370   3.339  12.697 -0.0225 -0.1627  0.2663
11486TIP3    H155873   3.300   3.367  12.756  0.0091  0.6026 -0.0455
11486TIP3    H255874   3.327   3.327  12.613  0.0154 -0.8077  0.3391
11487TIP3   OH255875   5.840   2.366  15.751 -0.2634  0.0910 -0.4233
11487TIP3    H155876   5.844   2.295  15.687  0.7715 -0.7709  0.5578
11487TIP3    H255877   5.809   2.324  15.831  2.9872  0.0712  0.9647
11488TIP3   OH255878   2.822   0.830   3.750 -0.0491 -0.3940 -0.6151
11488TIP3    H155879   2.860   0.908   3.791 -1.4040 -0.3288  0.6073
11488TIP3    H255880   2.729   0.851   3.742 -0.7485 -2.4843  1.2380
11489TIP3   OH255881   2.339   6.336  14.179 -0.0089 -0.1165 -0.6189
11489TIP3    H155882   2.406   6.402  14.196  1.3632 -0.9690 -2.3884
11489TIP3    H255883   2.388   6.255  14.166 -1.5608 -1.2168  0.1338
11490TIP3   OH255884   0.697   0.557   3.039 -0.1885 -0.0501 -0.0687
11490TIP3    H155885   0.605   0.533   3.043 -1.2033  3.0921 -1.6492
11490TIP3    H255886   0.722   0.543   2.948  1.2498 -1.7962  0.5410
11491TIP3   OH255887   1.880   1.710   0.704  0.7143 -0.4726  0.0036
11491TIP3    H155888   1.959   1.755   0.675  0.0530  0.0710 -1.0123
11491TIP3    H255889   1.812   1.778   0.702 -0.1559 -1.3409 -0.8457
11492TIP3   OH255890   1.624   4.703   3.867  0.1601  0.2695 -0.0479
11492TIP3    H155891   1.528   4.704   3.867  0.1594  0.3219 -0.6343
11492TIP3    H255892   1.647   4.703   3.960 -0.3935  1.9293  0.1362
11493TIP3   OH255893   0.131   6.611  10.743 -0.0971 -0.3054 -0.0901
11493TIP3    H155894   0.185   6.532  10.734 -0.4607 -0.7497  1.2700
11493TIP3    H255895   0.115   6.640  10.654 -0.9815 -2.4942 -0.7040
11494TIP3   OH255896   4.552   1.123  10.931 -0.5322 -0.5715  0.2337
11494TIP3    H155897   4.622   1.128  10.865 -1.7756 -0.4784 -1.1346
11494TIP3    H255898   4.476   1.089  10.883 -1.0406 -2.0997  2.0263
11495TIP3   OH255899   0.352   4.230   2.010 -0.1175  0.5347 -0.4007
11495TIP3    H155900   0.269   4.184   1.999 -0.4053  1.3960 -2.3264
11495TIP3    H255901   0.350   4.262   2.100 -0.1029 -2.6826  0.8554
11496TIP3   OH255902   0.154   1.076   4.698  0.1782  1.0195  0.5195
11496TIP3    H155903   0.062   1.053   4.710  0.2129  1.2995  1.3589
11496TIP3    H255904   0.153   1.150   4.638  0.0020 -0.4239 -1.3773
11497TIP3   OH255905   2.591   5.014  13.388  0.0611  0.3567  0.6330
11497TIP3    H155906   2.527   4.945  13.370  0.5883  0.5615 -2.7780
11497TIP3    H255907   2.627   5.035  13.302  0.7751  4.0968  1.6767
11498TIP3   OH255908   2.685   2.434   2.189  0.0919  0.0345 -0.7262
11498TIP3    H155909   2.664   2.527   2.179 -0.5615 -0.0016  0.2444
11498TIP3    H255910   2.776   2.433   2.218 -0.2255  0.4423  0.3455
11499TIP3   OH255911   6.031   4.205  16.950 -0.2322  0.2338 -0.2653
11499TIP3    H155912   6.013   4.146  16.877 -1.3275  0.9530 -0.6007
11499TIP3    H255913   6.050   4.290  16.909 -0.3322  0.5180  0.2605
11500TIP3   OH255914   0.440   5.375  14.292 -1.5618  0.2376  0.2355
11500TIP3    H155915   0.431   5.418  14.207 -1.9139  0.5463  0.4271
11500TIP3    H255916   0.402   5.288  14.279 -3.6304  1.0290  0.6462
11501TIP3   OH255917   6.120   0.776  15.728 -0.1671 -0.5812 -0.0455
11501TIP3    H155918   6.135   0.684  15.748  2.9145 -0.0065  0.8029
11501TIP3    H255919   6.115   0.818  15.814 -1.4914  0.0769 -0.4215
11502TIP3   OH255920   3.596   5.684   2.556  0.3515 -0.6311 -0.6429
11502TIP3    H155921   3.659   5.756   2.563  1.2746 -1.4918  0.2312
11502TIP3    H255922   3.540   5.694   2.633  0.0290 -0.4268 -0.9052
11503TIP3   OH255923   1.489   5.128   2.420  0.2421 -0.5594 -0.3103
11503TIP3    H155924   1.425   5.106   2.487  0.4589  0.7506  0.3465
11503TIP3    H255925   1.559   5.173   2.467  0.4960  0.1873 -1.3667
11504TIP3   OH255926   6.508   0.078  15.386 -0.6611 -0.0688 -0.3008
11504TIP3    H155927   6.432   0.048  15.436  0.9675 -0.7931  1.8978
11504TIP3    H255928   6.471   0.130  15.314 -3.2889 -2.0072 -0.4827
11505TIP3   OH255929   5.873   5.556  16.521  0.0046  0.1121  0.1550
11505TIP3    H155930   5.914   5.618  16.460  1.0357  0.4722  1.1700
11505TIP3    H255931   5.870   5.473  16.474 -1.6117  0.9421 -1.3277
11506TIP3   OH255932   1.595   4.044   1.380  0.1518 -0.5409 -0.7945
11506TIP3    H155933   1.543   3.964   1.383  1.3799 -1.4505 -2.4229
11506TIP3    H255934   1.657   4.036   1.453  0.4026 -1.1802 -1.0710
11507TIP3   OH255935   6.230   2.421   3.835 -0.0768  0.3135  0.1050
11507TIP3    H155936   6.281   2.465   3.903 -0.5796  0.4354  0.4095
11507TIP3    H255937   6.160   2.483   3.815 -0.6078 -0.2170  0.3095
11508TIP3   OH255938   6.380   3.257  11.016 -0.1485  0.2049 -0.0690
11508TIP3    H155939   6.326   3.265  10.937  0.4575  0.3068 -0.4783
11508TIP3    H255940   6.465   3.294  10.991 -0.1961  0.9995  0.8859
11509TIP3   OH255941   4.233   5.846   3.957  0.2477 -0.1512  0.5573
11509TIP3    H155942   4.205   5.843   4.049 -1.3881  1.8743  0.2016
11509TIP3    H255943   4.323   5.813   3.958 -0.1358 -1.3417  2.6794
11510TIP3   OH255944   1.019   5.320   0.641 -0.7528  0.3715  0.1147
11510TIP3    H155945   1.026   5.375   0.563 -2.7649 -0.0269 -0.3940
11510TIP3    H255946   0.944   5.263   0.624 -0.2199 -0.8715  1.6590
11511TIP3   OH255947   2.544   1.544   4.656 -0.1069  0.0003  0.7820
11511TIP3    H155948   2.495   1.615   4.615  0.4547 -0.5824 -0.9858
11511TIP3    H255949   2.477   1.488   4.695 -0.5729  1.3284  1.9921
11512TIP3   OH255950   0.140   4.939   2.156 -0.2028  0.7358  0.1056
11512TIP3    H155951   0.212   4.948   2.219 -0.3978 -1.9185  0.8406
11512TIP3    H255952   0.157   4.856   2.112 -1.0444  1.6821 -2.1757
11513TIP3   OH255953   2.774   3.300  14.467 -0.7383 -0.0910 -0.4896
11513TIP3    H155954   2.841   3.233  14.474 -0.9436 -0.1400  1.5637
11513TIP3    H255955   2.699   3.256  14.426 -1.5675 -1.7721  2.5495
11514TIP3   OH255956   5.750   0.065   5.635  0.4293 -0.1358 -0.0379
11514TIP3    H155957   5.834   0.027   5.657  1.0230  0.6626 -0.8497
11514TIP3    H255958   5.728   0.121   5.709  1.5347  1.1214 -0.6304
11515TIP3   OH255959   0.587   3.295  15.814  0.5238  0.4820 -0.3196
11515TIP3    H155960   0.654   3.305  15.881 -0.9113  0.4525  1.1852
11515TIP3    H255961   0.613   3.217  15.765  1.6496  0.5632  0.1116
11516TIP3   OH255962   1.289   6.560  16.804 -0.4003 -0.6696 -0.2220
11516TIP3    H155963   1.301   6.573  16.898  0.7333  1.0038 -0.5594
11516TIP3    H255964   1.194   6.567  16.791 -0.4516  0.4148  0.6249
11517TIP3   OH255965   4.502   0.675  13.694 -0.0711  0.2549 -0.3019
11517TIP3    H155966   4.514   0.745  13.630  2.3107 -0.3746 -0.6234
11517TIP3    H255967   4.459   0.718  13.768  2.3167  2.3901 -0.0356
11518TIP3   OH255968   5.807   3.255   1.758  0.4801 -0.1943  0.4241
11518TIP3    H155969   5.748   3.222   1.690 -0.4771 -1.5681  1.8553
11518TIP3    H255970   5.882   3.291   1.710 -0.3382 -0.7730 -1.3520
11519TIP3   OH255971   2.835   0.193  12.015 -0.4876  0.3965 -0.6188
11519TIP3    H155972   2.782   0.157  11.943 -0.9771 -1.7142  0.7092
11519TIP3    H255973   2.898   0.250  11.971 -1.8077  0.4936 -2.5564
11520TIP3   OH255974   6.024   1.217  12.258  0.1355  0.1427  0.1832
11520TIP3    H155975   5.945   1.270  12.262 -0.0272 -0.1428  0.9055
11520TIP3    H255976   6.086   1.271  12.209 -1.1090 -0.4631 -2.2282
11521TIP3   OH255977   5.821   4.682  14.025 -0.8878 -0.0650 -1.0852
11521TIP3    H155978   5.914   4.659  14.026 -0.7649  0.4344 -0.6135
11521TIP3    H255979   5.807   4.721  13.939 -0.5538  0.2817 -0.9835
11522TIP3   OH255980   3.425   2.060  14.422  0.5028 -0.3683 -0.0614
11522TIP3    H155981   3.500   2.039  14.367  0.3932  1.8597 -1.1785
11522TIP3    H255982   3.350   2.025  14.374  0.7720 -3.1056  1.3313
11523TIP3   OH255983   4.464   5.293  13.903  0.2399 -0.2846 -0.1052
11523TIP3    H155984   4.554   5.293  13.936  0.2134  1.1529  0.0473
11523TIP3    H255985   4.410   5.305  13.981 -0.1109 -1.3284 -0.1726
11524TIP3   OH255986   3.672   6.324   4.971  0.3841 -0.6023  0.0891
11524TIP3    H155987   3.760   6.290   4.959  0.3900 -0.4603 -0.2674
11524TIP3    H255988   3.616   6.266   4.918  0.5288  0.6113 -1.4506
11525TIP3   OH255989   0.453   1.040  16.630  0.1184 -0.0719  0.5474
11525TIP3    H155990   0.396   1.116  16.624 -0.5006 -0.6490 -1.9678
11525TIP3    H255991   0.535   1.068  16.591  0.7144 -0.0420  1.7607
11526TIP3   OH255992   5.669   6.311   2.109 -0.0658  0.0264  0.2046
11526TIP3    H155993   5.712   6.230   2.137 -0.7975 -0.9796 -1.4196
11526TIP3    H255994   5.740   6.375   2.102  0.9650 -1.1717 -0.8984
11527TIP3   OH255995   6.338   2.307   0.736  0.3713 -0.1006 -0.4642
11527TIP3    H155996   6.299   2.240   0.681 -0.9472  0.3702 -0.1592
11527TIP3    H255997   6.377   2.369   0.675  0.0708 -0.2577 -0.8205
11528TIP3   OH255998   2.612   1.407   3.446  0.3136 -0.2825 -0.0722
11528TIP3    H155999   2.704   1.432   3.460  0.2177  0.3340 -0.5071
11528TIP3    H256000   2.575   1.401   3.534  0.7321 -0.3689  0.0981
11529TIP3   OH256001   6.657   3.430   2.062 -0.5767  0.4211 -0.2365
11529TIP3    H156002   6.628   3.453   2.151 -2.1740 -1.2156 -0.2724
11529TIP3    H256003   6.697   3.344   2.073 -2.5183 -0.6958 -1.3317
11530TIP3   OH256004   6.470   2.332  17.108 -0.4247  0.2429 -0.3035
11530TIP3    H156005   6.494   2.270  17.039  0.0035 -0.6243  0.6019
11530TIP3    H256006   6.409   2.284  17.163  0.2071  0.4744  0.6266
11531TIP3   OH256007   1.407   5.566   4.343 -0.2059 -0.0457 -0.1906
11531TIP3    H156008   1.431   5.601   4.257 -1.4358 -2.1486 -1.4743
11531TIP3    H256009   1.313   5.550   4.338 -0.0256 -1.8126  0.9087
11532TIP3   OH256010   3.659   2.020   5.144  0.3006 -0.0922  1.0259
11532TIP3    H156011   3.620   1.952   5.089 -0.7720  1.4961 -0.2793
11532TIP3    H256012   3.751   2.024   5.117 -0.1654  0.5288 -0.5730
11533TIP3   OH256013   1.363   0.714  17.005 -0.3290 -0.3806  0.4545
11533TIP3    H156014   1.298   0.735  17.071  0.7199  1.9558  0.8251
11533TIP3    H256015   1.444   0.755  17.036  0.5766 -0.5316 -1.5131
11534TIP3   OH256016   6.639   1.534  11.591 -0.2658 -0.0588  0.4447
11534TIP3    H156017   6.561   1.503  11.638  0.2516  0.2516  1.5117
11534TIP3    H256018   6.671   1.607  11.642  0.4111  0.1837 -0.3104
11535TIP3   OH256019   0.159   0.912  11.622 -0.1560  0.7454 -0.8198
11535TIP3    H156020   0.142   1.004  11.645 -0.6659  0.2113  1.0662
11535TIP3    H256021   0.194   0.873  11.702 -0.9967 -0.9689 -1.2500
11536TIP3   OH256022   0.142   5.086   6.170  0.1670  0.6860  0.2944
11536TIP3    H156023   0.129   5.061   6.261 -0.5184 -0.1824 -0.0285
11536TIP3    H256024   0.229   5.126   6.168 -0.2415  1.6962  1.5171
11537TIP3   OH256025   1.553   0.107   0.832 -0.0621 -0.5964  0.0973
11537TIP3    H156026   1.623   0.160   0.870 -0.2169 -0.1488 -0.2305
11537TIP3    H256027   1.587   0.018   0.833  0.8502 -0.2804 -0.8157
11538TIP3   OH256028   3.196   6.013   0.332 -0.4483 -0.1829  0.6790
11538TIP3    H156029   3.263   6.045   0.393  0.3208 -1.5150  0.5763
11538TIP3    H256030   3.199   6.074   0.259  1.6354 -0.9175  0.0563
11539TIP3   OH256031   1.242   0.110   2.252 -0.2032  0.0580 -0.3536
11539TIP3    H156032   1.233   0.183   2.315 -0.0063 -0.0687 -0.1795
11539TIP3    H256033   1.316   0.060   2.284 -0.8501 -0.6991  0.0074
11540TIP3   OH256034   2.680   6.315   6.499  0.5437  0.1373  0.2885
11540TIP3    H156035   2.619   6.287   6.567 -0.2690  1.6950  0.2426
11540TIP3    H256036   2.625   6.335   6.423  0.9060  2.5553  0.5626
11541TIP3   OH256037   1.241   4.304   4.464  0.4643 -0.3813  0.2510
11541TIP3    H156038   1.168   4.366   4.469  0.0009 -0.9890  1.2721
11541TIP3    H256039   1.227   4.258   4.381 -0.0380 -0.1569  0.2049
11542TIP3   OH256040   2.940   2.222  14.225  0.1701 -0.1648  0.4931
11542TIP3    H156041   3.004   2.243  14.293  0.0272  0.2087  0.5129
11542TIP3    H256042   2.992   2.215  14.145  0.0777  1.3922  0.2787
11543TIP3   OH256043   5.713   2.061  13.236  0.2631 -0.8463 -0.1038
11543TIP3    H156044   5.718   1.967  13.253  0.0888 -0.6464  1.1219
11543TIP3    H256045   5.804   2.090  13.236  0.2398 -0.3497  3.7005
11544TIP3   OH256046   5.623   0.143   4.750  0.5969 -0.2699 -0.7868
11544TIP3    H156047   5.665   0.057   4.739  0.0871 -1.2548  3.2450
11544TIP3    H256048   5.531   0.122   4.764  0.7486  0.5711  2.2487
11545TIP3   OH256049   1.588   6.072  11.410 -0.0042 -0.3917  0.0699
11545TIP3    H156050   1.675   6.033  11.398 -0.4214 -0.8176 -1.8747
11545TIP3    H256051   1.594   6.157  11.366 -0.4571 -0.2383  0.2967
11546TIP3   OH256052   5.562   2.622   1.971 -0.0070 -0.2735  0.1936
11546TIP3    H156053   5.585   2.624   1.879 -0.1998  1.4696  0.1652
11546TIP3    H256054   5.632   2.571   2.012  1.8592  1.6340 -0.4547
11547TIP3   OH256055   1.387   3.957   4.201 -0.0569 -0.3493  0.6689
11547TIP3    H156056   1.456   3.955   4.267 -0.3439 -0.9192  0.9627
11547TIP3    H256057   1.377   3.865   4.175  1.2396  0.0464 -1.4305
11548TIP3   OH256058   1.791   4.758   2.092  0.1235 -0.2333  0.6903
11548TIP3    H156059   1.808   4.749   1.999 -1.1013  2.2396  0.1500
11548TIP3    H256060   1.726   4.691   2.112  0.9960 -1.3205 -0.0015
11549TIP3   OH256061   0.588   2.821  16.540  0.2048  0.3430 -0.5775
11549TIP3    H156062   0.540   2.897  16.571 -0.4026  0.7870 -2.5150
11549TIP3    H256063   0.677   2.853  16.525  0.2364  0.3786 -0.3218
11550TIP3   OH256064   0.599   5.825   5.501 -0.0241  0.2002  0.1830
11550TIP3    H156065   0.619   5.732   5.503  2.7257  0.6652 -0.8703
11550TIP3    H256066   0.671   5.866   5.549 -0.3302  1.8989 -0.7310
11551TIP3   OH256067   5.054   5.398  14.648 -0.1699  0.0965  0.1926
11551TIP3    H156068   5.099   5.332  14.594  0.1369  3.0571 -3.5865
11551TIP3    H256069   4.993   5.347  14.702  2.6357 -3.5025  0.3994
11552TIP3   OH256070   6.662   6.371  16.487  0.4703 -0.3161  0.6586
11552TIP3    H156071   6.675   6.280  16.514  1.4666  0.0909  1.6029
11552TIP3    H256072   6.589   6.401  16.541 -0.3672 -0.7467 -0.1890
11553TIP3   OH256073   6.244   2.928   5.273 -0.2379  0.0078  0.0505
11553TIP3    H156074   6.265   2.933   5.366 -0.4785 -2.0604  0.2561
11553TIP3    H256075   6.154   2.961   5.267 -0.0308  0.6685  0.4478
11554TIP3   OH256076   0.080   0.352  12.639 -0.0567 -0.2056 -0.1365
11554TIP3    H156077   0.018   0.421  12.616 -0.0145 -0.0070  0.3301
11554TIP3    H256078   0.088   0.358  12.735 -1.7040 -2.2029  0.2240
11555TIP3   OH256079   3.306   6.575   6.035 -0.5917  0.1960 -0.1103
11555TIP3    H156080   3.350   6.562   5.951  0.1565  2.6227 -0.1752
11555TIP3    H256081   3.344   6.509   6.093  1.7487  0.9433 -0.6817
11556TIP3   OH256082   5.806   2.610  11.414  0.2854 -0.2636 -0.0436
11556TIP3    H156083   5.844   2.644  11.333 -0.1745 -0.0138 -0.1636
11556TIP3    H256084   5.879   2.605  11.475  0.6547 -0.5593 -0.5082
11557TIP3   OH256085   1.083   4.556   1.653  0.5188 -0.3643  0.5139
11557TIP3    H156086   1.159   4.608   1.680  0.8643 -0.5631 -0.0596
11557TIP3    H256087   1.080   4.567   1.558  0.0163 -0.6144  0.5005
11558TIP3   OH256088   6.013   0.725   4.687 -0.0464 -0.4182  0.0018
11558TIP3    H156089   5.956   0.800   4.672 -1.0527 -1.1205  0.1903
11558TIP3    H256090   5.956   0.649   4.676  1.1800 -1.2078 -1.2138
11559TIP3   OH256091   6.485   2.587  13.043  0.3889 -0.1148  0.3805
11559TIP3    H156092   6.464   2.647  12.972  0.0164 -0.7791 -0.0786
11559TIP3    H256093   6.437   2.620  13.119 -0.3093 -0.1907 -0.0277
11560TIP3   OH256094   2.863   1.870   3.898 -0.1099 -0.4918 -0.7274
11560TIP3    H156095   2.858   1.939   3.964 -0.6443 -0.5571 -0.6996
11560TIP3    H256096   2.778   1.828   3.900  0.6217 -1.9913  0.1501
11561TIP3   OH256097   0.738   0.299  11.033 -0.6674 -0.3993  0.1251
11561TIP3    H156098   0.685   0.362  10.985 -1.9470 -1.1326  0.5293
11561TIP3    H256099   0.704   0.302  11.123 -0.7903 -1.6646  0.1386
11562TIP3   OH256100   5.188   1.259  13.276 -0.5175 -0.3141  0.2605
11562TIP3    H156101   5.130   1.199  13.230 -0.7707 -0.6223  0.9686
11562TIP3    H256102   5.131   1.309  13.334 -0.4805  1.4308 -1.1187
11563TIP3   OH256103   3.910   4.562  12.242 -0.3882 -0.9872  0.4370
11563TIP3    H156104   3.956   4.618  12.180 -0.8278 -3.1461 -2.0161
11563TIP3    H256105   3.979   4.525  12.297  0.0580  0.5916  0.9841
11564TIP3   OH256106   6.327   4.306  10.951  0.6279 -0.0348  0.5144
11564TIP3    H156107   6.398   4.332  10.892  0.5274  0.5682  0.6464
11564TIP3    H256108   6.318   4.212  10.938  0.4007  0.1301 -0.6807
11565TIP3   OH256109   1.131   4.176  13.173 -0.1596 -0.1599  0.7702
11565TIP3    H156110   1.086   4.199  13.091 -1.8042 -0.8658  1.4425
11565TIP3    H256111   1.093   4.234  13.238  1.6638  0.9083  0.9526
11566TIP3   OH256112   3.166   2.338   5.440 -0.4130 -0.7072 -0.7525
11566TIP3    H156113   3.091   2.395   5.423  0.5368  0.3667 -1.4903
11566TIP3    H256114   3.209   2.329   5.355  1.0908 -0.1489 -0.0821
11567TIP3   OH256115   5.993   3.077   3.582  0.6596 -0.0076 -0.3635
11567TIP3    H156116   6.072   3.057   3.632 -0.6278 -1.3561  1.2109
11567TIP3    H256117   5.947   3.143   3.633  0.4622  0.3560 -0.9898
11568TIP3   OH256118   1.211   2.854  14.715 -0.0070 -0.4815 -0.1037
11568TIP3    H156119   1.265   2.932  14.703 -0.3586 -0.4768 -2.0361
11568TIP3    H256120   1.272   2.781  14.709  0.1535 -0.3999  0.4929
11569TIP3   OH256121   6.173   2.350  15.207  0.4044 -0.0834  0.4031
11569TIP3    H156122   6.098   2.293  15.192  1.0453 -0.7529 -0.3305
11569TIP3    H256123   6.190   2.343  15.301 -0.2780 -0.1433  0.5247
11570TIP3   OH256124   5.213   4.212   2.145 -0.2732  0.1131 -0.0186
11570TIP3    H156125   5.120   4.197   2.160 -0.1354 -2.7298 -1.4641
11570TIP3    H256126   5.257   4.154   2.208  0.7369  3.4573  2.6853
11571TIP3   OH256127   6.633   5.332  13.004 -0.1843  0.2938  0.6790
11571TIP3    H156128   6.652   5.307  13.095  0.5437 -0.4092  0.3437
11571TIP3    H256129   6.718   5.355  12.967  0.0142 -2.3865 -0.7046
11572TIP3   OH256130   4.884   4.864   1.248  0.1962 -0.3884 -0.0177
11572TIP3    H156131   4.817   4.837   1.185  0.9742 -1.6973 -0.3123
11572TIP3    H256132   4.841   4.932   1.300 -1.0164 -0.4640 -0.8665
11573TIP3   OH256133   6.758   0.949  15.363 -0.5161 -0.0594  0.1147
11573TIP3    H156134   6.673   0.945  15.319 -0.8118 -1.9766  0.7616
11573TIP3    H256135   6.760   1.035  15.405 -1.5636  0.5294 -0.9807
11574TIP3   OH256136   3.250   3.780   2.882  0.0785 -0.1992  0.5890
11574TIP3    H156137   3.245   3.717   2.955 -1.3220 -0.0958  0.6037
11574TIP3    H256138   3.279   3.861   2.923 -3.0008  0.5319  1.5483
11575TIP3   OH256139   0.895   1.645  14.346 -0.2864  0.2776 -0.2958
11575TIP3    H156140   0.885   1.609  14.258 -0.2771 -0.0258 -0.1767
11575TIP3    H256141   0.930   1.572  14.398  0.2867  0.6241 -0.1739
11576TIP3   OH256142   1.237   1.474   5.165  0.4200  0.5010  0.0690
11576TIP3    H156143   1.284   1.390   5.163  0.4695  0.4688  1.7028
11576TIP3    H256144   1.158   1.459   5.113  0.2905 -0.6513  0.5812
11577TIP3   OH256145   4.665   0.268   6.066 -0.4600  0.2534 -0.6598
11577TIP3    H156146   4.646   0.185   6.024 -0.2401  0.4663 -1.1932
11577TIP3    H256147   4.739   0.250   6.124  0.0791  0.2394 -1.3414
11578TIP3   OH256148   4.963   0.023   0.225 -0.7256  0.4943  0.7137
11578TIP3    H156149   4.878   0.050   0.259 -0.1009  0.2289  2.5594
11578TIP3    H256150   4.990  -0.050   0.281  0.5992  0.3722 -0.0284
11579TIP3   OH256151   0.012   4.036  12.284  0.3390 -0.5626  0.5866
11579TIP3    H156152  -0.061   3.984  12.251 -0.1365  0.5396 -0.1536
11579TIP3    H256153  -0.030   4.108  12.331  0.8826  0.9307 -1.1356
11580TIP3   OH256154   3.927   0.045  14.002 -0.3114 -0.0280  0.0891
11580TIP3    H156155   3.901   0.122  14.053  1.0014  0.5654 -0.0953
11580TIP3    H256156   3.916  -0.028  14.063 -2.3347  0.1672  0.0236
11581TIP3   OH256157   5.041   5.816   3.446  0.1458 -0.1199  0.4561
11581TIP3    H156158   4.977   5.886   3.461  2.4263  1.8698  1.5180
11581TIP3    H256159   5.064   5.784   3.534  0.1728 -1.2683  0.0575
11582TIP3   OH256160   6.008   2.806   3.613 -0.1985 -0.0412 -0.1933
11582TIP3    H156161   6.065   2.836   3.684  0.3365 -1.3874 -0.0303
11582TIP3    H256162   5.991   2.885   3.561  0.6678  0.6532  0.5458
11583TIP3   OH256163   1.633   2.687  15.761 -0.0811 -0.2151  0.4656
11583TIP3    H156164   1.561   2.751  15.755 -0.9465 -1.2131 -0.1025
11583TIP3    H256165   1.667   2.698  15.850 -1.1355  0.0740  0.8504
11584TIP3   OH256166   3.117   5.980   3.256  0.0769  0.0193  0.2366
11584TIP3    H156167   3.132   6.034   3.334 -1.0769 -0.6960  0.9973
11584TIP3    H256168   3.093   5.894   3.291 -3.9274  0.5490 -0.7466
11585TIP3   OH256169   3.482   2.883  12.542 -0.2926 -0.7729  0.1639
11585TIP3    H156170   3.560   2.832  12.568  1.7121  1.9254 -0.1428
11585TIP3    H256171   3.417   2.816  12.519  1.4193 -3.1924  1.7738
11586TIP3   OH256172   5.845   6.681   4.252  0.0360 -0.2581  1.0419
11586TIP3    H156173   5.916   6.675   4.188 -1.1063  1.1800 -0.4443
11586TIP3    H256174   5.815   6.590   4.262 -1.5670 -0.3606 -2.7267
11587TIP3   OH256175   1.161   2.961  16.561 -0.0492  0.4374  0.0312
11587TIP3    H156176   1.114   3.043  16.548  1.3831  1.2716 -0.2156
11587TIP3    H256177   1.164   2.949  16.655 -1.7065 -0.2490  0.0305
11588TIP3   OH256178   0.737   5.119  13.852  0.5141 -0.5621  0.2127
11588TIP3    H156179   0.743   5.214  13.841 -0.4177 -0.2849  1.8448
11588TIP3    H256180   0.644   5.099  13.841  0.7266 -1.3299 -0.2869
11589TIP3   OH256181   6.124   3.110   3.223 -0.0547 -0.1124  0.4373
11589TIP3    H156182   6.193   3.115   3.157 -2.1362  0.0241 -1.9288
11589TIP3    H256183   6.110   3.016   3.236 -0.5455 -0.1836 -0.4535
11590TIP3   OH256184   3.691   4.776   0.871  0.2229 -0.0182 -0.3876
11590TIP3    H156185   3.638   4.848   0.835 -2.0071 -2.5021 -2.4483
11590TIP3    H256186   3.755   4.756   0.803  0.6151 -0.2260  0.0369
11591TIP3   OH256187   5.138   2.577  13.173 -0.0995 -0.2674  0.4671
11591TIP3    H156188   5.215   2.526  13.148 -0.8245 -0.7546 -0.8499
11591TIP3    H256189   5.083   2.516  13.221 -1.0291 -0.8035 -1.2252
11592TIP3   OH256190   2.933   3.161  11.278  0.0959  0.0972 -0.7796
11592TIP3    H156191   2.980   3.242  11.261  0.1986  0.1123 -0.4429
11592TIP3    H256192   2.959   3.103  11.207  0.8579  0.0120 -0.4495
11593TIP3   OH256193   5.587   3.776   5.856  0.1456 -0.0521 -0.3774
11593TIP3    H156194   5.628   3.849   5.809 -0.7055 -0.5252 -1.9078
11593TIP3    H256195   5.644   3.702   5.837  0.4493 -0.0151  0.3463
11594TIP3   OH256196   2.839   4.694   4.216  0.4356 -0.4683 -0.1137
11594TIP3    H156197   2.860   4.785   4.236  0.1250 -0.6833  1.3122
11594TIP3    H256198   2.812   4.695   4.124  0.7903  0.8100 -0.2187
11595TIP3   OH256199   3.191   3.671  13.987  0.1086 -0.4658  0.2164
11595TIP3    H156200   3.099   3.645  13.976  0.1724 -0.8149  0.5197
11595TIP3    H256201   3.214   3.643  14.076 -0.7262  3.2686  1.7921
11596TIP3   OH256202   2.719   0.603  12.331 -0.4516  0.3378  0.7475
11596TIP3    H156203   2.666   0.651  12.268  1.7139  2.2438  0.2696
11596TIP3    H256204   2.769   0.540  12.279 -1.4257 -0.7646  1.0841
11597TIP3   OH256205   2.048   2.681  15.967  0.5242  0.7405 -0.4624
11597TIP3    H156206   1.978   2.626  16.002  2.5034 -0.0372  2.7488
11597TIP3    H256207   2.122   2.621  15.956  1.2693  1.8617 -1.9728
11598TIP3   OH256208   6.463   6.791   5.100  0.1287 -0.3428 -0.9045
11598TIP3    H156209   6.451   6.823   5.011 -1.3844 -0.6859 -0.8404
11598TIP3    H256210   6.528   6.721   5.091 -0.4678 -0.7983 -1.8485
11599TIP3   OH256211   2.455   0.148   5.747  0.2434  0.0461  0.3731
11599TIP3    H156212   2.538   0.196   5.742  1.0216 -1.3420 -0.4533
11599TIP3    H256213   2.388   0.217   5.743  1.3134  1.0817 -0.9175
11600TIP3   OH256214   2.503   1.094  16.561 -0.8474  0.8710 -0.5699
11600TIP3    H156215   2.481   1.110  16.470 -0.8761  2.1099 -0.3600
11600TIP3    H256216   2.536   1.178  16.594  2.3423 -0.3504 -0.2983
11601TIP3   OH256217   5.481   3.722  15.429  0.6677  0.3698 -0.1258
11601TIP3    H156218   5.445   3.633  15.425  1.2370  0.0593  1.1532
11601TIP3    H256219   5.499   3.736  15.522 -0.7967  2.3879 -0.0961
11602TIP3   OH256220   0.667   5.495   6.207 -0.0626  0.3338 -0.0696
11602TIP3    H156221   0.712   5.560   6.261  0.2319  1.0220 -1.1217
11602TIP3    H256222   0.584   5.536   6.184  0.6881  0.9122 -1.8508
11603TIP3   OH256223   2.770   2.201  11.296 -0.4759 -0.1606 -0.1087
11603TIP3    H156224   2.780   2.108  11.275  0.2271  0.2660 -1.8498
11603TIP3    H256225   2.724   2.238  11.221  1.7844  1.3909 -0.8557
11604TIP3   OH256226   3.584   6.114  16.824 -0.1320  0.0396  0.2547
11604TIP3    H156227   3.647   6.144  16.889 -0.6437  0.1272  0.7163
11604TIP3    H256228   3.510   6.174  16.832  0.1862  0.6638 -1.0888
11605TIP3   OH256229   6.112   2.208   1.142 -0.2721  0.0174  0.2389
11605TIP3    H156230   6.155   2.178   1.062 -0.7065  1.1526 -0.4529
11605TIP3    H256231   6.166   2.280   1.173 -0.2673 -0.2284  0.8104
11606TIP3   OH256232   4.912   1.381   3.134  0.4832  0.2542 -0.3229
11606TIP3    H156233   4.997   1.365   3.176  0.7373 -0.8463 -1.2220
11606TIP3    H256234   4.850   1.382   3.207  1.2162  0.7993  0.3188
11607TIP3   OH256235   1.953   2.024  15.400  0.0279 -0.2974 -0.3010
11607TIP3    H156236   2.017   2.081  15.356  0.7367 -0.6483  0.2673
11607TIP3    H256237   1.986   2.013  15.489 -0.9184 -0.3453  0.0666
11608TIP3   OH256238   1.431   0.221  13.381 -0.8071  0.3974 -0.2388
11608TIP3    H156239   1.522   0.237  13.357  0.0615 -1.7736  1.3229
11608TIP3    H256240   1.434   0.196  13.473 -2.7726 -1.2984 -0.5466
11609TIP3   OH256241   0.638   3.173  10.469  0.2179 -0.2043  0.1238
11609TIP3    H156242   0.647   3.079  10.450  1.0244  0.0733 -0.9507
11609TIP3    H256243   0.668   3.216  10.390 -2.9261  0.9873 -0.5362
11610TIP3   OH256244   5.554   4.268  13.335 -0.2771 -0.3831  0.1571
11610TIP3    H156245   5.569   4.234  13.423  0.3618  0.5733  0.4210
11610TIP3    H256246   5.461   4.253  13.319 -0.6911  0.6137  1.5083
11611TIP3   OH256247   3.532   4.396  14.234  0.1836 -0.1040  0.3642
11611TIP3    H156248   3.605   4.437  14.187  1.1929 -1.8198  0.3761
11611TIP3    H256249   3.462   4.390  14.169  0.4473  0.4883  0.0167
11612TIP3   OH256250   3.134   0.505   3.489  0.1783  0.3887  0.0991
11612TIP3    H156251   3.125   0.501   3.394 -1.7918  0.1109  0.2581
11612TIP3    H256252   3.045   0.514   3.521  0.7769  0.0994  1.9585
11613TIP3   OH256253   6.387   2.275  16.514  0.3076  0.4278 -0.1667
11613TIP3    H156254   6.352   2.274  16.425  0.4555 -0.8352 -0.2221
11613TIP3    H256255   6.481   2.289  16.502  0.3159  0.3412 -0.1999
11614TIP3   OH256256   0.002   3.859  12.009  0.0151 -0.5299  0.4510
11614TIP3    H156257  -0.063   3.901  12.066  0.7296  1.2421  0.0340
11614TIP3    H256258  -0.043   3.784  11.971 -2.0801  1.0975 -0.4569
11615TIP3   OH256259   2.062   0.362   4.139 -1.1360 -0.1047  0.2105
11615TIP3    H156260   1.971   0.386   4.159 -1.1524  2.2094 -2.0770
11615TIP3    H256261   2.055   0.294   4.071 -1.0710 -2.1510  2.1442
11616TIP3   OH256262   3.803   4.957  17.124 -0.2429 -0.1450 -0.3657
11616TIP3    H156263   3.716   4.957  17.085 -1.3749  0.2056  1.9955
11616TIP3    H256264   3.818   4.866  17.150  0.2886 -0.2786 -1.0896
11617TIP3   OH256265   1.473   6.591   4.922 -0.0499 -0.0958  0.1893
11617TIP3    H156266   1.465   6.591   5.018 -0.5306  0.0481  0.1514
11617TIP3    H256267   1.393   6.551   4.891 -0.6605  1.3611 -0.2013
11618TIP3   OH256268   6.296   4.448  12.270  0.2714  0.4366  0.3908
11618TIP3    H156269   6.345   4.527  12.293  0.6694 -0.3041  2.3634
11618TIP3    H256270   6.316   4.386  12.341 -1.8622 -0.6280  0.1673
11619TIP3   OH256271   2.403   0.017  14.483  0.0067  0.1204  0.1030
11619TIP3    H156272   2.388  -0.003  14.390 -0.3013  0.3000  0.1129
11619TIP3    H256273   2.413   0.112  14.486  2.3100 -0.0719 -0.0602
11620TIP3   OH256274   1.147   3.094   4.655 -0.3044 -0.0412  0.8275
11620TIP3    H156275   1.070   3.063   4.608  0.4481  1.0105 -1.2460
11620TIP3    H256276   1.124   3.183   4.683  0.3211  0.5105 -0.3357
11621TIP3   OH256277   1.574   6.287   3.560  0.2810  0.0359  0.4200
11621TIP3    H156278   1.496   6.343   3.561 -0.0937 -0.4881  0.8081
11621TIP3    H256279   1.591   6.273   3.467  2.0566  3.0741  0.1575
11622TIP3   OH256280   3.453   1.740  14.181 -0.2546  0.5636 -0.2155
11622TIP3    H156281   3.485   1.731  14.270 -0.1910 -0.8870 -0.3686
11622TIP3    H256282   3.473   1.831  14.157  1.5616  0.3829  0.5142
11623TIP3   OH256283   5.126   4.371  12.403 -0.2285  0.3411 -0.3931
11623TIP3    H156284   5.087   4.451  12.368  0.9138  1.4277  0.7056
11623TIP3    H256285   5.197   4.350  12.343  0.0076  0.6382 -0.2171
11624TIP3   OH256286   5.231   0.424   2.938  0.2363  0.1380  0.0006
11624TIP3    H156287   5.248   0.363   3.010 -0.7788  0.2108  0.3223
11624TIP3    H256288   5.150   0.469   2.963  0.4545  0.9469 -0.6798
11625TIP3   OH256289   1.294   3.371   0.343 -0.6031  0.0967  0.2184
11625TIP3    H156290   1.223   3.420   0.386 -1.8458 -1.1428 -0.3249
11625TIP3    H256291   1.252   3.332   0.266  1.2737  1.3247 -1.5525
11626TIP3   OH256292   5.291   4.360  16.356  0.0422 -0.1354  0.0654
11626TIP3    H156293   5.256   4.314  16.280  0.5074 -2.6517  1.2883
11626TIP3    H256294   5.214   4.395  16.401 -0.3221  0.3400 -0.8995
11627TIP3   OH256295   0.233   3.164  15.285 -0.3388 -0.3020 -0.1189
11627TIP3    H156296   0.221   3.072  15.260 -0.4251 -0.0943 -0.8864
11627TIP3    H256297   0.214   3.212  15.205  1.2915  0.2908 -0.1827
11628TIP3   OH256298   5.108   5.106  17.074 -0.1199  0.0794  0.3358
11628TIP3    H156299   5.103   5.058  17.157 -3.4466 -0.3406  0.0059
11628TIP3    H256300   5.125   5.196  17.099  0.0210 -0.2229  1.3888
11629TIP3   OH256301   3.007   1.270   5.469  0.6246  0.0556  0.6299
11629TIP3    H156302   2.931   1.214   5.483  0.1858  0.1974 -1.0254
11629TIP3    H256303   2.976   1.358   5.492 -0.4409  0.4691 -2.0352
11630TIP3   OH256304   4.889   4.768   4.053  0.3928 -0.2832  0.5174
11630TIP3    H156305   4.847   4.769   4.139  1.7643 -0.5421  1.2276
11630TIP3    H256306   4.851   4.842   4.006 -1.5479 -1.0919  0.7501
11631TIP3   OH256307   4.305   2.564  16.423 -0.0318  0.1445  0.2747
11631TIP3    H156308   4.334   2.500  16.359 -1.1954 -0.4983  0.3607
11631TIP3    H256309   4.213   2.579  16.402 -0.0484  1.0080  0.9056
11632TIP3   OH256310   0.917   4.731   2.564  0.3543 -0.2845 -0.0135
11632TIP3    H156311   0.941   4.753   2.474 -1.9512 -0.0259 -0.6274
11632TIP3    H256312   0.846   4.667   2.555  0.6250 -0.8732  1.6511
11633TIP3   OH256313   0.038   2.283  12.589 -0.3669  0.4184  0.3148
11633TIP3    H156314   0.103   2.350  12.610 -0.6925  1.6762 -2.2424
11633TIP3    H256315  -0.003   2.263  12.673  2.7189  0.1200  1.8922
11634TIP3   OH256316   1.863   2.465   4.618 -0.3212 -0.7029 -0.2286
11634TIP3    H156317   1.863   2.443   4.712  2.9011  1.0518  0.3599
11634TIP3    H256318   1.786   2.520   4.606  0.2288  0.7040  1.9609
11635TIP3   OH256319   6.206   6.619   3.216  0.5402 -0.2320  0.9189
11635TIP3    H156320   6.255   6.620   3.133  1.3349  2.4170  1.3400
11635TIP3    H256321   6.117   6.597   3.191  0.8798 -0.0169 -0.5743
11636TIP3   OH256322   2.716   6.455  15.444  0.0007  0.4239  0.1040
11636TIP3    H156323   2.681   6.392  15.382  2.7565 -0.7436 -0.4347
11636TIP3    H256324   2.680   6.428  15.529 -1.2346  0.0220 -0.5330
11637TIP3   OH256325   4.270   2.508  13.099  0.2506  0.0235  0.2938
11637TIP3    H156326   4.244   2.457  13.177 -0.1976 -0.1292  0.0499
11637TIP3    H256327   4.351   2.467  13.070 -1.2427 -2.0677 -1.2370
11638TIP3   OH256328   2.658   4.800  12.293  0.3706 -0.1204 -0.2709
11638TIP3    H156329   2.737   4.753  12.320  0.7058 -0.2073 -1.3450
11638TIP3    H256330   2.636   4.855  12.368  1.1230 -0.5208  0.2593
11639TIP3   OH256331   6.351   0.492   0.609 -0.5208  0.4679  0.6610
11639TIP3    H156332   6.404   0.463   0.684 -0.1857 -0.0712  0.2248
11639TIP3    H256333   6.262   0.466   0.632 -0.7932  2.2291  1.8327
11640TIP3   OH256334   3.198   6.171  13.664  0.0018  0.0324  0.3429
11640TIP3    H156335   3.159   6.149  13.748  1.1021 -1.0485  0.6046
11640TIP3    H256336   3.158   6.109  13.603 -2.2130  2.0155 -0.3671
11641TIP3   OH256337   1.469   4.063  12.495 -0.4204 -0.2274  0.7373
11641TIP3    H156338   1.437   4.082  12.407  1.0502  2.2081  0.6490
11641TIP3    H256339   1.483   3.968  12.495  0.7923 -0.1482 -2.1280
11642TIP3   OH256340   4.856   5.999   4.582 -0.1306 -0.2275 -0.2399
11642TIP3    H156341   4.870   6.076   4.528  0.6366 -0.8329 -0.9219
11642TIP3    H256342   4.784   5.952   4.540 -1.2102  0.5439  0.6775
11643TIP3   OH256343   2.863   4.408   0.390 -0.5906 -0.4073  0.1144
11643TIP3    H156344   2.946   4.364   0.409 -0.3334  0.0957  0.1646
11643TIP3    H256345   2.882   4.501   0.399 -0.9607 -0.2454 -0.6662
11644TIP3   OH256346   1.880   1.092  15.003  0.4413 -0.3227  0.3027
11644TIP3    H156347   1.876   1.178  14.961 -3.1462 -0.1050  0.8124
11644TIP3    H256348   1.789   1.071  15.025  1.2679 -3.9136  0.9701
11645TIP3   OH256349   4.773   1.105   0.818  0.1988  0.0651 -0.4240
11645TIP3    H156350   4.678   1.100   0.802  0.0197 -1.0545  0.7911
11645TIP3    H256351   4.785   1.184   0.870 -0.6074 -1.6359  2.5244
11646TIP3   OH256352   3.599   6.530   0.439 -0.5699 -0.2936  0.3533
11646TIP3    H156353   3.634   6.466   0.377  0.5989  0.7703 -0.1463
11646TIP3    H256354   3.573   6.479   0.515 -1.1294 -1.5227 -0.6350
11647TIP3   OH256355   3.518   5.057  14.133 -0.0100 -0.0319 -0.2983
11647TIP3    H156356   3.460   5.079  14.207 -0.0486  0.1714 -0.3876
11647TIP3    H256357   3.603   5.043  14.173 -0.3430 -1.4024 -0.0236
11648TIP3   OH256358   3.447   4.056   1.561  0.1117 -0.4566 -0.2897
11648TIP3    H156359   3.354   4.038   1.568  0.1930 -1.0111 -0.5398
11648TIP3    H256360   3.480   3.989   1.501  0.8937 -1.1025  0.8019
11649TIP3   OH256361   2.227   0.816  14.801 -0.0274 -0.0046  0.4888
11649TIP3    H156362   2.222   0.753  14.729  0.5447  1.9102 -1.3213
11649TIP3    H256363   2.135   0.830  14.826 -0.3338  0.0199 -0.5645
11650TIP3   OH256364   0.019   0.461   4.203  0.0070 -0.0511  0.2923
11650TIP3    H156365   0.007   0.554   4.221  0.2219  0.0458 -0.0773
11650TIP3    H256366  -0.044   0.442   4.133 -0.6657 -0.3816  0.9687
11651TIP3   OH256367   2.726   3.794  16.354 -0.1582  0.2470 -0.3189
11651TIP3    H156368   2.684   3.864  16.403  0.3887  0.7927 -0.6227
11651TIP3    H256369   2.818   3.818  16.350  0.0210 -0.4359 -0.5212
11652TIP3   OH256370   3.951   0.750  15.700  0.1726 -0.3707  0.4643
11652TIP3    H156371   3.881   0.811  15.676  0.6515 -0.0415 -0.1163
11652TIP3    H256372   3.905   0.668  15.720 -0.3172 -0.5404 -1.1429
11653TIP3   OH256373   4.402   6.143   2.767 -0.2487 -0.5003  0.2949
11653TIP3    H156374   4.465   6.077   2.796 -0.2899 -1.1499 -1.0409
11653TIP3    H256375   4.329   6.092   2.730 -1.2949  0.2556  1.2402
11654TIP3   OH256376   1.483   6.110  13.649  0.1609 -0.1654  0.4060
11654TIP3    H156377   1.523   6.181  13.698 -2.1033  2.5374 -1.3048
11654TIP3    H256378   1.430   6.063  13.713 -1.1787  2.0515  1.0454
11655TIP3   OH256379   3.476   5.992   4.088 -0.0683  0.3476  1.2731
11655TIP3    H156380   3.436   6.071   4.052  2.2907  0.9757 -0.2361
11655TIP3    H256381   3.533   6.025   4.158 -0.2131 -0.2123  1.6576
11656TIP3   OH256382   6.107   1.918   5.560  0.0084 -0.6381 -0.4576
11656TIP3    H156383   6.133   1.829   5.584 -1.5851 -1.0010 -0.0082
11656TIP3    H256384   6.018   1.909   5.528  0.4124  0.5712 -2.0363
11657TIP3   OH256385   4.583   3.339  16.691 -0.0278  0.0645 -0.3872
11657TIP3    H156386   4.567   3.419  16.641 -0.3976 -0.8315 -1.7737
11657TIP3    H256387   4.614   3.369  16.776 -2.6343  1.7478  0.0856
11658TIP3   OH256388   3.987   3.914  16.566 -0.8777 -0.5801  0.4050
11658TIP3    H156389   4.068   3.907  16.617  1.0198  2.4075 -1.8245
11658TIP3    H256390   3.974   3.826  16.529  2.1135 -0.9133 -0.1212
11659TIP3   OH256391   6.122   1.698  13.959 -0.5537 -0.3958 -0.3458
11659TIP3    H156392   6.160   1.698  13.871  0.4285  1.1169  0.0362
11659TIP3    H256393   6.167   1.626  14.004  0.8414  0.4470 -0.3456
11660TIP3   OH256394   1.961   0.620   2.353  0.2826 -0.6475 -0.5589
11660TIP3    H156395   2.057   0.618   2.352  0.2781 -2.1326 -1.6358
11660TIP3    H256396   1.935   0.538   2.311 -1.4707 -0.3115 -0.2041
11661TIP3   OH256397   3.811   2.707  15.362 -0.1836 -0.2631  0.4439
11661TIP3    H156398   3.732   2.687  15.412 -0.4658  1.0778  0.5752
11661TIP3    H256399   3.826   2.800  15.377  0.9000 -0.2920 -0.3276
11662TIP3   OH256400   6.304   2.315   1.517  0.2555 -0.3254  0.2585
11662TIP3    H156401   6.352   2.370   1.580  0.9042 -1.5610  0.8964
11662TIP3    H256402   6.326   2.225   1.543 -1.7845 -0.9228  0.0471
11663TIP3   OH256403   5.978   6.242   3.871  0.0917  0.5607 -0.4651
11663TIP3    H156404   6.012   6.238   3.961  0.0005  1.0434 -0.4080
11663TIP3    H256405   6.043   6.293   3.823 -0.9282  2.2344 -0.1669
11664TIP3   OH256406   0.818   0.653  12.884 -0.9068  0.1006  0.0039
11664TIP3    H156407   0.792   0.613  12.801  1.9726  0.5017 -1.2100
11664TIP3    H256408   0.901   0.610  12.907 -1.4413  0.2554  2.5304
11665TIP3   OH256409   0.552   3.301   4.404 -0.2390  0.1585  0.0427
11665TIP3    H156410   0.646   3.299   4.384  0.2922  1.4609  2.0652
11665TIP3    H256411   0.522   3.211   4.387  0.9914  0.0741 -2.0945
11666TIP3   OH256412   0.276   3.592  13.494  0.3355 -0.0362  0.1719
11666TIP3    H156413   0.349   3.631  13.445  1.2615 -0.7828  0.9206
11666TIP3    H256414   0.271   3.502  13.463 -1.2450  0.3867 -0.9304
11667TIP3   OH256415   0.168   2.012  16.538  0.3134 -0.8909 -0.4445
11667TIP3    H156416   0.219   1.972  16.609  0.8284 -0.9771 -0.8497
11667TIP3    H256417   0.082   2.027  16.576  0.7865 -0.2715  0.4282
11668TIP3   OH256418   5.855   3.999  15.929  0.2372  0.2230 -0.5688
11668TIP3    H156419   5.803   3.948  15.991  0.2709  2.1032  1.1123
11668TIP3    H256420   5.911   3.934  15.886 -1.0567 -1.3860  0.0496
11669TIP3   OH256421   1.850   6.403  13.703 -0.8750 -0.1977  0.2902
11669TIP3    H156422   1.792   6.342  13.748 -0.5075 -1.4601 -0.8927
11669TIP3    H256423   1.933   6.356  13.694 -1.1505 -0.3239 -2.3375
11670TIP3   OH256424   6.429   0.919  13.023 -0.2840  0.3963  0.6609
11670TIP3    H156425   6.371   0.967  13.082 -0.6560  0.4793  0.2331
11670TIP3    H256426   6.396   0.939  12.935  0.3123  0.3403  0.4181
11671TIP3   OH256427   4.853   4.929  15.449  0.0167  0.5212  0.0003
11671TIP3    H156428   4.909   4.902  15.522 -0.0167  0.1046 -0.1249
11671TIP3    H256429   4.768   4.890  15.467  0.2162 -0.2365 -0.6491
11672TIP3   OH256430   1.046   4.003   0.278  1.0027  0.0070  0.2276
11672TIP3    H156431   0.976   4.035   0.335  0.7939 -0.3534  0.1784
11672TIP3    H256432   1.040   4.057   0.199  1.1349  0.3425  0.4411
11673TIP3   OH256433   5.311   2.874  16.655 -0.7110  0.0422  0.0196
11673TIP3    H156434   5.296   2.795  16.602 -0.6988 -0.1734  0.3375
11673TIP3    H256435   5.406   2.874  16.670 -0.8283 -0.3737  0.7848
11674TIP3   OH256436   5.851   3.891   3.665  0.3665 -0.2329 -0.4089
11674TIP3    H156437   5.813   3.971   3.630  2.8960  1.1993 -0.0993
11674TIP3    H256438   5.838   3.826   3.596  0.7288  1.1758 -1.8594
11675TIP3   OH256439   3.666   2.692  12.894 -0.0329 -0.2174 -0.5227
11675TIP3    H156440   3.575   2.690  12.867 -0.0603  0.2040 -0.4732
11675TIP3    H256441   3.698   2.778  12.867  0.3036 -0.2981 -0.3976
11676TIP3   OH256442   0.706   3.336  10.678  0.4141  0.1082 -0.4331
11676TIP3    H156443   0.801   3.321  10.680  0.0839 -2.5393 -0.4721
11676TIP3    H256444   0.675   3.284  10.603 -1.0724  1.0258 -0.4995
11677TIP3   OH256445   4.299   0.172   0.423  0.8179  0.2117  0.1489
11677TIP3    H156446   4.253   0.243   0.469  0.5982  1.6465 -2.1384
11677TIP3    H256447   4.376   0.213   0.385 -0.3260 -0.1978 -2.9034
11678TIP3   OH256448   6.294   1.995   4.392  0.0108  0.0107 -0.4533
11678TIP3    H156449   6.253   1.982   4.477  0.7549  0.4911 -0.0072
11678TIP3    H256450   6.245   2.067   4.352 -1.5811 -1.4690 -1.2676
11679TIP3   OH256451   2.170   4.904  16.321  0.1391  0.3673  0.3610
11679TIP3    H156452   2.138   4.852  16.247 -0.2799 -0.6397  1.2114
11679TIP3    H256453   2.265   4.890  16.320  0.2949  1.3578 -0.6952
11680TIP3   OH256454   4.153   3.372   3.544 -0.2229 -0.2754  0.0561
11680TIP3    H156455   4.247   3.352   3.550 -0.5954 -1.8075  1.7239
11680TIP3    H256456   4.116   3.336   3.624 -2.0219  1.7853  0.2514
11681TIP3   OH256457   2.162   3.210  15.242 -0.3187 -0.3102 -0.4128
11681TIP3    H156458   2.122   3.125  15.224  2.2165 -1.5128 -0.8264
11681TIP3    H256459   2.216   3.228  15.165 -0.1248  1.2654  0.0532
11682TIP3   OH256460   3.321   4.770   0.011  0.6082  0.2405 -0.1803
11682TIP3    H156461   3.360   4.836   0.070  1.0363  0.3363 -0.5636
11682TIP3    H256462   3.227   4.784   0.018  0.7008  1.0292 -0.4054
11683TIP3   OH256463   6.212   0.457  16.055  0.2369 -0.0803  0.1905
11683TIP3    H156464   6.247   0.516  15.988  2.2127 -0.6161  0.6543
11683TIP3    H256465   6.190   0.377  16.008  0.1004  0.1020 -0.0525
11684TIP3   OH256466   3.388   5.000  16.654 -0.1914  0.4066 -0.3552
11684TIP3    H156467   3.341   4.919  16.672 -2.2844  1.8037  0.9411
11684TIP3    H256468   3.440   5.016  16.733  0.7847 -0.0098 -0.8998
11685TIP3   OH256469   4.765   5.299  13.668 -0.3951  0.3000  0.0228
11685TIP3    H156470   4.763   5.223  13.610  1.5122 -0.7335  1.1869
11685TIP3    H256471   4.855   5.332  13.662 -0.2372  0.4010  2.0115
11686TIP3   OH256472   3.677   3.658  12.884  0.0079  0.1123  0.6418
11686TIP3    H156473   3.657   3.745  12.919 -2.1203  0.7386 -1.7907
11686TIP3    H256474   3.594   3.611  12.890  0.7542 -1.2622  0.5528
11687TIP3   OH256475   2.626   1.902  16.224 -0.5278  0.1509  0.1485
11687TIP3    H156476   2.644   1.835  16.290  0.0831 -0.0723 -0.2354
11687TIP3    H256477   2.713   1.935  16.200 -0.7833  0.5953 -0.1674
11688TIP3   OH256478   2.715   2.093  12.178  0.7488 -0.1107 -0.6668
11688TIP3    H156479   2.778   2.092  12.106  1.3637 -0.2562 -0.1322
11688TIP3    H256480   2.756   2.042  12.247 -0.3641 -1.0196 -0.6397
11689TIP3   OH256481   4.001   2.006  15.075  0.4324  0.1059 -0.1348
11689TIP3    H156482   4.090   2.003  15.111 -0.1460 -0.0660  1.3775
11689TIP3    H256483   3.948   2.038  15.148 -0.8919 -0.6874 -0.7276
11690TIP3   OH256484   0.212   5.451  13.263  0.3758  0.0509  0.3952
11690TIP3    H156485   0.216   5.520  13.196 -0.1414 -0.8760 -0.6214
11690TIP3    H256486   0.300   5.450  13.301  0.2160  1.7098  0.9091
11691TIP3   OH256487   6.316   6.039   3.984  0.0472  0.4773  0.5122
11691TIP3    H156488   6.368   5.988   4.046  0.9338 -0.2828 -0.8091
11691TIP3    H256489   6.245   6.076   4.037  0.8423 -0.0326  1.9916
11692TIP3   OH256490   0.793   2.361   5.369  0.0536 -0.3153 -0.5590
11692TIP3    H156491   0.721   2.304   5.343 -0.6771 -0.0999  0.9315
11692TIP3    H256492   0.780   2.376   5.462 -0.3277  3.0567 -1.0316
11693TIP3   OH256493   1.078   3.132   0.935 -0.8945  0.2186 -0.1245
11693TIP3    H156494   1.127   3.210   0.908  0.8368 -0.6577  0.3190
11693TIP3    H256495   1.082   3.073   0.860  0.3049 -0.5503  0.5023
11694TIP3   OH256496   2.109   3.105   0.584 -0.5896  0.3430  0.2199
11694TIP3    H156497   2.099   3.103   0.489  0.7889  0.2904  0.0685
11694TIP3    H256498   2.057   3.181   0.612 -0.9498  0.3961 -0.5758
11695TIP3   OH256499   5.915   2.647   2.580  0.0832  0.2975 -0.1568
11695TIP3    H156500   5.981   2.714   2.591 -0.6356  0.8281  1.1628
11695TIP3    H256501   5.839   2.680   2.628 -0.5845 -1.0422 -0.2376
11696TIP3   OH256502   2.311   0.210   5.020 -0.3267  0.1613 -0.0423
11696TIP3    H156503   2.314   0.124   5.062  1.2791 -0.6331 -1.6207
11696TIP3    H256504   2.358   0.267   5.080 -2.0521  0.1475  1.3795
11697TIP3   OH256505   5.499   4.679  15.024  0.3685  0.2219  0.3002
11697TIP3    H156506   5.519   4.769  14.998  0.2035  0.4182  0.8440
11697TIP3    H256507   5.571   4.627  14.988  0.6230  0.6123  0.2418
11698TIP3   OH256508   4.040   3.247  12.613 -0.0736  0.4261  0.1048
11698TIP3    H156509   4.123   3.265  12.655 -0.4153 -2.7427  2.5411
11698TIP3    H256510   4.052   3.161  12.572 -1.0595  1.5779 -2.9046
11699TIP3   OH256511   2.336   1.310   1.215 -0.3576 -0.2851  0.4809
11699TIP3    H156512   2.325   1.395   1.173  0.2524 -0.5293 -0.1969
11699TIP3    H256513   2.404   1.324   1.280  0.0490 -0.3460  0.0759
11700TIP3   OH256514   5.324   5.794  15.123 -0.3321 -0.0759  0.0008
11700TIP3    H156515   5.336   5.701  15.140 -1.6696 -0.3463 -0.4108
11700TIP3    H256516   5.328   5.802  15.028 -1.6276  0.0452 -0.0631
11701TIP3   OH256517   1.258   6.472   2.680  0.3878  0.5517 -0.0227
11701TIP3    H156518   1.329   6.418   2.715 -0.2632  0.3794  1.0512
11701TIP3    H256519   1.232   6.426   2.600  1.1650  0.3584 -0.1784
11702TIP3   OH256520   3.915   4.885   4.182  0.4142  0.7981 -0.0108
11702TIP3    H156521   3.908   4.944   4.257 -0.3053 -0.4222  0.9223
11702TIP3    H256522   3.854   4.921   4.117  0.3390  1.3327  0.3559
11703TIP3   OH256523   0.451   0.157   0.540 -0.4082  0.2991  0.4494
11703TIP3    H156524   0.510   0.082   0.530  0.6666  1.2158 -0.4967
11703TIP3    H256525   0.446   0.195   0.452  0.4645  2.3032  1.1843
11704TIP3   OH256526   4.596   0.663   4.645  0.0282 -0.2865  0.2395
11704TIP3    H156527   4.511   0.707   4.644  0.1768 -0.0039 -0.0128
11704TIP3    H256528   4.623   0.660   4.553  0.5706  0.1729  0.3769
11705TIP3   OH256529   6.404   2.021  12.970 -0.0587  0.1722  0.5372
11705TIP3    H156530   6.498   2.032  12.986 -0.0403  0.9183 -0.0456
11705TIP3    H256531   6.376   2.104  12.934 -0.7918 -0.3099 -0.0305
11706TIP3   OH256532   6.239   1.593   2.844 -0.7322  0.2479  0.1067
11706TIP3    H156533   6.233   1.634   2.758  0.8933  0.7915  0.2153
11706TIP3    H256534   6.148   1.577   2.870 -1.2633  0.5295 -1.4784
11707TIP3   OH256535   5.004   2.490   1.451 -1.1045 -0.0246  0.8225
11707TIP3    H156536   4.962   2.442   1.522 -0.8803  1.0167  1.6958
11707TIP3    H256537   4.956   2.574   1.448 -0.9824  0.0256 -0.1284
11708TIP3   OH256538   1.017   6.011   2.998  0.3425 -0.1535 -0.1452
11708TIP3    H156539   0.931   5.975   3.022  0.1196  0.2456 -0.3322
11708TIP3    H256540   1.066   6.014   3.080 -0.5070  1.4808  0.3581
11709TIP3   OH256541   4.514   5.082   1.113  0.1649 -0.4529  0.1751
11709TIP3    H156542   4.474   5.027   1.180 -0.4397 -1.4707 -0.9886
11709TIP3    H256543   4.608   5.076   1.130  0.0138 -0.5837  1.0025
11710TIP3   OH256544   4.638   2.606   1.256 -0.6688 -0.3051  0.5332
11710TIP3    H156545   4.628   2.683   1.312 -2.5975  0.4995 -0.8066
11710TIP3    H256546   4.560   2.553   1.275 -1.7456  0.3050 -1.7363
11711TIP3   OH256547   0.000   1.543   3.133  0.0591 -0.0262 -0.0664
11711TIP3    H156548   0.015   1.572   3.223 -3.9298  0.3761  0.6532
11711TIP3    H256549   0.001   1.448   3.139  0.4713 -0.0055  0.2655
11712TIP3   OH256550   2.921   6.064   1.389  0.1271 -1.1151  0.0141
11712TIP3    H156551   2.917   6.019   1.474 -2.7512 -0.3825  0.3898
11712TIP3    H256552   3.007   6.106   1.388  0.4235 -1.5158  2.3726
11713TIP3   OH256553   3.230   0.003  16.786 -0.3599 -0.1433 -0.1858
11713TIP3    H156554   3.323   0.022  16.775 -0.4234  0.9868  1.0393
11713TIP3    H256555   3.223  -0.036  16.873 -1.1095  0.3758 -0.0043
11714TIP3   OH256556   0.103   4.639   3.807 -0.3680  0.2753  0.1321
11714TIP3    H156557   0.009   4.634   3.790 -0.1665 -0.1592 -0.9548
11714TIP3    H256558   0.130   4.548   3.818  0.5738 -0.0491 -3.6182
11715TIP3   OH256559   6.643   6.008  15.525  0.3833 -0.2709 -0.0447
11715TIP3    H156560   6.689   5.949  15.584  0.2641 -2.4897 -2.0368
11715TIP3    H256561   6.685   6.093  15.539  2.4008 -1.3648  1.0148
11716TIP3   OH256562   4.867   1.967  13.080  0.4193 -0.6106 -0.3206
11716TIP3    H156563   4.899   1.884  13.114  0.9425 -0.0463  0.5966
11716TIP3    H256564   4.902   1.971  12.990  0.4050 -1.3568 -0.3687
11717TIP3   OH256565   5.851   1.486   2.750  0.5512  0.2921  0.3796
11717TIP3    H156566   5.904   1.408   2.763 -0.7560 -0.4788  1.3181
11717TIP3    H256567   5.843   1.495   2.655 -1.2918 -2.1782  0.2071
11718TIP3   OH256568   0.364   0.508  14.718 -0.0942 -0.0185 -0.2284
11718TIP3    H156569   0.399   0.451  14.650 -0.5653  0.8439 -1.2255
11718TIP3    H256570   0.353   0.451  14.794 -3.4550 -2.0927 -2.0173
11719TIP3   OH256571   0.684   0.909  11.807 -0.1485 -0.1194 -0.0289
11719TIP3    H156572   0.625   0.882  11.877 -0.2323  2.3521  0.9540
11719TIP3    H256573   0.736   0.831  11.788 -0.7905 -1.1450  2.1020
11720TIP3   OH256574   4.575   0.409  13.903  0.2520  0.0860 -0.1836
11720TIP3    H156575   4.511   0.391  13.834 -0.3316  1.1986  0.0425
11720TIP3    H256576   4.534   0.376  13.983  0.3162  0.0426 -0.1701
11721TIP3   OH256577   5.353   5.845  14.864 -0.3219  0.8460 -0.8763
11721TIP3    H156578   5.264   5.813  14.849  0.3226 -0.3430 -2.4099
11721TIP3    H256579   5.410   5.780  14.823  1.1628  2.8317 -2.1996
11722TIP3   OH256580   6.146   1.260  15.489  0.4252  0.1866  0.1360
11722TIP3    H156581   6.109   1.257  15.577 -1.4544  1.8871 -0.5178
11722TIP3    H256582   6.104   1.336  15.448  3.1915  1.0072 -1.4065
11723TIP3   OH256583   1.759   2.844   1.048 -0.1724  0.4789  0.0443
11723TIP3    H156584   1.730   2.857   0.958  1.4118 -0.1439 -0.5974
11723TIP3    H256585   1.705   2.772   1.081  1.1085 -1.2173 -1.3912
11724TIP3   OH256586   6.607   0.740   2.082  0.1388 -0.2961 -0.4463
11724TIP3    H156587   6.687   0.687   2.084  0.5876  0.2971  2.3398
11724TIP3    H256588   6.617   0.796   2.005  2.8167  0.2925  0.2150
11725TIP3   OH256589   5.292   6.160  12.563  0.0363  0.1873  0.1969
11725TIP3    H156590   5.293   6.161  12.468  1.5829  0.5047  0.1904
11725TIP3    H256591   5.230   6.228  12.588 -0.4010  0.0775 -0.5676
11726TIP3   OH256592   0.107   0.348   0.881 -0.2249  0.0744  0.0238
11726TIP3    H156593   0.175   0.293   0.841 -0.2507  0.0078  0.0709
11726TIP3    H256594   0.043   0.362   0.812  0.7481  1.6861 -0.5954
11727TIP3   OH256595   5.448   1.213  13.347  0.0403 -0.1343 -0.3076
11727TIP3    H156596   5.359   1.197  13.315  0.1337  0.1819 -0.7399
11727TIP3    H256597   5.442   1.201  13.442 -0.2171 -1.2170 -0.4447
11728TIP3   OH256598   1.033   5.766  13.465 -0.7276 -0.2540 -0.1969
11728TIP3    H156599   1.077   5.785  13.382 -1.8611 -1.0559 -1.0182
11728TIP3    H256600   1.029   5.850  13.510  0.3701  0.0975 -0.7185
11729TIP3   OH256601   0.886   5.291   3.725 -0.0795 -0.8559 -0.2960
11729TIP3    H156602   0.858   5.211   3.681  1.4408 -1.6525  0.1473
11729TIP3    H256603   0.842   5.288   3.810 -0.9368 -0.6222 -0.7171
11730TIP3   OH256604   5.138   0.744  16.860  0.4585 -0.2567 -0.4707
11730TIP3    H156605   5.080   0.806  16.903 -0.0470 -1.2236  0.3069
11730TIP3    H256606   5.086   0.663  16.856  2.3675 -1.7392  2.0377
11731TIP3   OH256607   2.425   0.610  13.417  0.1838 -0.0176 -0.0081
11731TIP3    H156608   2.362   0.559  13.366 -1.7014 -0.7178  2.7707
11731TIP3    H256609   2.392   0.700  13.413 -1.5882 -0.4758  1.9843
11732TIP3   OH256610   2.136   4.527  11.689 -0.2889 -0.2200 -0.1675
11732TIP3    H156611   2.129   4.525  11.593 -0.4057 -0.6369 -0.1529
11732TIP3    H256612   2.095   4.446  11.718 -1.2227  0.4119  0.3056
11733TIP3   OH256613   3.094   0.011  13.786  0.2413  0.1676  0.1114
11733TIP3    H156614   3.143  -0.025  13.860  0.7439 -2.3149 -1.3016
11733TIP3    H256615   3.124   0.101  13.777  2.8137 -0.5620  0.7438
11734TIP3   OH256616   0.647   1.676   1.741  0.7863 -0.7157  0.0394
11734TIP3    H156617   0.556   1.654   1.764  0.7835 -0.4015  0.3326
11734TIP3    H256618   0.682   1.717   1.820  0.2796  1.9097 -0.9798
11735TIP3   OH256619   3.707   5.704   4.677 -0.0907 -0.1818 -0.8526
11735TIP3    H156620   3.761   5.624   4.674  0.0755 -0.1060 -0.0939
11735TIP3    H256621   3.645   5.688   4.748  0.2115  0.5319 -0.4248
11736TIP3   OH256622   2.675   2.572  11.271  0.2595 -0.4428 -0.1192
11736TIP3    H156623   2.656   2.485  11.237  0.7458 -0.1415 -1.1786
11736TIP3    H256624   2.591   2.617  11.269  0.2138 -0.5470 -0.5590
11737TIP3   OH256625   4.805   2.665  12.254 -0.3200  0.3577  0.3593
11737TIP3    H156626   4.771   2.579  12.230  0.5626 -0.5391  2.1337
11737TIP3    H256627   4.777   2.679  12.344  3.2947 -0.1839  1.7534
11738TIP3   OH256628   4.542   2.674  14.172 -0.0735 -0.8086 -0.2607
11738TIP3    H156629   4.487   2.746  14.203  2.3698  1.5669 -1.0399
11738TIP3    H256630   4.596   2.652  14.248  0.6331 -0.2853 -0.5913
11739TIP3   OH256631   1.018   0.175  14.885  0.2562  0.0367 -0.1197
11739TIP3    H156632   1.044   0.265  14.905  1.4409 -0.3403  0.0977
11739TIP3    H256633   0.999   0.176  14.791 -0.4596  0.6785  0.0267
11740TIP3   OH256634   6.720   0.600   5.865 -0.7464 -0.1519  0.9840
11740TIP3    H156635   6.738   0.506   5.860  0.3245  0.0879 -0.0177
11740TIP3    H256636   6.745   0.624   5.954  1.8434 -0.2929  0.3786
11741TIP3   OH256637   4.581   1.682   3.560  0.0155 -0.0831 -0.0442
11741TIP3    H156638   4.496   1.714   3.590 -0.7401  0.6788 -2.6633
11741TIP3    H256639   4.579   1.588   3.576 -0.2792  0.2629  2.1617
11742TIP3   OH256640   3.396   2.444   3.957 -0.2902  0.0340 -0.2308
11742TIP3    H156641   3.397   2.349   3.949 -0.9579  0.0285 -0.3165
11742TIP3    H256642   3.410   2.476   3.868  1.0953  0.0390 -0.0434
11743TIP3   OH256643   5.820   2.873   1.018  0.5198 -0.3549  0.2634
11743TIP3    H156644   5.893   2.826   1.057  0.0531 -0.8713  0.5296
11743TIP3    H256645   5.852   2.901   0.932  0.8435 -1.0499  0.1559
11744TIP3   OH256646   0.209   1.534   2.544  0.6766 -0.1713 -0.1333
11744TIP3    H156647   0.160   1.470   2.597  1.1120 -0.1340  0.3233
11744TIP3    H256648   0.299   1.524   2.573  0.5363  1.7290  1.0860
11745TIP3   OH256649   2.677   0.462   4.280  0.8201  0.1974 -0.1802
11745TIP3    H156650   2.747   0.457   4.214 -0.2386 -0.6455 -1.2775
11745TIP3    H256651   2.651   0.554   4.280  2.2732  0.6397  0.6432
11746TIP3   OH256652   1.605   1.924   5.286 -0.1223  0.0286 -0.2307
11746TIP3    H156653   1.682   1.884   5.247 -0.6204 -0.8542 -0.3471
11746TIP3    H256654   1.534   1.863   5.267 -0.9247  1.0029 -0.4560
11747TIP3   OH256655   2.890   4.731  12.945 -0.3435 -0.4110  0.9007
11747TIP3    H156656   2.975   4.689  12.941 -0.8028 -1.2871 -0.3407
11747TIP3    H256657   2.908   4.823  12.967  1.0562 -0.1916 -0.9674
11748TIP3   OH256658   3.622   2.370   4.717 -0.4165  0.3356  0.3438
11748TIP3    H156659   3.656   2.447   4.670 -1.5386  1.7115  1.6938
11748TIP3    H256660   3.677   2.298   4.686  0.8383  1.6974 -0.8026
11749TIP3   OH256661   6.398   3.677   5.720 -0.6785 -0.1058  0.1616
11749TIP3    H156662   6.402   3.723   5.804 -0.3252  0.0993  0.0368
11749TIP3    H256663   6.374   3.745   5.657  1.8862  0.4215 -0.3651
11750TIP3   OH256664   5.407   5.030  14.832  0.0926  0.0415  0.9247
11750TIP3    H156665   5.359   4.951  14.808  0.3627 -0.2804  1.4166
11750TIP3    H256666   5.486   4.998  14.875  1.4722  0.5177 -1.0996
11751TIP3   OH256667   1.277   5.566   5.059 -0.4766 -0.4526 -0.1392
11751TIP3    H156668   1.306   5.560   4.968  3.3138  2.1422  0.6709
11751TIP3    H256669   1.342   5.517   5.109 -1.8472 -0.8728  1.3189
11752TIP3   OH256670   0.416   0.019   1.527 -0.2024  0.3668 -0.2157
11752TIP3    H156671   0.332   0.056   1.556 -0.0115  2.1457 -1.7993
11752TIP3    H256672   0.424   0.045   1.435  0.7499 -2.2671 -0.9716
11753TIP3   OH256673   6.333   0.953   3.200  0.2220  0.0075  0.0157
11753TIP3    H156674   6.310   0.860   3.201  0.2459 -0.0017 -0.1697
11753TIP3    H256675   6.334   0.975   3.107  2.9098 -0.4785 -0.1543
11754TIP3   OH256676   2.537   2.143   2.496 -0.0540  0.0294 -0.3336
11754TIP3    H156677   2.555   2.204   2.568  2.6371 -1.0704  0.0290
11754TIP3    H256678   2.541   2.056   2.536 -0.4029 -0.5316 -1.4675
11755TIP3   OH256679   2.774   4.170   1.181 -0.1264  0.7507 -0.9578
11755TIP3    H156680   2.797   4.262   1.196  0.2983  0.6319 -0.8548
11755TIP3    H256681   2.802   4.153   1.091 -1.9519  1.2432 -1.6514
11756TIP3   OH256682   6.706   1.473  11.967 -0.1018 -0.0534 -0.3042
11756TIP3    H156683   6.796   1.483  11.937  0.2684  3.7413  1.5772
11756TIP3    H256684   6.714   1.439  12.056 -0.6471 -0.9032 -0.5624
11757TIP3   OH256685   1.640   2.408  13.457  0.2157  0.3525  0.4148
11757TIP3    H156686   1.607   2.492  13.426  0.3763  0.9092  1.6935
11757TIP3    H256687   1.590   2.390  13.536 -0.2362 -1.0670 -0.1560
11758TIP3   OH256688   5.532   0.958   5.304 -0.0753 -0.0457  0.0848
11758TIP3    H156689   5.619   0.978   5.268  0.0101  0.1035  0.3683
11758TIP3    H256690   5.492   0.900   5.239  1.0940 -1.9451  0.9708
11759TIP3   OH256691   3.228   5.652  12.517  0.1927 -0.8164 -0.3242
11759TIP3    H156692   3.236   5.568  12.472 -0.3361 -0.7847 -0.4761
11759TIP3    H256693   3.225   5.717  12.447 -2.7223 -0.9085 -0.3855
11760TIP3   OH256694   4.121   1.193   5.572  0.0968 -0.3018 -0.0131
11760TIP3    H156695   4.050   1.162   5.628  0.7555 -1.7766  0.0428
11760TIP3    H256696   4.104   1.153   5.486  0.9749 -0.8609  0.0638
11761TIP3   OH256697   1.022   4.942  14.724  0.2042 -0.2432  0.1392
11761TIP3    H156698   0.929   4.957  14.707 -0.2196 -0.0684  2.2965
11761TIP3    H256699   1.064   4.953  14.639 -1.9022 -1.7719 -1.2215
11762TIP3   OH256700   3.797   3.122  11.175  0.4571 -0.3364  0.2138
11762TIP3    H156701   3.794   3.038  11.221  0.8874 -0.2471  0.4104
11762TIP3    H256702   3.777   3.101  11.084  1.4448 -0.7830  0.0952
11763TIP3   OH256703   5.372   1.091  16.142  0.2081 -0.4030  0.0223
11763TIP3    H156704   5.380   0.998  16.162  2.5718 -0.5577 -1.2232
11763TIP3    H256705   5.376   1.134  16.227  0.1498 -1.3818  0.5363
11764TIP3   OH256706   0.413   1.324  11.472 -0.2656  0.9470 -0.2427
11764TIP3    H156707   0.403   1.377  11.552  0.6571  1.4720 -0.4664
11764TIP3    H256708   0.455   1.243  11.502 -0.8015  0.7365 -0.0497
11765TIP3   OH256709   0.411   4.956   4.880  0.7294 -0.3840 -0.4902
11765TIP3    H156710   0.409   4.867   4.916  1.5103  0.6520  2.3412
11765TIP3    H256711   0.504   4.978   4.879  0.4689  0.7725 -0.1398
11766TIP3   OH256712   2.926   5.211  16.219  0.0895  0.5155 -0.6967
11766TIP3    H156713   2.892   5.244  16.302 -0.9515 -1.9356 -0.0579
11766TIP3    H256714   3.013   5.177  16.241 -0.6278 -1.1646 -0.2709
11767TIP3   OH256715   0.350   5.553   2.389  0.0296  0.1161 -0.2120
11767TIP3    H156716   0.409   5.580   2.459  1.1529  1.7474 -1.6860
11767TIP3    H256717   0.345   5.629   2.331 -2.8564 -0.2818 -0.6413
11768TIP3   OH256718   4.120   3.351  15.305  0.3127 -0.1620 -0.1884
11768TIP3    H156719   4.164   3.303  15.235 -0.8781  1.0655 -1.8697
11768TIP3    H256720   4.190   3.380  15.363  1.4063 -0.5914 -1.2659
11769TIP3   OH256721   2.096   5.531   1.723  0.3086  0.2214 -0.2370
11769TIP3    H156722   2.104   5.604   1.785 -3.6591  1.9101 -1.4186
11769TIP3    H256723   2.160   5.550   1.655 -0.7858  2.8443 -0.6328
11770TIP3   OH256724   3.239   1.466   0.729  0.1825  0.3735  0.1567
11770TIP3    H156725   3.255   1.554   0.764 -0.1134 -0.4003  2.3811
11770TIP3    H256726   3.288   1.408   0.787 -0.8790 -1.0439 -0.3247
11771TIP3   OH256727   1.650   4.255  16.746  0.1811  0.1506  0.3247
11771TIP3    H156728   1.650   4.335  16.797  1.0707 -0.8969  2.0561
11771TIP3    H256729   1.564   4.216  16.761  0.3247  0.0039  0.7617
11772TIP3   OH256730   6.054   5.319   5.595  0.4363 -0.2622 -0.6487
11772TIP3    H156731   6.044   5.318   5.690 -0.0432 -0.0351 -0.6922
11772TIP3    H256732   6.146   5.300   5.580  0.8400  1.1639 -0.0910
11773TIP3   OH256733   4.038   5.055   3.837  0.3550 -0.1459 -0.3402
11773TIP3    H156734   4.001   4.986   3.893  3.2986 -0.0466  1.9801
11773TIP3    H256735   4.112   5.013   3.793  1.4694  1.1739  0.2022
11774TIP3   OH256736   5.323   4.252   2.506 -0.1735  0.5160  0.2962
11774TIP3    H156737   5.295   4.192   2.437 -0.4661  2.1505 -1.0703
11774TIP3    H256738   5.408   4.285   2.476 -0.4286  1.4531  0.5624
11775TIP3   OH256739   5.198   3.311   3.020 -0.2759 -0.2091 -0.2407
11775TIP3    H156740   5.108   3.345   3.023 -0.1763 -0.0111  1.4239
11775TIP3    H256741   5.186   3.216   3.011 -0.7540 -0.3897  1.6755
11776TIP3   OH256742   0.951   4.160  14.582  0.1658 -0.4256 -0.0081
11776TIP3    H156743   0.873   4.107  14.564  0.3973 -0.2743 -1.6134
11776TIP3    H256744   0.942   4.236  14.524  0.8418  0.2673  0.7874
11777TIP3   OH256745   4.080   4.268  16.520  0.5161  0.0482  0.2168
11777TIP3    H156746   4.159   4.214  16.524  1.3927  1.2200 -0.5602
11777TIP3    H256747   4.112   4.355  16.499 -0.9933  0.5498 -0.1113
11778TIP3   OH256748   0.405   6.019  13.661  0.6464 -0.3112 -0.2665
11778TIP3    H156749   0.316   5.986  13.652 -0.4894  2.2218  0.6741
11778TIP3    H256750   0.445   5.961  13.727 -0.2542 -1.4903 -0.7147
11779TIP3   OH256751   4.598   0.315  10.592  0.2590  0.3753  0.1940
11779TIP3    H156752   4.514   0.278  10.563  1.4887 -2.4788 -0.1199
11779TIP3    H256753   4.576   0.368  10.668 -2.0165  1.2005 -0.9427
11780TIP3   OH256754   2.208   6.113   0.746 -0.1415  0.3602  0.4334
11780TIP3    H156755   2.215   6.045   0.678  0.7565  0.0015  0.8678
11780TIP3    H256756   2.226   6.195   0.700  0.7316  0.0909  0.2788
11781TIP3   OH256757   5.408   6.080  13.250 -0.2698 -0.5106 -0.0783
11781TIP3    H156758   5.340   6.145  13.268  0.9041  1.2029 -1.4827
11781TIP3    H256759   5.370   5.997  13.278 -1.6108  0.8152  2.3626
11782TIP3   OH256760   2.536   3.814  13.585 -0.7882  0.4029 -0.3946
11782TIP3    H156761   2.519   3.733  13.537 -0.0240 -1.1825  1.8617
11782TIP3    H256762   2.621   3.844  13.552 -1.5128  0.9006 -1.9413
11783TIP3   OH256763   3.247   3.859   0.184  0.2436 -0.4918 -0.3655
11783TIP3    H156764   3.154   3.836   0.193  0.2672 -0.5035 -0.1487
11783TIP3    H256765   3.249   3.918   0.109 -0.5368  2.6919  1.8946
11784TIP3   OH256766   3.263   2.727  11.665  0.3563  0.1087  0.2779
11784TIP3    H156767   3.347   2.770  11.680  1.3795 -1.8929  0.7452
11784TIP3    H256768   3.278   2.673  11.587 -0.3485 -0.5878  0.6121
11785TIP3   OH256769   2.866   1.710   1.314 -0.2719  0.1241 -0.9006
11785TIP3    H156770   2.813   1.708   1.234  0.0551  0.3991 -1.1253
11785TIP3    H256771   2.879   1.803   1.332 -1.2142  0.0912  0.0560
11786TIP3   OH256772   1.950   5.726  13.864  0.0901  0.6454  0.1264
11786TIP3    H156773   2.030   5.687  13.829  0.1401 -0.8526  1.7589
11786TIP3    H256774   1.888   5.724  13.791  1.2873  1.1566 -0.9490
11787TIP3   OH256775   3.086   5.383   0.492 -0.0377 -0.2188  0.5666
11787TIP3    H156776   3.112   5.420   0.576 -0.1465 -0.2065  0.5956
11787TIP3    H256777   3.147   5.421   0.429 -0.6099  0.6015  0.4843
11788TIP3   OH256778   2.163   0.514   2.139 -0.3234 -0.0496  0.3273
11788TIP3    H156779   2.077   0.474   2.151  0.7885 -2.7156  0.1660
11788TIP3    H256780   2.164   0.541   2.048 -1.5149  1.5146  0.7302
11789TIP3   OH256781   1.874   3.699  12.489  0.1392 -0.0746  0.8420
11789TIP3    H156782   1.938   3.647  12.539  0.9386  0.7921  0.7341
11789TIP3    H256783   1.924   3.735  12.416 -0.6992 -0.1559  0.2179
11790TIP3   OH256784   3.881   1.557   4.787 -0.0939 -0.6645 -0.4756
11790TIP3    H156785   3.801   1.530   4.832 -0.6683 -2.0167 -2.2028
11790TIP3    H256786   3.853   1.575   4.697  1.2094  0.8660 -0.6294
11791TIP3   OH256787   2.191   1.314  10.629 -0.0758  0.0733 -0.1866
11791TIP3    H156788   2.235   1.302  10.545 -0.5096  0.0372 -0.4100
11791TIP3    H256789   2.262   1.328  10.692  0.2989 -0.8906 -0.3869
11792TIP3   OH256790   1.921   6.503  13.980 -0.5257 -0.5762  0.3618
11792TIP3    H156791   1.917   6.451  14.060 -0.5336 -2.6917 -0.9166
11792TIP3    H256792   1.993   6.463  13.930 -1.9786 -0.8465 -1.6343
11793TIP3   OH256793   5.431   5.251  15.866  0.1158  0.4122  0.0270
11793TIP3    H156794   5.514   5.251  15.817 -0.2359  2.0824 -0.6405
11793TIP3    H256795   5.370   5.205  15.809  0.0488  1.1295 -0.4860
11794TIP3   OH256796   2.081   2.023  13.673  0.0417 -0.1090 -0.1278
11794TIP3    H156797   2.032   2.105  13.685 -1.5032 -0.8515 -1.0946
11794TIP3    H256798   2.070   1.977  13.756 -0.8763 -0.2421 -0.3123
11795TIP3   OH256799   4.139   4.808  14.040  0.0484 -0.2895 -0.3030
11795TIP3    H156800   4.145   4.764  14.125  0.3974  0.8211  0.2580
11795TIP3    H256801   4.197   4.884  14.047 -2.6229  1.9047 -0.2212
11796TIP3   OH256802   5.260   5.672  11.905 -0.5634  0.5626 -0.6135
11796TIP3    H156803   5.190   5.606  11.903 -1.0326  1.0183  0.2790
11796TIP3    H256804   5.221   5.746  11.951  0.1816  1.2148 -1.0236
11797TIP3   OH256805   1.434   3.937   5.224 -0.2263 -0.3248  0.0512
11797TIP3    H156806   1.426   3.849   5.262 -0.4359 -0.5051 -0.4128
11797TIP3    H256807   1.485   3.986   5.289  1.7598 -1.3719 -0.6322
11798TIP3   OH256808   0.492   0.903   4.850 -0.0521 -0.3377  0.2045
11798TIP3    H156809   0.410   0.898   4.900 -1.7433 -1.3976 -2.4808
11798TIP3    H256810   0.553   0.847   4.898 -1.0763 -0.0939  1.8714
11799TIP3   OH256811   0.181   2.042  14.872 -0.4149 -0.2092  0.2547
11799TIP3    H156812   0.235   2.106  14.825 -1.7802  0.0090 -1.1009
11799TIP3    H256813   0.200   1.959  14.830 -2.1381  0.0877 -1.2536
11800TIP3   OH256814   0.282   2.234  14.009 -0.2750  0.1929  0.1507
11800TIP3    H156815   0.306   2.198  14.094  0.4936 -1.9643 -0.8899
11800TIP3    H256816   0.202   2.186  13.984  0.2513 -0.1823 -0.8903
11801TIP3   OH256817   2.320   2.432  12.099 -0.2015 -0.3593  0.1934
11801TIP3    H156818   2.369   2.360  12.059  0.3167 -0.1437  0.4294
11801TIP3    H256819   2.229   2.416  12.075  0.0607 -0.4261 -0.7785
11802TIP3   OH256820   5.988   4.270  13.142  0.2071 -0.4572  0.7589
11802TIP3    H156821   5.990   4.214  13.219  0.6459  0.1902  1.2231
11802TIP3    H256822   6.076   4.307  13.137 -0.1925  0.5100  0.7007
11803TIP3   OH256823   2.500   2.837  13.546  0.0045 -0.2726 -0.3758
11803TIP3    H156824   2.487   2.927  13.516 -0.1316  0.4399  1.6605
11803TIP3    H256825   2.579   2.808  13.501  0.5781  1.1884 -0.3733
11804TIP3   OH256826   2.262   0.579   1.891  0.2649 -0.8553 -0.1601
11804TIP3    H156827   2.308   0.526   1.826 -0.2446 -2.3062  0.6132
11804TIP3    H256828   2.169   0.561   1.876  0.1528 -2.3002  1.7559
11805TIP3   OH256829   1.048   3.240   4.169  0.2860 -0.3702 -0.4542
11805TIP3    H156830   1.010   3.302   4.106  2.3459 -0.2373 -1.6677
11805TIP3    H256831   1.107   3.294   4.222 -0.3747 -0.7467  0.6975
11806TIP3   OH256832   6.708   0.483   2.491  0.1272 -0.2856 -0.3986
11806TIP3    H156833   6.780   0.459   2.550  0.2849  0.6917 -0.1875
11806TIP3    H256834   6.648   0.408   2.496 -0.0222 -0.0947  1.2446
11807TIP3   OH256835   1.683   6.246  14.075 -0.4280  0.0938  0.4955
11807TIP3    H156836   1.750   6.251  14.143 -1.2027 -0.0190  1.2864
11807TIP3    H256837   1.675   6.153  14.055  0.3894  0.1992 -0.3632
11808TIP3   OH256838   1.971   6.380  10.180 -0.6300  0.3033  0.1566
11808TIP3    H156839   1.905   6.310  10.174 -0.7778  0.4098  0.5230
11808TIP3    H256840   1.921   6.458  10.206 -0.4184  0.4787  0.0424
11809TIP3   OH256841   0.607   5.827   2.347 -0.4514 -0.1853 -0.6905
11809TIP3    H156842   0.651   5.832   2.432 -1.8988 -0.0670  0.0918
11809TIP3    H256843   0.638   5.905   2.300 -0.7979  0.6102  0.3413
11810TIP3   OH256844   3.658   0.789  13.548  0.2990 -0.7684  0.0629
11810TIP3    H156845   3.690   0.709  13.506 -2.8365 -2.3244  0.3298
11810TIP3    H256846   3.576   0.808  13.504 -0.0411  1.1423  1.3986
11811TIP3   OH256847   5.763   5.291   1.832 -0.6228  0.4177  0.2257
11811TIP3    H156848   5.825   5.321   1.900 -0.3503  1.2536 -0.3740
11811TIP3    H256849   5.714   5.220   1.874 -0.2493  0.7150  1.1983
11812TIP3   OH256850   0.388   5.612  15.729 -0.2388 -0.3870 -0.4120
11812TIP3    H156851   0.333   5.677  15.685 -1.6587  1.0897  3.1409
11812TIP3    H256852   0.473   5.619  15.685 -1.1353  1.8939 -1.9920
11813TIP3   OH256853   1.619   4.670  16.320  0.2839  0.0918 -0.6780
11813TIP3    H156854   1.691   4.670  16.383  0.6118 -0.6475 -1.0377
11813TIP3    H256855   1.544   4.636  16.370 -0.2704  2.3789  0.1542
11814TIP3   OH256856   4.824   6.706   0.031  0.3310  0.0232 -0.7318
11814TIP3    H156857   4.870   6.684  -0.050  1.5778 -2.1763  0.4742
11814TIP3    H256858   4.891   6.747   0.086  1.0727 -3.2352  1.0520
11815TIP3   OH256859   0.964   1.113  16.807 -0.7706  0.1498  0.0530
11815TIP3    H156860   1.019   1.168  16.862 -1.8962  2.2378 -0.7678
11815TIP3    H256861   1.021   1.043  16.777  1.2761  1.8845 -0.2944
11816TIP3   OH256862   2.899   0.478   3.632 -0.6871 -0.0436  0.2678
11816TIP3    H156863   2.816   0.441   3.663 -0.4786  0.3119  1.3069
11816TIP3    H256864   2.914   0.554   3.689 -0.2145  0.5799 -0.6523
11817TIP3   OH256865   6.632   3.961   3.221  0.0375 -0.0487  0.0118
11817TIP3    H156866   6.594   4.048   3.231 -0.5490 -0.5283  2.4979
11817TIP3    H256867   6.725   3.972   3.238  0.2740  0.3303 -1.3809
11818TIP3   OH256868   3.573   4.439  15.879 -0.0654  0.8366 -0.0468
11818TIP3    H156869   3.572   4.373  15.810  2.1990  2.5747 -1.9160
11818TIP3    H256870   3.626   4.401  15.949 -1.2640 -0.4281  0.2027
11819TIP3   OH256871   1.068   0.777  13.696 -0.4438  0.3890  0.5090
11819TIP3    H156872   1.141   0.764  13.756  0.3481 -1.1416 -0.7233
11819TIP3    H256873   0.993   0.736  13.739 -0.4928  1.5159  1.5463
11820TIP3   OH256874   6.753   4.634  16.390  0.3007  0.0334 -0.2931
11820TIP3    H156875   6.765   4.697  16.319 -1.4214 -0.1161 -0.7664
11820TIP3    H256876   6.782   4.680  16.468 -0.2404  1.1683 -0.7390
11821TIP3   OH256877   3.167   4.215  13.180 -0.2251  0.4454 -0.5139
11821TIP3    H156878   3.256   4.186  13.160 -0.0520  1.5486 -1.4576
11821TIP3    H256879   3.178   4.302  13.218 -0.9007  0.7323 -0.9521
11822TIP3   OH256880   2.878   4.938   5.036  0.2048  0.1323 -0.2216
11822TIP3    H156881   2.906   4.961   5.124 -1.6741 -0.4628  0.5851
11822TIP3    H256882   2.890   4.843   5.031  0.6327  0.2076 -0.7482
11823TIP3   OH256883   4.669   3.226  14.067  0.6651 -0.2799  0.0016
11823TIP3    H156884   4.674   3.137  14.103 -0.3216  0.2551  1.5697
11823TIP3    H256885   4.646   3.281  14.142  0.6080  1.2198 -1.0656
11824TIP3   OH256886   3.170   1.445   1.900 -0.3961 -0.3632  0.2541
11824TIP3    H156887   3.227   1.370   1.916  0.1723 -0.3999 -1.6639
11824TIP3    H256888   3.082   1.411   1.913 -0.1180  0.0425  4.6746
11825TIP3   OH256889   0.667   3.054   0.858  0.3016 -0.3126 -0.3446
11825TIP3    H156890   0.615   3.116   0.805 -0.6436 -0.9521 -0.1800
11825TIP3    H256891   0.715   3.110   0.919  0.5343  0.3588 -1.1110
11826TIP3   OH256892   0.428   4.648  15.629  0.0589 -0.8444  0.5578
11826TIP3    H156893   0.439   4.612  15.717  2.0160 -0.8530  0.3625
11826TIP3    H256894   0.343   4.691  15.631  1.1449  1.5233  3.3326
11827TIP3   OH256895   4.645   1.407   0.774  0.3506  0.0988  0.4820
11827TIP3    H156896   4.602   1.458   0.843  0.7489  0.5470  0.4041
11827TIP3    H256897   4.736   1.399   0.804 -0.3150 -3.2846  2.0825
11828TIP3   OH256898   5.353   3.508  11.935  0.2372 -0.1360  0.1021
11828TIP3    H156899   5.436   3.545  11.904  0.1459 -0.9796 -1.2622
11828TIP3    H256900   5.377   3.423  11.970  0.1860  0.3967  1.4859
11829TIP3   OH256901   6.203   3.789   2.087 -0.4461  0.4399  0.2046
11829TIP3    H156902   6.243   3.704   2.105 -0.5990  0.3895  0.3060
11829TIP3    H256903   6.115   3.783   2.124 -0.1911  0.9195  0.8973
11830TIP3   OH256904   2.055   3.216   4.248  0.4952 -0.3052 -0.0459
11830TIP3    H156905   1.977   3.216   4.192  1.2562  0.2229 -1.1480
11830TIP3    H256906   2.104   3.293   4.221  2.5178 -1.8086 -1.0092
11831TIP3   OH256907   4.453   0.517   4.113  0.0543 -0.4367 -0.5118
11831TIP3    H156908   4.455   0.598   4.165  0.3621  0.3327 -1.6850
11831TIP3    H256909   4.367   0.479   4.131 -0.2291  0.3309 -0.2007
11832TIP3   OH256910   0.527   6.101   2.671  0.3666  0.3232  0.1238
11832TIP3    H156911   0.490   6.030   2.724 -0.2031 -0.0420 -0.7332
11832TIP3    H256912   0.473   6.102   2.592  1.5524  0.4742 -0.7081
11833TIP3   OH256913   5.792   0.678  12.460 -0.1423  0.4921 -0.0265
11833TIP3    H156914   5.739   0.598  12.461  1.1601 -0.4683 -1.9100
11833TIP3    H256915   5.797   0.705  12.552  0.8812 -2.6301  0.9489
11834TIP3   OH256916   6.245   4.527   4.614  0.3746  0.6961  0.4406
11834TIP3    H156917   6.216   4.581   4.541 -1.4152  0.7593  1.1498
11834TIP3    H256918   6.307   4.583   4.662 -0.5638  1.7051  0.5161
11835TIP3   OH256919   2.314   6.241   2.838 -0.0015 -0.0699 -0.8017
11835TIP3    H156920   2.384   6.295   2.875 -1.9194  2.3357 -0.3838
11835TIP3    H256921   2.288   6.287   2.758 -2.1046  0.0523 -0.1155
11836TIP3   OH256922   0.192   6.244  11.260  0.0368  0.0975 -0.7447
11836TIP3    H156923   0.275   6.204  11.287 -0.0657  0.5029  0.2129
11836TIP3    H256924   0.141   6.249  11.341 -0.2988  1.3340 -1.0089
11837TIP3   OH256925   0.710   4.305   0.888  0.0651 -0.1853  0.1791
11837TIP3    H156926   0.651   4.355   0.943  0.6994 -0.8981  1.5547
11837TIP3    H256927   0.746   4.238   0.946  1.5234 -0.3317 -0.8422
11838TIP3   OH256928   6.362   1.730   0.119  0.1551  0.2880  0.5296
11838TIP3    H156929   6.432   1.701   0.061 -0.4144 -0.8585  0.3898
11838TIP3    H256930   6.394   1.711   0.207  0.3532  0.5381  0.5141
11839TIP3   OH256931   4.793   0.536  12.096 -0.1346  0.3804  0.2251
11839TIP3    H156932   4.800   0.488  12.178  1.0550 -1.7076 -0.9980
11839TIP3    H256933   4.869   0.595  12.096  0.4842 -0.3924  0.1996
11840TIP3   OH256934   5.061   5.358  15.909  0.7900 -0.0276  0.2636
11840TIP3    H156935   5.106   5.428  15.956  0.2895  0.5839 -0.1483
11840TIP3    H256936   4.972   5.391  15.896  0.2655 -1.1311  0.8905
11841TIP3   OH256937   5.773   5.576   1.776  0.0546 -0.6201  0.0072
11841TIP3    H156938   5.786   5.669   1.798  1.1301 -0.5020 -1.0283
11841TIP3    H256939   5.735   5.538   1.855  1.5927  0.2535  1.2139
11842TIP3   OH256940   0.679   2.187   2.830 -0.3085  0.0657 -0.4513
11842TIP3    H156941   0.689   2.152   2.741 -1.4085  1.7688 -1.3118
11842TIP3    H256942   0.697   2.280   2.821  1.3343 -0.0037  1.5082
11843TIP3   OH256943   3.586   5.916  15.265  0.6893 -0.0816 -0.0790
11843TIP3    H156944   3.632   5.988  15.220  1.3411  0.0522  0.7685
11843TIP3    H256945   3.502   5.954  15.291  0.4381 -0.0648 -0.8826
11844TIP3   OH256946   0.317   6.178  14.637 -0.7041 -0.0582 -0.8088
11844TIP3    H156947   0.362   6.262  14.627  1.7005 -1.4822 -2.9140
11844TIP3    H256948   0.360   6.137  14.712 -1.3449  0.2174 -0.2751
11845TIP3   OH256949   0.467   2.000  16.228  0.5194  0.2097  0.1445
11845TIP3    H156950   0.476   1.920  16.176  1.5136 -0.6381  1.5771
11845TIP3    H256951   0.519   1.985  16.307  0.9835  2.3918  0.3354
11846TIP3   OH256952   0.862   6.313   3.778  0.3216 -0.0193 -0.5786
11846TIP3    H156953   0.772   6.299   3.751  0.1844 -0.1610 -0.0568
11846TIP3    H256954   0.887   6.232   3.823  1.0169 -0.3498 -1.5343
11847TIP3   OH256955   1.061   1.904  11.988 -0.2040  0.5668  0.4191
11847TIP3    H156956   0.993   1.854  12.032 -1.4810  1.8472 -0.0201
11847TIP3    H256957   1.025   1.993  11.980  0.0267  0.5143 -2.9195
11848TIP3   OH256958   3.665   3.217  13.647  0.1612  0.2754 -0.1370
11848TIP3    H156959   3.710   3.236  13.565 -1.0163 -0.7794 -1.0624
11848TIP3    H256960   3.572   3.233  13.628  0.0052  1.6185  1.4941
11849TIP3   OH256961   4.578   4.506   0.734  0.0968 -0.1928  0.1508
11849TIP3    H156962   4.495   4.549   0.714 -0.2543 -0.3298  1.2638
11849TIP3    H256963   4.605   4.542   0.819  1.4596  0.2540 -0.4274
11850TIP3   OH256964   4.990   2.182   4.601  0.4450 -1.0407  0.5325
11850TIP3    H156965   4.990   2.215   4.511 -0.8965  0.0004  0.8850
11850TIP3    H256966   4.970   2.089   4.592  0.5444 -0.9954 -0.2542
11851TIP3   OH256967   0.566   4.506  14.433  0.4049  0.7659 -0.0949
11851TIP3    H156968   0.482   4.499  14.387  0.7939 -1.1657 -0.5958
11851TIP3    H256969   0.551   4.575  14.498 -1.3264  1.0071 -0.6830
11852TIP3   OH256970   5.744   1.163   5.898  0.7156 -0.2159 -0.0868
11852TIP3    H156971   5.791   1.148   5.980 -0.2632  1.4715  0.8543
11852TIP3    H256972   5.714   1.076   5.871 -1.0164 -0.6213  2.6853
11853TIP3   OH256973   6.101   4.494   4.888 -0.4848  0.2622  0.1027
11853TIP3    H156974   6.068   4.577   4.855 -2.5140 -0.5770 -0.1135
11853TIP3    H256975   6.079   4.430   4.821  3.4846 -0.1645 -1.0569
11854TIP3   OH256976   2.588   6.766   1.977 -0.5341  0.0471 -0.6612
11854TIP3    H156977   2.607   6.675   2.003 -0.0584  0.3751  0.1849
11854TIP3    H256978   2.523   6.796   2.040  2.6011  1.7389  2.0682
11855TIP3   OH256979   6.707   5.839  12.613 -0.6025 -0.2317  0.2644
11855TIP3    H156980   6.761   5.788  12.553  2.6998  1.1557  1.7903
11855TIP3    H256981   6.701   5.785  12.692  1.2852  0.8082  1.1924
11856TIP3   OH256982   1.384   1.392  12.946 -0.1192  0.1529  0.3321
11856TIP3    H156983   1.357   1.482  12.928 -1.0972 -0.1407  0.2820
11856TIP3    H256984   1.467   1.400  12.992 -1.4565  1.1826  2.7180
11857TIP3   OH256985   3.893   5.244  16.029  0.4193  0.3772  0.1026
11857TIP3    H156986   3.919   5.157  15.998 -0.5111  0.2457 -0.3405
11857TIP3    H256987   3.943   5.305  15.975  0.1650  0.1231 -0.4285
11858TIP3   OH256988   3.924   0.842  16.561 -0.3275 -0.3891  0.7523
11858TIP3    H156989   3.830   0.829  16.545 -0.2581  0.8256 -0.8536
11858TIP3    H256990   3.965   0.759  16.537 -0.8425 -0.4310 -0.0188
11859TIP3   OH256991   4.325   0.578  11.988 -0.0652  0.3311 -0.0897
11859TIP3    H156992   4.366   0.508  11.938 -2.1189 -2.0820  1.3522
11859TIP3    H256993   4.239   0.589  11.948 -0.6990  0.2412  1.1852
11860TIP3   OH256994   5.468   5.764  15.945 -0.3399  0.3692 -0.5381
11860TIP3    H156995   5.464   5.742  16.038  0.6153 -0.7574 -0.7431
11860TIP3    H256996   5.520   5.845  15.942  0.7578 -0.3091 -0.1886
11861TIP3   OH256997   3.403   0.347  11.594  0.4617 -0.3392 -0.0019
11861TIP3    H156998   3.341   0.298  11.541  1.9568 -1.0679 -1.1372
11861TIP3    H256999   3.487   0.303  11.581  1.5227  1.4693  0.3173
11862TIP3   OH257000   2.307   0.107  11.687 -0.7695  0.0479  0.6748
11862TIP3    H157001   2.378   0.072  11.633  0.8118  0.7026  2.2469
11862TIP3    H257002   2.300   0.199  11.659 -0.5087  0.1691  1.0025
11863TIP3   OH257003   6.053   3.163  11.951 -0.3088 -0.3259 -0.3395
11863TIP3    H157004   5.990   3.169  12.023 -1.9847 -1.2467 -1.6467
11863TIP3    H257005   6.115   3.234  11.966  0.1806 -1.2619  2.6975
11864TIP3   OH257006   5.668   2.999   1.383 -0.5228 -0.0143  0.0198
11864TIP3    H157007   5.741   3.061   1.384 -0.1199 -0.4741 -0.6312
11864TIP3    H257008   5.655   2.976   1.475  0.5275 -0.3640  0.0885
11865TIP3   OH257009   2.397   0.323  12.191 -0.1853 -0.3094 -0.4386
11865TIP3    H157010   2.389   0.335  12.097 -0.6627  1.8890 -0.1749
11865TIP3    H257011   2.430   0.234  12.202 -1.1751 -0.9992 -2.6284
11866TIP3   OH257012   3.512   2.593  16.699 -0.2422 -0.6507  0.1363
11866TIP3    H157013   3.594   2.543  16.697  0.0833 -0.1096 -1.8719
11866TIP3    H257014   3.453   2.543  16.642 -1.2852 -0.9505  1.4450
11867TIP3   OH257015   4.949   2.129   2.655  0.5977 -0.4208 -0.2863
11867TIP3    H157016   4.942   2.181   2.574 -0.1117  0.3109  0.2252
11867TIP3    H257017   4.953   2.195   2.725  0.1418 -1.0501  0.3470
11868TIP3   OH257018   3.686   6.209   5.480  0.4064  0.0898  0.0748
11868TIP3    H157019   3.641   6.220   5.564  1.0039 -0.4071  0.4628
11868TIP3    H257020   3.644   6.133   5.440  0.7554 -0.2404  0.3388
11869TIP3   OH257021   4.866   0.934  15.677  0.9718 -0.7090 -0.0675
11869TIP3    H157022   4.802   0.947  15.747  0.2314  1.8810 -1.1234
11869TIP3    H257023   4.828   0.865  15.622 -0.1882 -0.2581  0.1504
11870TIP3   OH257024   5.022   1.450  12.950  0.0118  0.1728 -0.1837
11870TIP3    H157025   4.986   1.366  12.978  0.7164 -0.0676  0.0236
11870TIP3    H257026   5.089   1.470  13.015  0.1986  0.6429 -0.5201
11871TIP3   OH257027   0.472   3.651   1.980  0.1907 -0.3209 -0.1967
11871TIP3    H157028   0.407   3.599   1.933  0.3144  0.7833 -1.6642
11871TIP3    H257029   0.429   3.736   1.993  1.0298  0.1450 -0.4221
11872TIP3   OH257030   6.029   5.002   3.351  0.1236  0.2856  0.4342
11872TIP3    H157031   6.045   4.929   3.411  0.2198 -0.1255 -0.0859
11872TIP3    H257032   5.959   4.971   3.294  0.7191  0.2812 -0.3094
11873TIP3   OH257033   3.539   3.218  15.398  0.4020  0.1081  0.4294
11873TIP3    H157034   3.532   3.142  15.340  1.2541  1.2947 -1.3396
11873TIP3    H257035   3.476   3.281  15.362 -1.3750 -0.2344  2.7447
11874TIP3   OH257036   6.174   2.596  15.656  0.4427 -0.0690 -0.6671
11874TIP3    H157037   6.246   2.533  15.654  0.4980  0.0024 -1.3967
11874TIP3    H257038   6.217   2.681  15.646  0.6338  0.3919  2.8235
11875TIP3   OH257039   5.429   6.535   1.518 -0.0299 -0.4360 -0.0792
11875TIP3    H157040   5.472   6.581   1.446 -1.0035  1.4045  0.4732
11875TIP3    H257041   5.461   6.445   1.510  4.5184  0.8562  0.7327
11876TIP3   OH257042   6.723   5.032   3.637  0.5946  0.7652 -0.7383
11876TIP3    H157043   6.711   4.997   3.726 -0.1825  0.6329 -0.8902
11876TIP3    H257044   6.644   5.085   3.622  0.3451  0.1462 -1.6495
11877TIP3   OH257045   2.001   4.075  11.560 -0.1473  0.3509 -0.1174
11877TIP3    H157046   2.078   4.021  11.579 -1.6828 -2.8556 -2.1859
11877TIP3    H257047   1.940   4.056  11.631 -0.4063 -0.0897 -0.4514
11878TIP3   OH257048   3.105   1.569  14.293 -0.2698 -0.5041 -0.1870
11878TIP3    H157049   3.130   1.513  14.367 -2.6801 -2.4673 -0.7360
11878TIP3    H257050   3.185   1.618  14.272  1.0531 -1.4021  2.3627
11879TIP3   OH257051   5.554   2.285   0.804  0.4532 -0.2020 -0.0709
11879TIP3    H157052   5.646   2.296   0.782  0.6745  0.1874  0.9811
11879TIP3    H257053   5.554   2.238   0.888 -0.3219 -0.7959 -0.3875
11880TIP3   OH257054   6.649   2.120  14.372 -0.2240  0.3360  0.4008
11880TIP3    H157055   6.662   2.061  14.297  0.6687 -0.3996  1.1122
11880TIP3    H257056   6.563   2.095  14.407  0.0405 -0.3847  0.5514
11881TIP3   OH257057   0.103   5.077  11.884 -0.3955  0.1027 -0.2751
11881TIP3    H157058   0.166   5.144  11.909  0.5548 -0.3539 -1.3611
11881TIP3    H257059   0.126   5.001  11.937 -1.3759  0.5628  0.8437
11882TIP3   OH257060   1.677   4.821  16.592  0.6303  0.2668  0.3105
11882TIP3    H157061   1.744   4.758  16.565  0.0800  0.1031 -0.7189
11882TIP3    H257062   1.597   4.770  16.596  0.5746  0.4362  1.6615
11883TIP3   OH257063   3.469   2.260   5.147  0.3583 -0.3685  0.6848
11883TIP3    H157064   3.458   2.228   5.236  0.2530 -0.4810  0.6319
11883TIP3    H257065   3.513   2.189   5.101  1.4294  0.1275  0.9234
11884TIP3   OH257066   6.265   0.667   3.300  0.0900  1.1783  0.1062
11884TIP3    H157067   6.340   0.642   3.246  0.6886  0.9077  1.0335
11884TIP3    H257068   6.277   0.619   3.382 -2.7285 -1.3003 -0.7452
11885TIP3   OH257069   1.499   5.983   1.006  0.8055  0.0086 -0.8859
11885TIP3    H157070   1.547   5.934   1.073  0.9808 -0.2430 -1.1953
11885TIP3    H257071   1.454   6.052   1.055 -1.9696 -2.2781  0.0333
11886TIP3   OH257072   1.645   3.662   4.275 -0.0525  0.5948 -0.1347
11886TIP3    H157073   1.632   3.619   4.359 -0.5552  0.1885 -0.4060
11886TIP3    H257074   1.557   3.663   4.236  0.1650  0.8328 -0.6204
11887TIP3   OH257075   6.225   5.027  13.297  0.0586 -0.0764 -0.1339
11887TIP3    H157076   6.213   5.020  13.391  0.4215 -0.1029 -0.0872
11887TIP3    H257077   6.246   4.938  13.269  3.1586  0.4380  0.2378
11888TIP3   OH257078   5.539   6.518  16.696 -0.0135  0.1780 -0.3074
11888TIP3    H157079   5.515   6.568  16.774  0.5324  0.9235 -0.5982
11888TIP3    H257080   5.612   6.463  16.724 -1.4428 -1.4555  0.3536
11889TIP3   OH257081   2.469   1.511   3.237  0.0494 -0.0127 -0.4133
11889TIP3    H157082   2.488   1.603   3.256  1.5281 -0.4355  0.3256
11889TIP3    H257083   2.504   1.464   3.313 -0.7073 -1.1941 -0.7707
11890TIP3   OH257084   0.457   3.156  11.935  0.3693 -0.1500  0.1133
11890TIP3    H157085   0.483   3.067  11.962 -0.8386 -0.9608 -1.2941
11890TIP3    H257086   0.398   3.185  12.005  0.4848 -0.5918  0.4034
11891TIP3   OH257087   5.403   0.015  10.510 -0.3065  0.1050  0.0576
11891TIP3    H157088   5.401  -0.015  10.601 -1.3748 -1.0343 -0.3175
11891TIP3    H257089   5.494   0.003  10.483  0.2701  1.4058  1.2503
11892TIP3   OH257090   3.318   5.345   6.091 -0.3335 -0.6507 -0.5738
11892TIP3    H157091   3.410   5.357   6.114 -0.5526 -0.8919  0.4847
11892TIP3    H257092   3.307   5.396   6.011  0.2826  0.9565  0.3045
11893TIP3   OH257093   3.944   3.988   0.975 -0.7495  0.1405 -0.4887
11893TIP3    H157094   3.967   4.072   1.015 -0.1994 -0.4279  0.4480
11893TIP3    H257095   3.859   4.003   0.935  0.2951  1.7595 -2.2884
11894TIP3   OH257096   5.531   3.244   5.473 -0.1360  0.0085  0.1696
11894TIP3    H157097   5.486   3.160   5.479  0.1849 -0.4284 -2.3852
11894TIP3    H257098   5.546   3.270   5.564  0.8665 -3.2844  1.0784
11895TIP3   OH257099   4.435   3.506  13.490 -0.2780 -0.8991  0.0663
11895TIP3    H157100   4.348   3.537  13.515  0.5663  1.4150  0.3233
11895TIP3    H257101   4.432   3.411  13.506 -2.1752 -0.6108  1.7926
11896TIP3   OH257102   1.897   5.705  16.126  0.0293 -0.3375 -0.0119
11896TIP3    H157103   1.851   5.678  16.206  1.5991 -1.4635  0.5643
11896TIP3    H257104   1.894   5.627  16.070 -1.0315  0.4359 -1.0748
11897TIP3   OH257105   4.782   1.691   0.352  0.1176  0.2463  0.8199
11897TIP3    H157106   4.719   1.627   0.387 -0.1764  0.0576 -0.0300
11897TIP3    H257107   4.856   1.638   0.322  0.1145  0.3600  0.6151
11898TIP3   OH257108   1.392   3.185  12.347  0.0174 -0.6235 -0.0025
11898TIP3    H157109   1.438   3.235  12.414  1.8162 -0.3512 -1.3547
11898TIP3    H257110   1.365   3.251  12.283 -2.1533 -0.8072  0.6391
11899TIP3   OH257111   1.127   5.349  12.647 -0.4656 -0.2766  0.0736
11899TIP3    H157112   1.178   5.277  12.683 -2.2556 -0.9195  1.4827
11899TIP3    H257113   1.056   5.306  12.598 -2.0718  0.4349  1.6627
11900TIP3   OH257114   2.597   0.218  12.685 -0.1236 -0.2169  0.6210
11900TIP3    H157115   2.634   0.230  12.772  0.4227 -0.0949  0.3768
11900TIP3    H257116   2.562   0.128  12.685  0.4467 -0.4396  0.7577
11901TIP3   OH257117   6.121   3.339  10.513 -0.4156  0.7331  0.1445
11901TIP3    H157118   6.213   3.316  10.500 -1.0892 -1.2759 -1.5837
11901TIP3    H257119   6.081   3.262  10.552 -1.1967  2.0221  2.0554
11902TIP3   OH257120   1.914   6.173   4.358  0.2507 -0.6386  0.0982
11902TIP3    H157121   1.946   6.241   4.417 -0.6002 -0.2668  0.1375
11902TIP3    H257122   1.945   6.200   4.272 -0.2880 -0.0647  0.0768
11903TIP3   OH257123   2.417   3.899  16.186 -0.0997  0.6875 -0.1438
11903TIP3    H157124   2.501   3.852  16.179 -0.3787  0.0133  0.8028
11903TIP3    H257125   2.419   3.936  16.274 -2.0529 -1.8852  1.1152
11904TIP3   OH257126   6.673   4.657   2.171 -0.4499 -0.2742 -0.2284
11904TIP3    H157127   6.611   4.630   2.103 -0.9709 -0.1354  0.1754
11904TIP3    H257128   6.718   4.577   2.197 -2.3954 -0.9424  1.3801
11905TIP3   OH257129   4.529   4.973  15.994 -0.3916  0.4174  0.4217
11905TIP3    H157130   4.559   4.990  16.084 -3.3133 -3.1864  2.3513
11905TIP3    H257131   4.448   5.023  15.986 -0.1068  0.7789 -0.2823
11906TIP3   OH257132   4.321   4.162   5.311 -0.0516 -0.4761  0.1619
11906TIP3    H157133   4.388   4.227   5.331 -0.2056  0.2684 -1.5788
11906TIP3    H257134   4.241   4.196   5.352  0.2003 -0.3595  0.5603
11907TIP3   OH257135   6.016   3.733  12.405  0.5480 -0.2105  0.3334
11907TIP3    H157136   6.077   3.775  12.344  0.8212  0.1027  0.8172
11907TIP3    H257137   6.071   3.686  12.467  0.2757 -0.4593  0.3908
11908TIP3   OH257138   3.399   0.084  13.602 -0.0677  0.3736  0.5316
11908TIP3    H157139   3.424   0.174  13.620 -1.3618  1.0430 -0.7656
11908TIP3    H257140   3.304   0.087  13.589 -0.4256 -1.5087  2.2482
11909TIP3   OH257141   3.621   1.449   0.199 -0.7194  0.0420 -0.0642
11909TIP3    H157142   3.716   1.433   0.203 -0.4073  1.1098 -2.1045
11909TIP3    H257143   3.583   1.362   0.190  0.2887 -0.2827 -1.7476
11910TIP3   OH257144   3.041   1.068  16.868  0.0596  0.0322  0.0775
11910TIP3    H157145   2.983   1.016  16.812  1.7887 -0.9788 -0.8575
11910TIP3    H257146   3.009   1.051  16.957  0.1846 -2.1896 -0.2413
11911TIP3   OH257147   4.914   4.941   2.231 -0.0985 -0.4189  0.1364
11911TIP3    H157148   4.866   4.866   2.267 -1.8848  1.2236  1.3652
11911TIP3    H257149   4.932   4.916   2.140  0.0459 -2.6198  0.7089
11912TIP3   OH257150   1.332   2.923   0.512  0.0664 -0.0122 -0.3862
11912TIP3    H157151   1.260   2.982   0.535  2.3893  2.9931 -0.2332
11912TIP3    H257152   1.314   2.897   0.421  0.0435  2.8804 -1.3180
11913TIP3   OH257153   5.961   5.372  14.201  0.2857  0.7568  0.0885
11913TIP3    H157154   6.050   5.403  14.213  1.2218 -0.8031 -2.0868
11913TIP3    H257155   5.946   5.378  14.107 -0.2102 -3.0671 -0.2524
11914TIP3   OH257156   2.256   6.672   4.392 -0.1344 -0.6612 -0.1991
11914TIP3    H157157   2.162   6.681   4.372 -0.1312  1.2356  0.4583
11914TIP3    H257158   2.277   6.582   4.368 -1.4050 -0.2532 -3.4262
11915TIP3   OH257159   0.518   3.669   4.408  0.3591 -0.1010  0.1291
11915TIP3    H157160   0.610   3.664   4.435  0.3721  1.8843  0.6237
11915TIP3    H257161   0.471   3.614   4.470  1.0263  0.1991  0.9150
11916TIP3   OH257162   1.931   4.946  14.715  0.2068 -0.3251 -0.5042
11916TIP3    H157163   1.886   4.966  14.633  1.6331  1.4744 -0.9225
11916TIP3    H257164   1.962   4.856  14.705 -1.2356 -0.7858 -1.1231
11917TIP3   OH257165   2.241   1.917   0.374  0.5109  0.0952  0.2361
11917TIP3    H157166   2.320   1.919   0.428 -0.2690  1.5157  1.4086
11917TIP3    H257167   2.237   2.004   0.334  1.4959 -1.1577 -2.8776
11918TIP3   OH257168   1.027   3.565   3.537 -0.0545 -0.5539 -0.6133
11918TIP3    H157169   0.937   3.558   3.569  0.4676 -0.7037  0.9161
11918TIP3    H257170   1.081   3.533   3.610  1.2205 -0.8779 -1.6593
11919TIP3   OH257171   4.484   0.190   2.123 -0.0550 -0.1064  0.2302
11919TIP3    H157172   4.536   0.218   2.198 -1.5300 -0.1947  1.3169
11919TIP3    H257173   4.407   0.245   2.125 -1.2578 -1.7220  0.2302
11920TIP3   OH257174   4.077   0.058   3.699 -0.2615  0.5733  0.2867
11920TIP3    H157175   4.049  -0.007   3.764 -0.4972  0.5203  0.1352
11920TIP3    H257176   4.126   0.007   3.634  0.9166  0.7924  0.9784
11921TIP3   OH257177   0.122   0.788   0.683  0.5021  0.0973  0.0070
11921TIP3    H157178   0.170   0.821   0.759  0.3557  1.2366 -0.3677
11921TIP3    H257179   0.172   0.819   0.608  1.7818 -2.7420 -0.4109
11922TIP3   OH257180   2.269   4.992  14.295  0.3330 -0.6908 -0.1818
11922TIP3    H157181   2.252   4.899  14.276  0.7747 -1.5145  2.9218
11922TIP3    H257182   2.363   5.002  14.281  0.2812 -0.6954 -0.5423
11923TIP3   OH257183   4.478   1.079   0.754 -0.3719 -0.0659  0.7589
11923TIP3    H157184   4.466   0.996   0.708 -2.1033 -0.6312  2.1197
11923TIP3    H257185   4.443   1.145   0.693 -3.2223 -0.8602  1.3828
11924TIP3   OH257186   4.841   6.032  14.929 -0.2812 -0.2633  0.1580
11924TIP3    H157187   4.921   5.992  14.963 -0.9199 -1.7789 -0.0479
11924TIP3    H257188   4.818   5.979  14.853 -0.7421  0.9982 -0.6213
11925TIP3   OH257189   0.854   6.470  14.439  0.6422 -0.0159 -0.5483
11925TIP3    H157190   0.817   6.518  14.365  0.6104 -0.3500 -0.7487
11925TIP3    H257191   0.948   6.479  14.429  0.7100 -1.7034 -1.7355
11926TIP3   OH257192   1.751   6.507   0.980  0.5401  0.1089  0.0023
11926TIP3    H157193   1.749   6.580   1.042  0.8637  0.1887 -0.0767
11926TIP3    H257194   1.722   6.545   0.898  0.7461  0.1610 -0.0481
11927TIP3   OH257195   5.238   1.351  12.796  0.1562  0.0861 -0.4942
11927TIP3    H157196   5.247   1.258  12.820  1.7626  0.5791  1.0693
11927TIP3    H257197   5.166   1.382  12.851 -0.7577 -0.3260 -1.4235
11928TIP3   OH257198   5.033   0.810   4.381 -0.3376 -0.0765  0.2100
11928TIP3    H157199   5.123   0.822   4.409  0.6978 -2.2185 -1.7826
11928TIP3    H257200   5.002   0.734   4.429 -0.7016 -0.0054  0.0960
11929TIP3   OH257201   5.786   0.147   4.076 -0.1387  0.3254 -0.5356
11929TIP3    H157202   5.803   0.178   4.165 -1.1379  1.9878 -0.8811
11929TIP3    H257203   5.868   0.162   4.029 -0.9705  4.3432 -1.1321
11930TIP3   OH257204   0.390   2.488  12.247  0.2752 -0.6271 -0.4805
11930TIP3    H157205   0.424   2.574  12.272  0.7453 -0.4050 -1.7872
11930TIP3    H257206   0.394   2.488  12.151  0.2309 -2.0895 -0.4997
11931TIP3   OH257207   0.225   5.481   3.394 -0.7195 -0.3891 -0.3251
11931TIP3    H157208   0.211   5.402   3.445  1.3218 -1.3710 -1.2075
11931TIP3    H257209   0.228   5.452   3.303 -3.3690  1.2041 -1.0363
11932TIP3   OH257210   1.180   5.633  13.039 -0.0033  0.1300 -0.1260
11932TIP3    H157211   1.142   5.707  12.990 -2.1358 -1.0945 -0.4219
11932TIP3    H257212   1.198   5.567  12.972 -0.5443 -0.5862  0.4190
11933TIP3   OH257213   1.130   2.805  15.948 -0.0860 -0.0584  0.1235
11933TIP3    H157214   1.145   2.721  15.904  0.3724  0.7071 -1.2392
11933TIP3    H257215   1.048   2.792  15.996 -0.4502 -1.0480 -0.7068
11934TIP3   OH257216   3.701   2.943  16.094  0.0873 -0.2929 -0.4209
11934TIP3    H157217   3.726   3.031  16.123  1.6384 -0.7414 -0.2888
11934TIP3    H257218   3.609   2.934  16.120 -0.3436  1.5763 -1.1622
11935TIP3   OH257219   1.159   0.409   1.313  0.2172  0.5541 -0.1716
11935TIP3    H157220   1.169   0.371   1.226 -0.9491  1.7811 -0.8928
11935TIP3    H257221   1.073   0.381   1.342  0.6732  0.0059  0.6802
11936TIP3   OH257222   2.430   1.482   5.884  0.0026  0.1745  0.3586
11936TIP3    H157223   2.369   1.410   5.901 -3.9356  2.4441 -2.5904
11936TIP3    H257224   2.448   1.518   5.971 -2.2195 -1.1365  1.4694
11937TIP3   OH257225   6.381   0.903   1.207  0.6106  0.0521  0.7045
11937TIP3    H157226   6.409   0.980   1.257  0.0095  1.7259 -1.3921
11937TIP3    H257227   6.458   0.846   1.208  0.4573 -0.2829  3.9058
11938TIP3   OH257228   2.150   5.603  11.986  0.4347 -0.1576  1.0241
11938TIP3    H157229   2.151   5.542  12.060  1.5505 -0.3296  0.8877
11938TIP3    H257230   2.242   5.619  11.968  0.1582  1.3316  0.8451
11939TIP3   OH257231   1.963   1.915  12.045 -0.1091  0.4526 -0.4787
11939TIP3    H157232   2.012   1.897  11.965  0.3429  1.8431 -0.5475
11939TIP3    H257233   1.873   1.927  12.017  0.0248  0.7948 -0.7735
11940TIP3   OH257234   2.580   0.363  14.198  0.2582  0.2177 -0.4720
11940TIP3    H157235   2.579   0.436  14.259  1.6144 -1.0666  1.1915
11940TIP3    H257236   2.628   0.395  14.121 -1.1286  1.7331 -0.7477
11941TIP3   OH257237   2.708   6.034  13.462  0.1638 -0.1998  0.2060
11941TIP3    H157238   2.620   6.058  13.490 -0.7268 -2.1158 -0.6905
11941TIP3    H257239   2.766   6.086  13.517 -1.4930  2.3255 -0.2498
11942TIP3   OH257240   5.973   0.176  10.893  0.0582  0.4270 -0.4348
11942TIP3    H157241   6.061   0.213  10.903 -0.3023  2.3678 -3.1823
11942TIP3    H257242   5.988   0.089  10.856  0.8395  0.1268  0.5531
11943TIP3   OH257243   2.592   5.785   3.791 -0.0873 -0.5524 -0.0721
11943TIP3    H157244   2.553   5.723   3.852 -0.5558 -2.6089 -2.3137
11943TIP3    H257245   2.521   5.808   3.731  0.4261  1.1700 -0.0777
11944TIP3   OH257246   5.110   2.280   5.062  0.6835  0.0373  0.8458
11944TIP3    H157247   5.049   2.351   5.044  0.7438 -0.2320 -0.5500
11944TIP3    H257248   5.058   2.200   5.050  1.6236 -0.2580 -2.0633
11945TIP3   OH257249   5.685   4.314   5.945  0.7053  0.3131  0.1045
11945TIP3    H157250   5.668   4.235   5.996  0.6941  0.5390  0.4539
11945TIP3    H257251   5.648   4.385   5.998 -0.7549  0.3898 -0.9596
11946TIP3   OH257252   1.890   4.102  12.841  0.3067  0.5105  0.3995
11946TIP3    H157253   1.950   4.176  12.849  0.3791  0.7936 -1.9263
11946TIP3    H257254   1.806   4.135  12.872  0.8608  0.7382  1.7498
11947TIP3   OH257255   5.710   2.702  15.363 -0.0699 -0.0016 -0.0319
11947TIP3    H157256   5.692   2.645  15.438  0.8052  0.1922  0.3389
11947TIP3    H257257   5.665   2.784  15.384  0.9638  0.3835  0.7519
11948TIP3   OH257258   3.102   0.003   2.544  0.2930  0.0641  0.0918
11948TIP3    H157259   3.068   0.079   2.497  1.2668  0.3482 -0.1842
11948TIP3    H257260   3.146   0.040   2.621  1.2808 -0.1567 -0.3490
11949TIP3   OH257261   5.412   1.881  12.914 -0.2816 -0.3902  0.3077
11949TIP3    H157262   5.440   1.960  12.960  2.1403 -1.4125  0.7341
11949TIP3    H257263   5.350   1.912  12.849  1.2304  2.0152 -0.1098
11950TIP3   OH257264   6.675   5.890   0.273  0.4282 -0.2603 -0.4374
11950TIP3    H157265   6.677   5.980   0.306  0.4803 -0.8224  1.2046
11950TIP3    H257266   6.734   5.891   0.198  3.5957  0.2468  1.8794
11951TIP3   OH257267   1.777   0.650  15.521 -0.3327  0.2333 -0.0828
11951TIP3    H157268   1.844   0.663  15.454 -0.7807 -0.4082 -0.6717
11951TIP3    H257269   1.822   0.666  15.604  1.0368 -1.9113 -0.3374
11952TIP3   OH257270   2.198   3.194   3.198 -0.0308  0.0426 -0.0482
11952TIP3    H157271   2.119   3.208   3.146 -0.7496  0.1100  1.0244
11952TIP3    H257272   2.211   3.277   3.244  0.6987  0.0483 -0.2520
11953TIP3   OH257273   3.116   1.467  11.603  0.2649 -0.7777 -0.3502
11953TIP3    H157274   3.154   1.541  11.555 -0.9262 -0.2717 -0.5547
11953TIP3    H257275   3.042   1.438  11.549 -0.6158 -0.7129  0.7706
11954TIP3   OH257276   4.896   2.021   1.159  0.2643 -0.1734  0.5972
11954TIP3    H157277   4.860   2.110   1.159 -0.7948 -0.5641 -1.3079
11954TIP3    H257278   4.913   2.003   1.252 -0.5903  1.5703  1.1414
11955TIP3   OH257279   6.024   2.499  13.272 -0.5870  0.1901 -0.2230
11955TIP3    H157280   5.950   2.529  13.324  0.8144  2.3969  0.6843
11955TIP3    H257281   6.039   2.569  13.208  1.1480  0.1885  0.1177
11956TIP3   OH257282   2.435   6.144   5.833  0.6432  0.0679 -0.1621
11956TIP3    H157283   2.365   6.174   5.775 -0.1917 -0.7096  0.4211
11956TIP3    H257284   2.408   6.057   5.861  1.2223  0.2618  1.0770
11957TIP3   OH257285   3.865   0.585   5.691  0.1173  0.0637 -0.1636
11957TIP3    H157286   3.876   0.574   5.785  1.1749  3.5303  0.2633
11957TIP3    H257287   3.819   0.669   5.681 -0.2440 -0.3327 -2.7449
11958TIP3   OH257288   3.357   0.137  11.991 -0.3641 -0.3239 -0.2282
11958TIP3    H157289   3.372   0.230  12.010 -1.6759 -0.3774  1.3340
11958TIP3    H257290   3.283   0.136  11.932  0.3130 -0.3565 -1.0906
11959TIP3   OH257291   3.217   3.211   6.545 -0.4958  0.0498 -0.0266
11959TIP3    H157292   3.308   3.217   6.575 -0.1636 -1.1299 -0.7041
11959TIP3    H257293   3.211   3.275   6.474 -0.2136  0.1781  0.0625
11960TIP3   OH257294   3.728   5.530  15.172  0.6120  0.3570  0.2689
11960TIP3    H157295   3.737   5.589  15.247  1.3125  1.1078 -0.3729
11960TIP3    H257296   3.811   5.482  15.169  0.4858  0.1458  0.1255
11961TIP3   OH257297   5.605   4.097   1.402 -0.2875  0.2614 -0.0896
11961TIP3    H157298   5.540   4.056   1.459  0.2324  0.6857  0.8098
11961TIP3    H257299   5.661   4.147   1.460  0.0323  1.0036 -1.0079
11962TIP3   OH257300   2.613   5.584   0.169 -0.4077  0.1857  0.2546
11962TIP3    H157301   2.662   5.516   0.217 -0.2197 -0.4362 -0.7813
11962TIP3    H257302   2.523   5.572   0.197 -1.0792 -3.0407 -2.5908
11963TIP3   OH257303   1.564   3.316  13.770  0.1727  0.6357 -0.7557
11963TIP3    H157304   1.653   3.338  13.798  1.5932 -2.6468 -2.1362
11963TIP3    H257305   1.552   3.366  13.688  0.5974  1.3114 -0.4190
11964TIP3   OH257306   0.440   3.888   3.503 -0.4970  0.4323  0.4307
11964TIP3    H157307   0.413   3.978   3.484  0.1480  0.7317  0.8776
11964TIP3    H257308   0.511   3.898   3.566  1.7538 -0.2166 -1.8280
11965TIP3   OH257309   5.997   3.747   4.164  0.1517  0.3370  0.2196
11965TIP3    H157310   6.058   3.683   4.200 -1.7775 -1.6143  0.2224
11965TIP3    H257311   5.993   3.727   4.071 -0.3609  0.5471  0.1941
11966TIP3   OH257312   2.009   0.290   6.605  0.1953  0.3442  0.4917
11966TIP3    H157313   1.974   0.225   6.665 -0.1984  0.2932  0.2059
11966TIP3    H257314   2.056   0.239   6.539  1.1172  0.4264  1.0597
11967TIP3   OH257315   4.829   2.829   1.816  0.5224 -0.0318  1.1249
11967TIP3    H157316   4.814   2.912   1.772 -1.6371 -1.4902 -1.1727
11967TIP3    H257317   4.922   2.810   1.802  0.7593  1.4031  0.6407
11968TIP3   OH257318   0.219   6.638  13.541  0.2027  0.0688 -0.1053
11968TIP3    H157319   0.222   6.565  13.479 -1.8294 -1.2335  1.2181
11968TIP3    H257320   0.161   6.702  13.500 -1.0727 -0.7544  0.3541
11969TIP3   OH257321   5.975   3.145   0.407 -0.0857  0.2889 -0.0378
11969TIP3    H157322   5.973   3.051   0.423 -1.2564  0.1896 -0.6710
11969TIP3    H257323   6.067   3.164   0.387 -0.2146 -1.1836 -2.3994
11970TIP3   OH257324   0.197   3.868  14.276  0.4123 -0.0271 -0.3446
11970TIP3    H157325   0.145   3.788  14.274  3.5338 -2.3692  1.8228
11970TIP3    H257326   0.196   3.895  14.368  2.4093  0.2354 -0.3588
11971TIP3   OH257327   2.141   0.043  12.180 -0.5835 -0.3087 -0.3091
11971TIP3    H157328   2.101   0.098  12.247 -0.4337  0.3491 -0.7381
11971TIP3    H257329   2.112   0.083  12.097  0.1107 -0.4451 -0.6237
11972TIP3   OH257330   3.496   5.547  13.920 -0.1980  0.2199 -0.4396
11972TIP3    H157331   3.418   5.494  13.932 -1.7520  2.3577 -0.4548
11972TIP3    H257332   3.507   5.592  14.004  2.6335 -1.9330  0.4908
11973TIP3   OH257333   0.477   1.313  15.729  0.3200  0.4291  0.4152
11973TIP3    H157334   0.453   1.222  15.748  3.5495 -0.1784  2.3600
11973TIP3    H257335   0.568   1.308  15.700  1.4868  3.1959  3.1227
11974TIP3   OH257336   0.722   5.666  15.174 -0.0036  0.4338  0.5372
11974TIP3    H157337   0.786   5.701  15.236  0.5528  3.0348 -1.2999
11974TIP3    H257338   0.771   5.601  15.123 -0.3951 -1.5168  2.5195
11975TIP3   OH257339   0.909   3.360   3.972 -0.3647  0.5531 -0.2474
11975TIP3    H157340   0.922   3.279   3.923  0.7927  0.7031 -0.2081
11975TIP3    H257341   0.870   3.420   3.908  1.7851  0.9761 -1.2522
11976TIP3   OH257342   3.734   1.540  13.399  0.0072  0.2336 -0.0813
11976TIP3    H157343   3.702   1.475  13.462 -0.3781  2.5067  2.2027
11976TIP3    H257344   3.656   1.593  13.379  0.1231 -0.4168 -2.5507
11977TIP3   OH257345   5.574   6.444  12.927 -0.4794  0.3494  0.3090
11977TIP3    H157346   5.571   6.529  12.971 -1.7988  0.6934 -0.3805
11977TIP3    H257347   5.488   6.435  12.886 -0.2286 -1.1536  0.0397
11978TIP3   OH257348   5.018   4.310  14.047  0.2159 -0.0806  0.3680
11978TIP3    H157349   4.991   4.268  14.129  0.5242  0.1179  0.5762
11978TIP3    H257350   5.081   4.250  14.009 -0.2675 -0.3897  0.0436
11979TIP3   OH257351   6.609   3.714   3.098  0.2790 -0.0451  0.1996
11979TIP3    H157352   6.686   3.694   3.151  0.3946 -1.2848 -0.4098
11979TIP3    H257353   6.568   3.789   3.142  1.6820  0.4760  0.6707
11980TIP3   OH257354   4.871   2.903  16.122 -0.6128  0.5347 -0.7863
11980TIP3    H157355   4.782   2.900  16.159  0.0956  1.1090  1.0493
11980TIP3    H257356   4.894   2.811  16.108 -0.9511  0.3102  0.1035
11981TIP3   OH257357   3.852   0.142   0.044 -0.0316  0.4885 -0.4782
11981TIP3    H157358   3.766   0.181   0.060  0.4337  0.5379  2.3288
11981TIP3    H257359   3.913   0.215   0.053  0.4880 -0.0175  0.1253
11982TIP3   OH257360   5.159   2.837  15.715 -0.0947 -1.1374  0.3899
11982TIP3    H157361   5.204   2.756  15.737 -1.7080 -2.2241 -0.1372
11982TIP3    H257362   5.110   2.860  15.794  0.5406 -0.5342  0.6162
11983TIP3   OH257363   1.187   5.266  13.999  0.0582 -0.3056 -0.1973
11983TIP3    H157364   1.228   5.221  13.925  0.6010  0.3373 -0.2942
11983TIP3    H257365   1.256   5.322  14.034 -0.3215 -0.2894  0.5388
11984TIP3   OH257366   5.915   4.016  15.411  0.1315  0.1662 -0.2392
11984TIP3    H157367   5.895   4.035  15.503  0.3017  1.3791 -0.4379
11984TIP3    H257368   5.972   4.088  15.384  2.7578 -1.8375 -0.4148
11985TIP3   OH257369   2.000   0.970  16.508 -0.5643 -0.0748 -0.2485
11985TIP3    H157370   2.053   0.924  16.573 -1.0113 -0.5826 -0.2339
11985TIP3    H257371   1.910   0.940  16.525 -0.7685  0.2814 -0.6807
11986TIP3   OH257372   5.608   3.408   1.136 -0.0864 -0.2032  0.1727
11986TIP3    H157373   5.578   3.491   1.099 -0.0034 -0.5435 -0.6774
11986TIP3    H257374   5.596   3.345   1.065  2.8991 -0.3373 -0.3461
11987TIP3   OH257375   5.275   0.790   4.489 -0.2088 -0.0118  0.4323
11987TIP3    H157376   5.361   0.768   4.453 -0.9329 -1.4631 -0.5578
11987TIP3    H257377   5.262   0.726   4.559 -0.6533 -0.0918  0.2795
11988TIP3   OH257378   1.211   5.154  16.879 -0.1150 -0.0633 -0.3936
11988TIP3    H157379   1.235   5.247  16.873  0.2258 -0.1929 -1.1751
11988TIP3    H257380   1.269   5.119  16.946  0.7110  0.0066 -1.0494
11989TIP3   OH257381   0.031   6.232   4.199 -0.6161  0.3096 -0.0310
11989TIP3    H157382   0.009   6.192   4.115 -1.1340  0.7619 -0.1078
11989TIP3    H257383   0.029   6.326   4.183  0.4159  0.3897  0.2025
11990TIP3   OH257384   4.809   3.213  12.284  0.4765 -0.0316  0.5506
11990TIP3    H157385   4.812   3.119  12.297 -1.5105 -0.2258  0.0051
11990TIP3    H257386   4.872   3.230  12.214  0.6001 -1.0035  0.4213
11991TIP3   OH257387   2.816   3.696   4.065 -0.0950 -0.4772 -0.1183
11991TIP3    H157388   2.850   3.733   3.984  0.0666  0.7246  0.4814
11991TIP3    H257389   2.775   3.613   4.039 -1.4109  0.6161 -1.6652
11992TIP3   OH257390   2.601   5.587   3.059 -0.4454  0.6454 -0.0655
11992TIP3    H157391   2.681   5.631   3.031 -0.4553 -0.0410 -1.2501
11992TIP3    H257392   2.577   5.531   2.985 -0.8055 -0.8207  1.0875
11993TIP3   OH257393   0.397   5.168  13.973 -0.4618 -0.6371 -0.1924
11993TIP3    H157394   0.374   5.139  14.061 -0.9572 -0.4473 -0.2554
11993TIP3    H257395   0.415   5.087  13.925  3.2996 -0.6572  0.9788
11994TIP3   OH257396   4.524   2.165  13.387 -0.3702 -0.1000  0.3428
11994TIP3    H157397   4.546   2.137  13.299 -0.1440  0.3487  0.2516
11994TIP3    H257398   4.608   2.193  13.425 -0.7626  1.7384 -0.0479
11995TIP3   OH257399   0.748   5.813   2.585  0.4780  0.5767 -0.1303
11995TIP3    H157400   0.829   5.762   2.585 -0.1040 -0.3814  0.9146
11995TIP3    H257401   0.773   5.900   2.617  1.5528  1.1384 -2.2986
11996TIP3   OH257402   2.552   5.945   5.223  0.2473 -0.0433  0.2005
11996TIP3    H157403   2.605   6.024   5.238  0.4560 -0.2170  0.3938
11996TIP3    H257404   2.562   5.928   5.129 -0.1150  0.3808  0.0796
11997TIP3   OH257405   5.801   4.448  13.688 -0.1529 -0.2473 -0.1080
11997TIP3    H157406   5.875   4.465  13.630 -1.8769  1.9945 -1.8044
11997TIP3    H257407   5.840   4.442  13.775  2.0802  0.2355 -1.0126
11998TIP3   OH257408   5.992   6.666  16.409 -0.4740 -0.0708 -0.1888
11998TIP3    H157409   5.952   6.615  16.480 -0.1524 -0.6183 -0.3971
11998TIP3    H257410   5.918   6.710  16.367 -0.6548  0.3756  0.5695
11999TIP3   OH257411   5.648   4.989  16.186  0.1343  0.0997  0.4331
11999TIP3    H157412   5.556   4.984  16.160  0.1096  1.4490  0.1894
11999TIP3    H257413   5.662   4.912  16.241 -0.7417 -0.9182 -0.7251
12000TIP3   OH257414   1.960   5.175   1.653  0.3332  0.2055  0.3603
12000TIP3    H157415   2.039   5.191   1.602  0.3334  1.1948  0.6575
12000TIP3    H257416   1.888   5.192   1.592  0.2699 -2.8150 -0.5964
12001TIP3   OH257417   5.432   4.786  16.379  0.9181  0.3016 -0.0390
12001TIP3    H157418   5.463   4.762  16.291  1.9668  0.9827  0.1231
12001TIP3    H257419   5.338   4.799  16.368  0.9876  0.1159 -1.0089
12002TIP3   OH257420   4.251   2.978  10.347 -0.6708 -0.0586  0.3687
12002TIP3    H157421   4.172   3.022  10.316 -0.4200 -1.4906 -2.6179
12002TIP3    H257422   4.316   3.048  10.355 -1.6741  0.8370  0.8691
12003TIP3   OH257423   2.252   1.692  12.087  0.0546 -0.2298 -0.1039
12003TIP3    H157424   2.158   1.673  12.079  0.0903  0.0055 -1.2568
12003TIP3    H257425   2.274   1.666  12.176 -1.3051  0.6007  0.5077
12004TIP3   OH257426   4.628   2.310  11.738  0.2868  0.5337 -0.5452
12004TIP3    H157427   4.625   2.349  11.650  0.4773  3.3090  0.5879
12004TIP3    H257428   4.552   2.347  11.783  0.6873 -0.1693  0.7412
12005TIP3   OH257429   5.889   0.482   2.361  0.3016  0.0914  0.0099
12005TIP3    H157430   5.832   0.509   2.289 -1.1993 -1.8169  0.4153
12005TIP3    H257431   5.973   0.463   2.319 -0.3337 -0.2882 -1.1289
12006TIP3   OH257432   3.230   2.789   5.967  0.4888 -0.0839 -0.9041
12006TIP3    H157433   3.140   2.817   5.985  0.4639  1.0627 -2.5803
12006TIP3    H257434   3.233   2.698   5.995 -0.5141  0.5095  1.3362
12007TIP3   OH257435   1.928   4.827  11.456  0.6990  0.1277 -0.5074
12007TIP3    H157436   1.927   4.915  11.418 -1.8747 -0.6439 -2.4702
12007TIP3    H257437   1.837   4.800  11.456  0.9143 -1.2598  3.4083
12008TIP3   OH257438   6.648   4.540   3.643 -0.0322 -0.0793 -0.7958
12008TIP3    H157439   6.627   4.613   3.584 -0.7804  1.2910  1.0907
12008TIP3    H257440   6.570   4.528   3.696  0.2492 -1.9844 -0.7481
12009TIP3   OH257441   2.731   0.743   1.074  0.6098  0.5708  0.0735
12009TIP3    H157442   2.696   0.823   1.112 -1.2165 -0.4257  0.5984
12009TIP3    H257443   2.716   0.676   1.140  0.5682 -0.5265 -1.0133
12010TIP3   OH257444   3.398   5.887   5.571 -0.0899  0.0794 -0.1839
12010TIP3    H157445   3.389   5.809   5.516  0.7021 -0.9779  1.1020
12010TIP3    H257446   3.320   5.939   5.553  0.0688 -0.2771 -2.1660
12011TIP3   OH257447   4.830   2.242  13.802 -0.6011 -0.0617  0.2139
12011TIP3    H157448   4.844   2.335  13.819  0.7251 -0.4049  1.2601
12011TIP3    H257449   4.918   2.208  13.784 -1.0104 -1.1900  0.2720
12012TIP3   OH257450   6.693   6.304  15.559  0.2697  0.0901  0.0975
12012TIP3    H157451   6.732   6.345  15.636 -0.6456  0.2399  0.4973
12012TIP3    H257452   6.646   6.375  15.515 -0.1774 -0.2366  0.0408
12013TIP3   OH257453   3.083   6.441   2.323  0.3280 -0.5082 -0.3865
12013TIP3    H157454   3.040   6.398   2.397  3.1580  0.8094  2.2588
12013TIP3    H257455   3.016   6.498   2.285 -0.5616  1.1959  3.2773
12014TIP3   OH257456   1.409   1.198  10.634  0.4465  0.3219 -0.0667
12014TIP3    H157457   1.375   1.198  10.724  0.2978  1.1986 -0.1197
12014TIP3    H257458   1.502   1.219  10.644  0.8862 -1.5092  0.0296
12015TIP3   OH257459   3.369   4.593  10.967 -0.8145 -0.7095  0.1645
12015TIP3    H157460   3.278   4.613  10.947 -1.1281  0.5592  2.4644
12015TIP3    H257461   3.418   4.671  10.940 -1.1948  0.8589  3.4932
12016TIP3   OH257462   6.515   6.508  12.255  0.3365  0.2720  0.3838
12016TIP3    H157463   6.552   6.556  12.329 -0.4811  0.3548  0.7502
12016TIP3    H257464   6.547   6.554  12.178  1.1849  0.1956  0.6801
12017TIP3   OH257465   0.085   2.287   1.257  0.2707 -0.0025  0.3306
12017TIP3    H157466   0.075   2.380   1.236 -1.2997  0.1272  1.4575
12017TIP3    H257467   0.142   2.253   1.188  0.9010  1.7882 -0.0931
12018TIP3   OH257468   6.242   3.655  17.130  0.0257  0.3122  0.6767
12018TIP3    H157469   6.303   3.614  17.069 -0.1855  1.3605 -0.2677
12018TIP3    H257470   6.265   3.619  17.216  0.6548 -0.8019  0.0546
12019TIP3   OH257471   5.966   5.080   1.002  0.0523  0.0632 -0.9437
12019TIP3    H157472   5.946   5.067   1.094 -2.1598 -2.1942 -1.6351
12019TIP3    H257473   5.949   5.174   0.987 -2.3262 -0.0575  0.4060
12020TIP3   OH257474   1.827   1.074   3.218  0.1443 -0.0679 -0.2640
12020TIP3    H157475   1.768   1.076   3.143 -1.8392 -0.8071  1.1740
12020TIP3    H257476   1.818   1.161   3.258 -1.0155 -0.5817  0.6606
12021TIP3   OH257477   4.207   6.408  16.077 -0.6544  0.2701  0.0691
12021TIP3    H157478   4.158   6.334  16.041 -0.7389  0.5442 -0.3957
12021TIP3    H257479   4.148   6.483  16.066 -0.7926  0.3181  1.0388
12022TIP3   OH257480   4.879   6.086  16.390  0.3827 -0.1029 -0.1070
12022TIP3    H157481   4.965   6.091  16.432  0.6912 -1.9972 -0.4298
12022TIP3    H257482   4.889   6.138  16.310  0.7540  0.9340  0.5963
12023TIP3   OH257483   4.032   6.488   5.505  0.6290 -0.2651  0.1590
12023TIP3    H157484   4.001   6.400   5.524  0.5080 -0.1004  0.7527
12023TIP3    H257485   4.095   6.477   5.434 -1.1269 -0.5518 -1.4317
12024TIP3   OH257486   6.186   2.284   0.381 -0.2263 -0.0240  0.3927
12024TIP3    H157487   6.210   2.367   0.422  0.2752 -1.3085  2.8818
12024TIP3    H257488   6.099   2.265   0.415  0.5180 -1.5002  1.5580
12025TIP3   OH257489   1.343   1.921  12.878 -0.3818  0.1659  0.3043
12025TIP3    H157490   1.414   1.985  12.887 -0.4554  0.1090  1.3273
12025TIP3    H257491   1.291   1.953  12.805  2.4547 -1.4610 -2.7257
12026TIP3   OH257492   2.871   0.608  15.177 -0.1021 -0.1097 -0.4277
12026TIP3    H157493   2.915   0.691  15.161 -1.1073  0.6491  0.5801
12026TIP3    H257494   2.812   0.626  15.250 -1.8916 -1.1242 -1.5417
12027TIP3   OH257495   2.171   4.741   3.711  0.0666 -1.2458  0.2129
12027TIP3    H157496   2.078   4.722   3.694 -0.0951  0.1265 -0.6167
12027TIP3    H257497   2.200   4.789   3.633  0.3285  2.0435  2.1518
12028TIP3   OH257498   2.245   5.533   3.330 -0.1835  0.2941 -0.1956
12028TIP3    H157499   2.204   5.619   3.316 -0.6058 -0.0989 -1.5333
12028TIP3    H257500   2.323   5.552   3.381 -0.1024  1.5312 -0.7356
12029TIP3   OH257501   1.489   1.204   1.531  0.3916  0.1380 -0.6367
12029TIP3    H157502   1.423   1.262   1.566  1.6078  3.3780 -3.2170
12029TIP3    H257503   1.452   1.171   1.449  0.5294 -1.1805 -0.2023
12030TIP3   OH257504   3.377   1.207   2.010 -0.4345 -0.4174  0.1455
12030TIP3    H157505   3.322   1.140   2.050  0.3215 -2.4341 -1.9782
12030TIP3    H257506   3.378   1.185   1.917 -1.1609  3.3150 -0.9404
12031TIP3   OH257507   6.322   5.641   2.986  0.6522 -0.7731  0.6664
12031TIP3    H157508   6.301   5.626   2.894  1.1578 -1.2900  0.6263
12031TIP3    H257509   6.369   5.724   2.987 -0.5950 -0.0453  0.6504
12032TIP3   OH257510   6.770   0.197   4.938  0.0091 -0.0695  0.7292
12032TIP3    H157511   6.837   0.217   5.003  2.0116  0.7540 -1.4430
12032TIP3    H257512   6.815   0.146   4.871 -0.9588  2.0792 -1.7487
12033TIP3   OH257513   1.972   6.762   4.557  0.2324 -0.2468 -0.5092
12033TIP3    H157514   1.926   6.816   4.493 -1.3178  0.8706  1.4091
12033TIP3    H257515   1.954   6.672   4.532 -1.2537  0.1768 -1.0291
12034TIP3   OH257516   1.148   3.949   3.385  0.1073  0.2034 -0.7404
12034TIP3    H157517   1.082   3.961   3.453 -1.0363  0.0874 -1.8041
12034TIP3    H257518   1.161   3.855   3.380  0.2258  0.2149 -0.6577
12035TIP3   OH257519   3.403   5.778   4.427  0.6271  0.0436  0.2339
12035TIP3    H157520   3.414   5.796   4.520 -1.0779  1.4839  0.2222
12035TIP3    H257521   3.339   5.707   4.424  1.9083 -1.1389  0.1565
12036TIP3   OH257522   2.143   6.220  10.956 -0.3804  0.2938  0.8237
12036TIP3    H157523   2.132   6.176  10.872  1.7155 -3.1598  2.1339
12036TIP3    H257524   2.196   6.297  10.935 -0.1220 -0.3345 -1.0465
12037TIP3   OH257525   0.749   2.562  15.788 -0.0119 -0.4351 -0.3479
12037TIP3    H157526   0.817   2.565  15.855 -0.0409 -0.1049 -0.3276
12037TIP3    H257527   0.790   2.602  15.711 -0.1966 -0.1880 -0.3205
12038TIP3   OH257528   3.597   1.962   0.427  0.4765 -0.1708 -0.3581
12038TIP3    H157529   3.582   1.900   0.356  1.3532 -0.9370  0.0932
12038TIP3    H257530   3.592   1.909   0.506  3.5327 -0.1973 -0.0651
12039TIP3   OH257531   1.218   0.278  16.916  0.0413  0.5341  0.5938
12039TIP3    H157532   1.193   0.230  16.837 -0.5205  0.6534  0.6972
12039TIP3    H257533   1.289   0.226  16.955 -0.6000 -0.2402  0.7348
12040TIP3   OH257534   5.779   3.794  13.023 -0.1013  0.4050  0.2647
12040TIP3    H157535   5.728   3.714  13.036 -0.2678  0.5897  0.7851
12040TIP3    H257536   5.829   3.779  12.943  0.7152 -0.6589  0.9537
12041TIP3   OH257537   0.603   0.573   6.199  0.1810 -0.4274  0.3913
12041TIP3    H157538   0.544   0.629   6.250  0.3313 -0.5872  0.7381
12041TIP3    H257539   0.595   0.607   6.109 -0.1576 -0.2108  0.4989
12042TIP3   OH257540   4.589   6.711  12.732 -0.1034 -0.1510  0.1786
12042TIP3    H157541   4.608   6.617  12.731 -1.1454 -0.4001 -2.3293
12042TIP3    H257542   4.589   6.734  12.825  1.5691 -2.3081  0.8050
12043TIP3   OH257543   1.482   2.089   2.982  0.1140 -0.1171 -0.4484
12043TIP3    H157544   1.471   2.175   2.944  1.0378  0.0706 -0.3165
12043TIP3    H257545   1.576   2.082   2.999  0.7315 -2.5146 -3.7336
12044TIP3   OH257546   2.578   1.323   6.568 -0.0934  0.1163 -0.3357
12044TIP3    H157547   2.546   1.377   6.496  0.8005  2.7041  1.0553
12044TIP3    H257548   2.551   1.370   6.647  2.6865 -0.2071  0.9407
12045TIP3   OH257549   6.635   2.117  16.304 -0.1987  0.3197 -0.2124
12045TIP3    H157550   6.551   2.075  16.317 -0.8783  2.0105  1.1249
12045TIP3    H257551   6.699   2.048  16.322 -1.2612 -0.2469  1.6222
12046TIP3   OH257552   0.150   5.224   4.329  0.1886 -0.2288  0.0503
12046TIP3    H157553   0.086   5.296   4.332 -3.2644 -2.9599 -1.2313
12046TIP3    H257554   0.163   5.208   4.235  1.9925 -0.4618  0.3066
12047TIP3   OH257555   6.029   0.124   0.747 -0.3228 -0.4504  0.5858
12047TIP3    H157556   6.000   0.075   0.669  2.2142 -1.5480  0.2284
12047TIP3    H257557   6.059   0.208   0.712  0.6090 -0.8589  0.3606
12048TIP3   OH257558   2.298   6.095  12.779 -0.2104 -0.2132  0.2314
12048TIP3    H157559   2.313   6.175  12.829 -0.9822  0.3115 -0.3574
12048TIP3    H257560   2.302   6.122  12.688 -0.1963 -0.8993  0.0240
12049TIP3   OH257561   1.773   1.613  17.077 -0.3257  0.2573 -0.3586
12049TIP3    H157562   1.737   1.649  17.159  0.0491 -1.7415  0.7541
12049TIP3    H257563   1.868   1.615  17.089 -0.2808 -0.4443 -0.5546
12050TIP3   OH257564   1.747   1.153  13.960 -0.0466 -0.4935 -0.3518
12050TIP3    H157565   1.840   1.159  13.981  0.8674 -0.1391 -3.7806
12050TIP3    H257566   1.710   1.236  13.992  1.2188  0.1386 -0.4600
12051TIP3   OH257567   1.692   4.315   1.936  0.2663  0.1549 -0.1563
12051TIP3    H157568   1.602   4.341   1.954  0.2429 -0.8295  1.2827
12051TIP3    H257569   1.744   4.356   2.005  0.7090 -0.5183 -0.0788
12052TIP3   OH257570   5.992   3.600   0.391  0.4969  0.0074  0.0603
12052TIP3    H157571   5.913   3.653   0.400 -0.2986 -0.8069 -1.7067
12052TIP3    H257572   6.061   3.664   0.373  0.7464  0.9375  3.6264
12053TIP3   OH257573   4.586   0.327   5.141  0.1582 -0.8093  0.1840
12053TIP3    H157574   4.542   0.398   5.093 -0.2734 -0.5330  0.9613
12053TIP3    H257575   4.675   0.328   5.108  0.1264  0.0310  0.0847
12054TIP3   OH257576   1.047   0.163  16.286 -0.2553 -0.2901  0.1984
12054TIP3    H157577   1.001   0.116  16.355  0.0082  0.1384  0.6721
12054TIP3    H257578   1.000   0.140  16.206 -1.3982  0.2828  0.6900
12055TIP3   OH257579   0.037   0.027   0.942 -0.2542 -0.2745  0.8551
12055TIP3    H157580   0.010   0.098   0.883 -0.8316  0.7847  2.3349
12055TIP3    H257581  -0.020  -0.046   0.919  0.2098 -0.2270 -0.5599
12056TIP3   OH257582   6.244   6.245  14.966  0.4064 -0.1140 -0.2121
12056TIP3    H157583   6.281   6.201  15.043 -0.5367 -1.2594 -0.3754
12056TIP3    H257584   6.163   6.285  14.997  0.7386  0.6439 -0.3019
12057TIP3   OH257585   3.827   1.868  10.911 -0.3753  0.1336 -0.3451
12057TIP3    H157586   3.804   1.853  11.003 -2.0590  0.5471 -0.6763
12057TIP3    H257587   3.771   1.941  10.884  1.6072  1.4659 -1.1210
12058TIP3   OH257588   6.573   0.054  14.158  0.3373 -0.2738 -0.4926
12058TIP3    H157589   6.619   0.093  14.084  0.4400  1.0462  0.2304
12058TIP3    H257590   6.481   0.052  14.132  0.0871  1.9901  0.0380
12059TIP3   OH257591   1.616   4.017   0.014 -0.4933  0.0955 -0.1794
12059TIP3    H157592   1.668   4.013   0.095  0.2620  3.1101 -0.3978
12059TIP3    H257593   1.526   4.005   0.043 -0.2659  1.4030  1.1953
12060TIP3   OH257594   0.068   2.196  10.802  0.1681  0.2370 -0.3622
12060TIP3    H157595  -0.013   2.149  10.784 -0.0194  0.6558 -0.6144
12060TIP3    H257596   0.136   2.128  10.804 -0.1808 -0.1063 -0.1923
12061TIP3   OH257597   1.570   6.664  11.111  0.2332 -0.3755 -0.3329
12061TIP3    H157598   1.502   6.730  11.095  0.5360 -0.0455 -0.2676
12061TIP3    H257599   1.523   6.581  11.111 -0.2157 -0.1278 -0.0306
12062TIP3   OH257600   6.537   5.803  11.476  0.2680  0.7621 -0.0560
12062TIP3    H157601   6.461   5.815  11.534  0.6849  0.1216  0.6440
12062TIP3    H257602   6.505   5.828  11.390 -0.7765  0.4092  0.2075
12063TIP3   OH257603   3.485   4.590  15.121  0.0105  0.2778 -0.3479
12063TIP3    H157604   3.532   4.661  15.165  1.4050  1.3628 -3.3687
12063TIP3    H257605   3.395   4.623  15.114  0.0470  0.6092  0.5311
12064TIP3   OH257606   4.487   0.056   2.697 -0.1011 -0.5836 -0.0520
12064TIP3    H157607   4.402   0.017   2.677 -0.5974  0.3800  0.1372
12064TIP3    H257608   4.495   0.050   2.792 -0.6328  0.6579  0.0872
12065TIP3   OH257609   3.359   3.162  14.476 -0.1751 -0.3887  0.2661
12065TIP3    H157610   3.304   3.194  14.548 -2.8609 -2.5265 -0.6279
12065TIP3    H257611   3.433   3.119  14.520 -0.8030 -0.0797  1.6878
12066TIP3   OH257612   2.204   1.021  15.363 -0.6184  0.1229 -0.5074
12066TIP3    H157613   2.241   1.080  15.298 -1.7097  1.4168  0.0077
12066TIP3    H257614   2.111   1.041  15.365 -0.3849  1.5944  2.8311
12067TIP3   OH257615   4.255   0.174  11.629  0.1201  0.3135  0.2549
12067TIP3    H157616   4.261   0.097  11.686  0.7087 -0.9945 -1.4880
12067TIP3    H257617   4.165   0.173  11.596  0.6970 -0.8711 -1.3733
12068TIP3   OH257618   3.625   3.232   5.752  0.2312  0.4329  0.3426
12068TIP3    H157619   3.701   3.288   5.737 -2.1856  3.9592 -0.0317
12068TIP3    H257620   3.603   3.246   5.844 -2.5597  3.3853 -0.5902
12069TIP3   OH257621   4.579   3.829   2.931  0.0935  0.6606 -0.0501
12069TIP3    H157622   4.525   3.863   2.859  1.3382  1.7387 -0.5115
12069TIP3    H257623   4.582   3.900   2.994 -0.3511 -0.0041  0.7421
12070TIP3   OH257624   2.921   6.086  12.551 -0.0456 -0.1100  0.0335
12070TIP3    H157625   2.858   6.121  12.487  0.0944 -0.1618 -0.1312
12070TIP3    H257626   2.934   5.995  12.525  1.5496  0.4052 -1.0786
12071TIP3   OH257627   0.142   5.215  14.605 -0.0067  0.1458 -0.3516
12071TIP3    H157628   0.143   5.223  14.510 -0.8581  1.0720 -0.2989
12071TIP3    H257629   0.195   5.288  14.636  0.7372 -0.4786 -0.1135
12072TIP3   OH257630   2.042   3.154  13.134 -0.3091  0.3335  0.4998
12072TIP3    H157631   2.079   3.066  13.141  2.0241  1.1357 -0.8420
12072TIP3    H257632   2.082   3.191  13.056 -2.3092  2.1331  0.2459
12073TIP3   OH257633   5.806   2.650  15.088 -0.5462  0.4431 -0.6479
12073TIP3    H157634   5.760   2.671  15.169 -1.4885 -1.5549 -0.5901
12073TIP3    H257635   5.821   2.555  15.094  0.8999  0.5425 -2.0529
12074TIP3   OH257636   0.281   0.890  13.387  0.3803 -0.0402 -0.4301
12074TIP3    H157637   0.284   0.862  13.479  0.7420  0.2010 -0.3668
12074TIP3    H257638   0.339   0.829  13.342 -0.8965 -1.0606 -0.7501
12075TIP3   OH257639   1.265   1.444  16.434  0.1616  0.0774  0.6333
12075TIP3    H157640   1.273   1.365  16.487  3.3349 -0.1296  0.0760
12075TIP3    H257641   1.238   1.412  16.348 -1.7616  0.0414  1.2088
12076TIP3   OH257642   5.970   2.620  12.840 -0.3069  0.0374 -0.0834
12076TIP3    H157643   5.929   2.539  12.869  0.9334 -1.0872 -1.3136
12076TIP3    H257644   6.011   2.655  12.919 -1.4226 -0.1657  0.6016
12077TIP3   OH257645   2.295   0.181  13.445  0.0616 -0.4974  0.0368
12077TIP3    H157646   2.355   0.213  13.512 -1.6081  0.5463  1.1259
12077TIP3    H257647   2.320   0.090  13.431  0.8298 -0.5701  1.6807
12078TIP3   OH257648   4.071   3.358   4.961 -0.0516  0.5317  0.6062
12078TIP3    H157649   4.131   3.285   4.977 -1.3335 -0.3540  1.5320
12078TIP3    H257650   4.022   3.333   4.883  1.4524  1.7440 -0.8067
12079TIP3   OH257651   4.842   5.337   5.292 -0.3371  0.2911  0.1777
12079TIP3    H157652   4.779   5.386   5.239  0.0228 -0.1517 -0.6788
12079TIP3    H257653   4.841   5.249   5.254 -0.4001 -0.1602  1.2016
12080TIP3   OH257654   1.539   0.729   3.043  0.1643 -0.0032  0.1122
12080TIP3    H157655   1.612   0.756   3.099 -1.8153  0.0620  2.8004
12080TIP3    H257656   1.462   0.734   3.098 -1.6036 -2.4581 -1.8705
12081TIP3   OH257657   3.027   3.186  13.540 -0.1332  0.7601  0.3907
12081TIP3    H157658   3.076   3.105  13.551 -0.9115  0.4707  2.0008
12081TIP3    H257659   2.947   3.160  13.495 -0.4249  0.6090  0.9909
12082TIP3   OH257660   0.308   1.821   3.745 -0.4020  0.2547  0.2225
12082TIP3    H157661   0.318   1.890   3.680  0.4574 -0.1576 -0.0964
12082TIP3    H257662   0.247   1.858   3.810 -0.6445  0.9643 -0.3979
12083TIP3   OH257663   4.345   5.740   5.897  0.0432 -0.4565 -0.3782
12083TIP3    H157664   4.411   5.703   5.838 -0.5458 -1.6853 -0.3115
12083TIP3    H257665   4.343   5.680   5.972 -0.4464  0.1099  0.0768
12084TIP3   OH257666   6.519   2.690  16.501  0.4739 -0.0432 -0.0385
12084TIP3    H157667   6.530   2.603  16.539  1.2043 -0.0052 -0.1476
12084TIP3    H257668   6.489   2.673  16.411  1.8486 -0.2360 -0.4836
12085TIP3   OH257669   6.349   6.667   3.736 -0.6369 -0.5367 -0.5442
12085TIP3    H157670   6.279   6.673   3.672 -0.6977 -0.0669 -0.4348
12085TIP3    H257671   6.377   6.757   3.750  0.7008 -0.7809 -1.3771
12086TIP3   OH257672   4.050   2.656   2.544 -0.7295  0.3731  0.0283
12086TIP3    H157673   4.022   2.581   2.492  0.3708 -0.6801  0.9260
12086TIP3    H257674   4.143   2.665   2.526 -0.1899 -0.3500  2.1889
12087TIP3   OH257675   1.759   1.637  15.562 -0.2524  0.1659 -0.3495
12087TIP3    H157676   1.748   1.649  15.656  1.7646 -2.8864  0.3973
12087TIP3    H257677   1.851   1.654  15.546 -0.2271 -0.8587 -1.4494
12088TIP3   OH257678   0.235   6.438  13.340 -0.3639 -0.3606 -0.3822
12088TIP3    H157679   0.195   6.367  13.389 -1.0700 -0.8089 -1.5783
12088TIP3    H257680   0.172   6.459  13.271  0.0562  1.0871 -0.3651
12089TIP3   OH257681   1.023   5.105   0.002 -0.1302 -0.3074  0.8592
12089TIP3    H157682   1.096   5.144  -0.046 -1.2458 -0.6058 -1.1808
12089TIP3    H257683   1.056   5.019   0.029 -0.1653 -1.1112 -1.4183
12090TIP3   OH257684   4.439   3.917   4.126  0.1814 -0.4848  0.5923
12090TIP3    H157685   4.465   3.986   4.186 -0.3569  1.0380 -0.8608
12090TIP3    H257686   4.347   3.900   4.148  0.3145 -0.7842  0.9491
12091TIP3   OH257687   4.195   4.171  10.737  0.6592  0.1830 -0.1607
12091TIP3    H157688   4.148   4.171  10.820 -0.4745  0.6367 -0.7848
12091TIP3    H257689   4.219   4.079  10.723 -0.1045 -0.0672  0.1421
12092TIP3   OH257690   3.759   2.101  11.843 -0.3197  0.4279  0.0703
12092TIP3    H157691   3.810   2.172  11.804 -0.6063  0.3442 -0.4716
12092TIP3    H257692   3.705   2.069  11.771  0.1871 -0.6905  0.1681
12093TIP3   OH257693   0.026   3.480   1.871 -0.3222  0.6530  0.1505
12093TIP3    H157694  -0.027   3.470   1.950  1.2832 -0.9660  1.0916
12093TIP3    H257695  -0.025   3.540   1.815 -1.9256  1.1115  2.0035
12094TIP3   OH257696   6.659   5.800  12.204 -0.0832 -0.4031  0.1099
12094TIP3    H157697   6.658   5.717  12.252  0.5287 -1.2223 -1.2226
12094TIP3    H257698   6.615   5.780  12.121  0.0522  0.6100 -0.2176
12095TIP3   OH257699   0.542   5.895  13.862  0.0860  0.4521  0.8720
12095TIP3    H157700   0.540   5.819  13.920  0.8097 -1.0767 -0.9941
12095TIP3    H257701   0.545   5.970  13.921 -1.4426 -0.8941  2.8103
12096TIP3   OH257702   5.889   5.609   4.949  0.3003 -0.3637 -0.9302
12096TIP3    H157703   5.843   5.628   4.868  0.6823  0.4779 -0.9618
12096TIP3    H257704   5.981   5.630   4.930  0.2890  0.5708 -0.0703
12097TIP3   OH257705   6.261   3.800   1.068 -0.5595 -0.1077 -0.0317
12097TIP3    H157706   6.263   3.714   1.027 -0.3686 -1.0200  1.8074
12097TIP3    H257707   6.233   3.784   1.158  2.1256  1.3695  1.1933
12098TIP3   OH257708   4.406   1.060   5.581 -0.4663  0.3787 -0.1262
12098TIP3    H157709   4.457   0.987   5.548 -3.1580 -2.4051  1.3728
12098TIP3    H257710   4.373   1.104   5.503  0.7004 -0.3786 -1.0722
12099TIP3   OH257711   1.339   2.828   3.909  0.0264 -1.0102  0.2145
12099TIP3    H157712   1.320   2.886   3.835  1.2683 -0.0354  0.6227
12099TIP3    H257713   1.254   2.809   3.948 -0.3601  1.5138  0.7550
12100TIP3   OH257714   0.527   0.569   2.561 -0.3437  0.0385  0.1062
12100TIP3    H157715   0.528   0.517   2.481  0.5230 -0.3816  0.3805
12100TIP3    H257716   0.619   0.576   2.587 -0.7074 -1.4119  2.0584
12101TIP3   OH257717   1.638   4.096  16.416  0.2993 -0.5000  0.2941
12101TIP3    H157718   1.667   4.050  16.337  1.5560 -1.1808  1.1350
12101TIP3    H257719   1.652   4.189  16.397 -0.7905 -0.5296 -0.8162
12102TIP3   OH257720   4.955   3.565  12.177 -0.1161 -0.2717  0.1566
12102TIP3    H157721   5.050   3.574  12.177 -0.2366  1.4876 -0.3572
12102TIP3    H257722   4.929   3.591  12.088 -1.1159 -0.1361  0.4731
12103TIP3   OH257723   3.350   6.447  10.962  0.3674  0.4056  0.0986
12103TIP3    H157724   3.367   6.355  10.944 -0.1012  0.3564 -0.1112
12103TIP3    H257725   3.255   6.457  10.950  0.0892  0.4942  2.0515
12104TIP3   OH257726   3.342   1.205  15.876  0.3444  0.1820  0.7353
12104TIP3    H157727   3.275   1.272  15.881  1.2001  1.0456  1.0457
12104TIP3    H257728   3.295   1.123  15.886 -0.9100  0.6182 -1.0863
12105TIP3   OH257729   4.215   3.283   2.336  0.6288 -0.8878 -0.1933
12105TIP3    H157730   4.244   3.239   2.417 -0.7029 -1.9338 -0.2401
12105TIP3    H257731   4.177   3.366   2.366  2.1642 -0.2360  0.0143
12106TIP3   OH257732   4.104   6.111   1.887 -0.1349  0.4937  0.0109
12106TIP3    H157733   4.013   6.125   1.910 -0.7208 -3.9408  1.1934
12106TIP3    H257734   4.103   6.093   1.793 -0.3753  0.9546 -0.0769
12107TIP3   OH257735   4.685   2.312  15.181  0.2456 -0.3933  0.4320
12107TIP3    H157736   4.626   2.243  15.211 -0.3350 -0.0805  0.0344
12107TIP3    H257737   4.717   2.281  15.097  1.0789 -0.8077  0.8927
12108TIP3   OH257738   4.733   3.160  10.248 -0.6045 -0.8784  0.2613
12108TIP3    H157739   4.774   3.092  10.194 -2.5676 -1.2523 -0.8526
12108TIP3    H257740   4.795   3.233  10.247 -0.2751 -1.1335 -1.9733
12109TIP3   OH257741   1.394   4.375  16.459  0.2921 -0.1222  0.0559
12109TIP3    H157742   1.477   4.409  16.493  0.2867  0.8088 -0.7951
12109TIP3    H257743   1.392   4.404  16.367 -0.9669 -0.1244  0.0600
12110TIP3   OH257744   0.057   6.140  15.197  0.0793  0.1794 -0.0073
12110TIP3    H157745  -0.037   6.159  15.201 -0.0796 -0.4864 -0.3907
12110TIP3    H257746   0.091   6.201  15.131  0.2412  1.5985  1.3240
12111TIP3   OH257747   5.533   2.527   4.661 -0.0136  0.3495  0.4980
12111TIP3    H157748   5.506   2.441   4.693 -0.1716  1.0341  2.3683
12111TIP3    H257749   5.451   2.576   4.652  0.1510  0.6111  0.3972
12112TIP3   OH257750   0.014   5.140   0.480 -0.1450  0.0407  0.1789
12112TIP3    H157751  -0.079   5.158   0.467 -0.0616  0.2113 -0.2194
12112TIP3    H257752   0.018   5.047   0.500 -0.2920 -0.2956 -1.2074
12113TIP3   OH257753   0.773   3.531  11.136 -0.1945 -0.7231 -0.6290
12113TIP3    H157754   0.706   3.596  11.113  0.7907 -0.0614 -1.7516
12113TIP3    H257755   0.854   3.582  11.143  0.3196 -1.6128  0.0095
12114TIP3   OH257756   5.347   4.235  16.023  0.0375  0.5623 -0.1361
12114TIP3    H157757   5.373   4.196  15.939 -2.4773  1.8794 -1.6273
12114TIP3    H257758   5.288   4.171  16.062  3.1598 -1.2695  2.0533
12115TIP3   OH257759   2.377   1.905  15.179  0.0323 -0.7210  0.4473
12115TIP3    H157760   2.351   1.865  15.262  2.1453 -0.7053  1.1747
12115TIP3    H257761   2.456   1.857  15.152  0.0498  0.0325 -0.9629
12116TIP3   OH257762   0.324   4.320   5.046  0.0342  0.3100  0.3500
12116TIP3    H157763   0.287   4.348   4.963 -0.5578 -3.1819 -0.7393
12116TIP3    H257764   0.412   4.289   5.023  0.4059  0.6132  1.3156
12117TIP3   OH257765   2.911   6.586   5.811 -0.2172  0.9259  0.3018
12117TIP3    H157766   2.825   6.595   5.852 -0.9056  2.2279 -1.3333
12117TIP3    H257767   2.970   6.636   5.868 -0.3878 -0.3880  1.7120
12118TIP3   OH257768   6.627   5.028  11.977 -1.1591 -0.1311 -0.5570
12118TIP3    H157769   6.707   5.037  11.927 -0.8595 -0.2463 -0.1107
12118TIP3    H257770   6.589   5.116  11.981  0.0699  0.3758  1.0582
12119TIP3   OH257771   5.419   3.881  15.681  0.0435 -0.2447  0.0882
12119TIP3    H157772   5.396   3.790  15.700  0.7492 -0.1173  1.7410
12119TIP3    H257773   5.509   3.876  15.648 -0.9799 -0.4066 -3.0947
12120TIP3   OH257774   5.965   3.758  15.936  0.0012  0.4877 -0.0504
12120TIP3    H157775   5.953   3.781  16.028 -0.4205  0.2376 -0.0421
12120TIP3    H257776   6.041   3.699  15.935 -0.6240 -0.3432  0.2706
12121TIP3   OH257777   5.281   3.325   2.308  0.0466 -0.6081 -0.2859
12121TIP3    H157778   5.370   3.357   2.296 -0.7677  1.2452 -2.0017
12121TIP3    H257779   5.250   3.307   2.220 -1.5166 -0.4802  0.2031
12122TIP3   OH257780   2.968   3.496   3.827 -0.1949  0.0645  0.1076
12122TIP3    H157781   2.934   3.583   3.846 -2.7524 -1.2115  1.9220
12122TIP3    H257782   2.926   3.471   3.744  1.8629  1.0945 -1.3502
12123TIP3   OH257783   0.854   2.278  14.159  0.1707 -0.1713  0.0572
12123TIP3    H157784   0.870   2.264  14.252 -0.0054 -1.9185 -0.1543
12123TIP3    H257785   0.891   2.201  14.116  1.8705  1.3919 -1.5153
12124TIP3   OH257786   0.911   0.872   5.511  0.6033 -0.3342  0.4879
12124TIP3    H157787   0.903   0.927   5.589  0.4742  1.2069 -0.5544
12124TIP3    H257788   0.821   0.845   5.491  0.2709  1.3619 -0.5116
12125TIP3   OH257789   6.477   4.902   1.527 -0.9251  0.4675 -0.0585
12125TIP3    H157790   6.407   4.906   1.592 -1.3949 -2.0456 -0.3177
12125TIP3    H257791   6.466   4.817   1.484  2.2072 -0.0095 -0.1935
12126TIP3   OH257792   6.719   6.384  13.267 -0.5516  0.0707  0.1252
12126TIP3    H157793   6.675   6.300  13.282 -1.3700  0.4849  0.1208
12126TIP3    H257794   6.709   6.430  13.350 -1.9214  0.9557 -0.4874
12127TIP3   OH257795   5.627   3.201   0.960 -0.1462  0.7686 -0.1563
12127TIP3    H157796   5.637   3.128   1.022  0.6062  1.7632  0.9146
12127TIP3    H257797   5.713   3.241   0.955 -0.7390  2.1056 -0.0886
12128TIP3   OH257798   3.973   4.513   0.275 -0.2917 -0.3941 -0.0523
12128TIP3    H157799   4.069   4.511   0.274 -0.2031  0.2550  1.8958
12128TIP3    H257800   3.947   4.477   0.191  1.6866  0.8209 -1.2661
12129TIP3   OH257801   5.251   3.375  16.425  0.4942 -0.3509  0.0626
12129TIP3    H157802   5.165   3.404  16.457 -0.0602 -2.1065  0.2562
12129TIP3    H257803   5.280   3.311  16.488  1.6312 -0.3245 -0.4111
12130TIP3   OH257804   1.898   3.319  15.993 -0.1301  0.2279 -0.2606
12130TIP3    H157805   1.968   3.353  16.050 -0.7054  1.1357 -0.0657
12130TIP3    H257806   1.938   3.313  15.907  0.4117 -0.0107  0.0032
12131TIP3   OH257807   4.102   6.436  16.459 -0.3747  0.1400 -0.2352
12131TIP3    H157808   4.031   6.497  16.440 -0.9467 -0.0584  1.1506
12131TIP3    H257809   4.181   6.491  16.461 -0.7379  0.6669 -0.0365
12132TIP3   OH257810   5.052   4.076  11.275 -0.6603  0.3300 -0.2917
12132TIP3    H157811   5.071   4.168  11.291  2.1770 -0.1661 -0.3502
12132TIP3    H257812   5.103   4.029  11.341 -0.6373 -1.2733 -1.3917
12133TIP3   OH257813   1.027   6.653   1.122  0.3352 -0.3785  0.2796
12133TIP3    H157814   0.969   6.577   1.116  0.3878 -0.3350 -1.1049
12133TIP3    H257815   1.003   6.707   1.047  2.1315 -0.3393 -0.3156
12134TIP3   OH257816   4.687   5.845  14.276 -0.1315 -0.5343  0.3093
12134TIP3    H157817   4.656   5.931  14.247 -0.8302 -0.8513  0.0863
12134TIP3    H257818   4.765   5.864  14.328 -0.0007  0.1994 -0.1315
12135TIP3   OH257819   2.225   2.915  14.338 -0.5684  0.5149  0.2649
12135TIP3    H157820   2.183   2.972  14.273  1.4306  1.4413 -0.2699
12135TIP3    H257821   2.290   2.866  14.288  0.1503  0.3251  1.3621
12136TIP3   OH257822   4.102   0.586   6.256  0.0860 -0.2640  0.6706
12136TIP3    H157823   4.075   0.537   6.334  0.1426 -0.5817  0.4929
12136TIP3    H257824   4.036   0.655   6.247 -0.1172 -0.4413  0.7967
12137TIP3   OH257825   4.949   5.730   5.632  0.2305 -0.1212 -0.4461
12137TIP3    H157826   4.855   5.729   5.613 -0.3719  0.6873  2.0439
12137TIP3    H257827   4.961   5.657   5.693  1.0661  0.2354 -0.1745
12138TIP3   OH257828   3.399   2.029  15.821  0.0274  0.3040 -0.4324
12138TIP3    H157829   3.474   2.060  15.871  0.6398 -0.5904 -0.7637
12138TIP3    H257830   3.352   2.108  15.796  0.5724  0.8455  0.2321
12139TIP3   OH257831   5.994   3.245  11.102  0.4835 -0.0904  0.4536
12139TIP3    H157832   6.074   3.223  11.150  0.7438  2.9469  1.6300
12139TIP3    H257833   6.025   3.288  11.022 -0.0196 -1.5421 -0.5817
12140TIP3   OH257834   5.259   6.276  14.480  0.2338  0.3558  0.2606
12140TIP3    H157835   5.257   6.371  14.475 -1.8451  0.3016 -1.2370
12140TIP3    H257836   5.334   6.251  14.425 -1.1165  1.0959 -2.0757
12141TIP3   OH257837   0.741   6.239  11.421 -0.2076  0.5372 -0.0016
12141TIP3    H157838   0.760   6.146  11.412 -1.1284  0.4232 -0.9633
12141TIP3    H257839   0.777   6.279  11.341 -0.9958  0.8059 -0.2285
12142TIP3   OH257840   1.979   3.627  11.962  0.0408 -0.4531  0.2722
12142TIP3    H157841   1.910   3.579  11.917  0.0274  0.1429 -0.3658
12142TIP3    H257842   1.933   3.699  12.006  0.2058 -0.2465  0.1125
12143TIP3   OH257843   0.868   4.708  10.937  0.1595 -0.0444 -0.4164
12143TIP3    H157844   0.849   4.656  11.015 -2.5421  3.0094  1.2162
12143TIP3    H257845   0.782   4.722  10.897  0.1971  4.8064  0.5762
12144TIP3   OH257846   4.298   4.303  11.849  0.4959  0.0320  0.4999
12144TIP3    H157847   4.339   4.385  11.822  0.0307  0.4927  1.1645
12144TIP3    H257848   4.241   4.327  11.922  2.3894 -1.3120  2.5458
12145TIP3   OH257849   1.783   4.373   6.275 -0.2113 -0.2159 -0.3407
12145TIP3    H157850   1.727   4.398   6.202  1.2079  3.0574 -0.4827
12145TIP3    H257851   1.761   4.435   6.345  2.6542  0.7807 -0.1818
12146TIP3   OH257852   4.459   4.360  11.512 -0.3667  0.4313 -0.0231
12146TIP3    H157853   4.507   4.277  11.513  0.8775  1.1197  0.5874
12146TIP3    H257854   4.525   4.425  11.487 -1.1165  1.3579  0.3450
12147TIP3   OH257855   2.987   2.521  17.013 -0.6276 -0.4369  0.1274
12147TIP3    H157856   2.949   2.605  16.989  4.1707  1.1958 -3.2618
12147TIP3    H257857   3.036   2.540  17.094  0.2830  0.1019 -0.5226
12148TIP3   OH257858   6.154   5.929  16.363  0.0130  0.0185  0.1197
12148TIP3    H157859   6.226   5.948  16.303 -0.2515  0.9663  0.0818
12148TIP3    H257860   6.195   5.887  16.438  0.4639 -0.3704 -0.3357
12149TIP3   OH257861   0.283   2.725   0.306  0.5178 -0.2577  1.0145
12149TIP3    H157862   0.371   2.704   0.277  0.6115  0.4431  0.7597
12149TIP3    H257863   0.270   2.672   0.384  1.1496 -0.3979  1.0305
12150TIP3   OH257864   3.656   0.909  12.268 -0.0066 -0.5737 -0.0141
12150TIP3    H157865   3.695   0.994  12.288 -0.0516  0.0589 -2.3569
12150TIP3    H257866   3.721   0.846  12.299  0.4818  0.3155  0.8616
12151TIP3   OH257867   1.363   5.407   3.052  0.3568  0.6080 -0.1637
12151TIP3    H157868   1.388   5.415   3.144  1.7016 -0.8989 -0.3505
12151TIP3    H257869   1.328   5.494   3.029  1.8947  1.6578  1.2106
12152TIP3   OH257870   4.870   4.268   0.242 -0.0531 -0.2449  0.1542
12152TIP3    H157871   4.861   4.186   0.290  1.1206 -1.8182 -2.1611
12152TIP3    H257872   4.793   4.271   0.185  0.2468 -0.0946 -0.2493
12153TIP3   OH257873   5.098   2.900   3.373 -0.3124  0.6092 -0.1871
12153TIP3    H157874   5.153   2.841   3.425 -1.6619 -0.1682  0.4097
12153TIP3    H257875   5.061   2.844   3.305 -0.0973  1.2100 -0.8100
12154TIP3   OH257876   6.427   5.409   3.405  0.3834  0.0277 -0.2495
12154TIP3    H157877   6.383   5.459   3.337 -0.5894 -0.0871  0.2850
12154TIP3    H257878   6.417   5.461   3.484 -0.2333 -0.7724  0.2141
12155TIP3   OH257879   5.886   3.806  16.183  0.0995  0.3588  0.1570
12155TIP3    H157880   5.936   3.877  16.225  0.7645 -0.2760  0.4738
12155TIP3    H257881   5.816   3.787  16.245  0.5784 -0.0019  0.5997
12156TIP3   OH257882   6.166   6.004   1.978 -0.3358 -0.0073  0.2899
12156TIP3    H157883   6.081   6.001   1.933 -0.0351  0.9639 -0.3778
12156TIP3    H257884   6.230   6.005   1.908  0.2262 -0.4620  0.7930
12157TIP3   OH257885   3.338   3.909   0.647  0.1125  0.6841 -0.3962
12157TIP3    H157886   3.363   3.980   0.588 -0.7151  0.4447 -1.0517
12157TIP3    H257887   3.268   3.946   0.702 -0.5822  0.2856 -0.9889
12158TIP3   OH257888   1.889   3.283  13.890 -0.0471  0.4855  0.4008
12158TIP3    H157889   1.887   3.331  13.807 -0.5846  1.4785  0.9570
12158TIP3    H257890   1.982   3.271  13.909  0.0817  0.5356 -0.1796
12159TIP3   OH257891   6.322   5.292   0.066 -0.3031  0.6596  0.5914
12159TIP3    H157892   6.406   5.338   0.059 -0.1333  0.3907  0.8638
12159TIP3    H257893   6.331   5.216   0.008  0.7722 -1.0687  2.8654
12160TIP3   OH257894   5.592   3.717  13.653 -0.1905 -0.0284 -0.2616
12160TIP3    H157895   5.650   3.787  13.625  1.0523 -1.4058 -1.2486
12160TIP3    H257896   5.566   3.673  13.572 -1.1028 -0.6094  0.3237
12161TIP3   OH257897   6.541   2.218   0.344 -0.2090  0.4947  0.2542
12161TIP3    H157898   6.595   2.252   0.416  0.5681  0.6699 -0.4026
12161TIP3    H257899   6.587   2.141   0.313 -0.7222  0.2236  0.1540
12162TIP3   OH257900   3.891   2.435   0.886 -0.4718 -0.0681  0.3488
12162TIP3    H157901   3.894   2.420   0.980  0.0627  0.7519  0.4778
12162TIP3    H257902   3.981   2.461   0.863 -0.6928  0.1396 -0.3070
12163TIP3   OH257903   5.738   2.958   3.153 -0.2847 -0.2045  0.1832
12163TIP3    H157904   5.738   2.971   3.248  0.3859 -0.1509  0.1805
12163TIP3    H257905   5.648   2.930   3.133  0.1014 -2.2939  1.1138
12164TIP3   OH257906   6.660   4.987   5.696 -0.3098 -0.4197 -0.1684
12164TIP3    H157907   6.579   5.034   5.718 -0.2196  0.1144 -0.9302
12164TIP3    H257908   6.638   4.938   5.617  0.4347  0.6974 -1.1057
12165TIP3   OH257909   0.617   1.161   5.651 -0.1634  0.3273 -0.4175
12165TIP3    H157910   0.584   1.207   5.728  0.4030 -0.7180  0.4846
12165TIP3    H257911   0.545   1.102   5.627  0.2010 -0.4026  0.2314
12166TIP3   OH257912   4.935   5.962  16.649 -0.0530 -0.1263 -0.3872
12166TIP3    H157913   4.991   5.930  16.719 -0.8460  0.5333  0.5849
12166TIP3    H257914   4.952   5.904  16.576  0.6875 -0.9298  0.3993
12167TIP3   OH257915   5.081   0.940  16.101  0.3507  0.0846  0.4716
12167TIP3    H157916   5.130   0.964  16.022 -0.0964 -1.1579 -0.2200
12167TIP3    H257917   5.139   0.880  16.148  0.0667 -0.2868  0.3567
12168TIP3   OH257918   6.656   4.626  14.286  0.7213  0.1298 -0.0427
12168TIP3    H157919   6.576   4.653  14.330  0.9129  0.0670  0.3491
12168TIP3    H257920   6.642   4.534  14.265  0.2327  0.4121 -1.0077
12169TIP3   OH257921   4.006   6.189  14.764  0.2605 -0.1154 -0.1320
12169TIP3    H157922   4.022   6.236  14.846 -0.4243 -2.7882  1.6635
12169TIP3    H257923   4.069   6.117  14.765 -1.2384 -1.4939 -0.8175
12170TIP3   OH257924   0.601   4.064   4.670 -0.3317  0.2764  0.5399
12170TIP3    H157925   0.689   4.087   4.699 -0.0535 -0.2266  0.1141
12170TIP3    H257926   0.610   3.976   4.633 -0.4306  1.2859 -2.1033
12171TIP3   OH257927   3.331   6.317   2.277 -0.0000  0.2950 -0.4348
12171TIP3    H157928   3.254   6.367   2.303  0.2239 -0.1446  1.2000
12171TIP3    H257929   3.402   6.382   2.275 -0.2419  0.5422 -1.0920
12172TIP3   OH257930   5.362   2.405   4.447  0.0851  0.3052 -0.6861
12172TIP3    H157931   5.291   2.357   4.404  0.8086 -1.7570  0.2708
12172TIP3    H257932   5.381   2.354   4.526 -0.5867  3.4454  1.7055
12173TIP3   OH257933   6.738   6.607  16.052 -0.0878  0.2361  0.3887
12173TIP3    H157934   6.682   6.681  16.029  0.8321  0.6503 -0.6078
12173TIP3    H257935   6.819   6.622  16.002  0.3512 -1.1082  0.6668
12174TIP3   OH257936   6.331   0.886  14.332  0.2415  0.8473 -0.0692
12174TIP3    H157937   6.379   0.935  14.399  0.8016  0.4529 -0.1710
12174TIP3    H257938   6.251   0.858  14.375 -0.3994  2.3858 -0.1979
12175TIP3   OH257939   2.283   6.025   6.117  0.3753 -0.2844  0.1842
12175TIP3    H157940   2.191   6.012   6.140 -0.0070  1.3058 -0.3556
12175TIP3    H257941   2.313   6.093   6.178  0.9598 -0.1887 -0.2060
12176TIP3   OH257942   4.448   2.656  16.907  0.0688 -0.2218 -0.2185
12176TIP3    H157943   4.432   2.603  16.985 -0.7498  1.3384  0.7345
12176TIP3    H257944   4.360   2.685  16.880  0.4464  0.2484 -0.9841
12177TIP3   OH257945   6.509   0.712   0.673  0.4758 -0.1545 -0.8876
12177TIP3    H157946   6.596   0.673   0.677 -0.2050 -1.8590 -1.9120
12177TIP3    H257947   6.491   0.720   0.579 -0.7138 -0.3948 -0.6862
12178TIP3   OH257948   0.454   2.795   0.572 -0.4211 -0.2450  0.0983
12178TIP3    H157949   0.397   2.872   0.576 -0.6575 -0.3984 -0.2378
12178TIP3    H257950   0.411   2.731   0.628 -0.0459 -0.0228  0.6513
12179TIP3   OH257951   4.367   2.516   1.291  0.0018  0.0170 -0.0323
12179TIP3    H157952   4.372   2.578   1.363  0.6690 -1.0322  0.8655
12179TIP3    H257953   4.276   2.521   1.261 -0.5181 -0.0890  1.4302
12180TIP3   OH257954   3.117   2.351  16.847  0.4433 -0.2527 -0.0109
12180TIP3    H157955   3.067   2.407  16.906  1.1779  0.3335  0.0703
12180TIP3    H257956   3.088   2.375  16.759 -0.5611 -1.0391  0.0850
12181TIP3   OH257957   0.690   3.205  15.021 -0.4175  0.1282 -0.9451
12181TIP3    H157958   0.761   3.149  15.054 -1.7559 -1.5619 -0.7976
12181TIP3    H257959   0.649   3.241  15.099 -0.2067  0.5150 -1.0072
12182TIP3   OH257960   5.364   2.348   3.035 -0.0276 -0.3330  0.6124
12182TIP3    H157961   5.357   2.415   3.103 -2.6831 -0.9550  1.0710
12182TIP3    H257962   5.388   2.268   3.082  2.2131  0.0197  0.1867
12183TIP3   OH257963   3.167   5.676   3.063 -0.0093 -0.4235 -0.0117
12183TIP3    H157964   3.154   5.599   3.118 -0.6445 -1.4365 -1.5351
12183TIP3    H257965   3.262   5.689   3.062  0.0470 -0.6998  0.8770
12184TIP3   OH257966   1.476   2.802   0.930 -0.1857  0.5309 -0.7298
12184TIP3    H157967   1.383   2.804   0.952 -0.3179  2.0350 -1.3155
12184TIP3    H257968   1.478   2.822   0.836  0.6220 -1.4625 -1.1873
12185TIP3   OH257969   3.469   4.451   3.720 -0.5825  0.5895 -0.5920
12185TIP3    H157970   3.560   4.474   3.742 -1.4050  2.4348  1.2869
12185TIP3    H257971   3.471   4.357   3.706  1.7117  0.6553 -1.1099
12186TIP3   OH257972   2.465   5.705  14.602 -0.0402  0.1658 -0.3051
12186TIP3    H157973   2.492   5.797  14.601  2.2214 -0.4127  1.0687
12186TIP3    H257974   2.430   5.692  14.690  1.5994 -0.7392  0.2544
12187TIP3   OH257975   4.749   5.620   0.572 -0.3143 -0.1648 -0.4750
12187TIP3    H157976   4.835   5.589   0.600 -0.9829 -0.6120  1.2653
12187TIP3    H257977   4.692   5.544   0.582 -1.1054  0.4057 -0.5736
12188TIP3   OH257978   2.693   0.527   4.613 -0.7567  0.1973 -0.1144
12188TIP3    H157979   2.774   0.577   4.603  0.8450 -2.0765  0.6332
12188TIP3    H257980   2.695   0.463   4.542 -0.9927 -1.0036  0.9187
12189TIP3   OH257981   2.399   5.176   3.400  0.1408 -0.3650 -0.5103
12189TIP3    H157982   2.354   5.105   3.354 -1.0346  0.0908 -0.1237
12189TIP3    H257983   2.413   5.243   3.333 -0.0435 -0.3876 -0.5726
12190TIP3   OH257984   2.231   4.894  14.815  0.1025 -0.9312 -0.6835
12190TIP3    H157985   2.266   4.950  14.746  0.8357  0.2410  0.5894
12190TIP3    H257986   2.156   4.943  14.850  1.5729  0.0039  1.3664
12191TIP3   OH257987   0.450   5.408   1.647 -0.9237 -0.2991  0.2025
12191TIP3    H157988   0.425   5.465   1.719 -2.0629 -2.5628  1.7307
12191TIP3    H257989   0.501   5.339   1.689  0.3536 -0.4871 -1.5530
12192TIP3   OH257990   2.964   1.623   5.329 -0.2204  0.3509  0.2388
12192TIP3    H157991   3.016   1.575   5.264  0.6347  0.5997  0.7291
12192TIP3    H257992   2.912   1.685   5.276  0.3017  0.4003 -0.2313
12193TIP3   OH257993   6.127   2.892  16.867  0.4893 -0.2976 -0.2631
12193TIP3    H157994   6.138   2.977  16.911  1.5247 -0.9212  0.7408
12193TIP3    H257995   6.055   2.850  16.912  1.0348 -0.6068  0.3416
12194TIP3   OH257996   1.837   5.478   2.907 -0.1217  0.2952 -0.2920
12194TIP3    H157997   1.919   5.430   2.923 -0.5630 -0.4092 -0.1158
12194TIP3    H257998   1.830   5.482   2.811 -0.3747 -0.5066 -0.3123
12195TIP3   OH257999   0.376   5.864  15.548 -0.2733  0.5955 -0.0951
12195TIP3    H158000   0.290   5.833  15.577  0.3241 -1.3938 -0.3107
12195TIP3    H258001   0.357   5.936  15.488 -1.6816  1.9692  1.8742
12196TIP3   OH258002   0.528   1.783  12.958 -0.4851  0.4235  0.9087
12196TIP3    H158003   0.496   1.830  12.880 -1.1560  1.1288  1.5880
12196TIP3    H258004   0.450   1.775  13.014 -0.7425 -2.7173  0.2704
12197TIP3   OH258005   0.952   3.426  11.961 -0.0717 -0.3728  0.0934
12197TIP3    H158006   0.923   3.405  11.872  2.1093 -0.1458 -0.7437
12197TIP3    H258007   0.949   3.522  11.965 -2.9950 -0.4213  1.3654
12198TIP3   OH258008   1.414   6.572  15.937  0.1459  0.2898  0.2395
12198TIP3    H158009   1.396   6.568  16.031  0.3151  0.9210  0.3049
12198TIP3    H258010   1.330   6.593  15.897  0.1326  0.2967  0.2713
12199TIP3   OH258011   4.791   5.998  11.692  0.1383 -0.0282 -0.1664
12199TIP3    H158012   4.747   6.012  11.776  0.2414  2.2416 -0.4534
12199TIP3    H258013   4.880   5.973  11.715  0.2530  0.8789  0.4181
12200TIP3   OH258014   3.327   0.998  12.744  0.5225  0.0800 -0.3274
12200TIP3    H158015   3.267   1.054  12.696  1.0772 -0.5503 -1.8316
12200TIP3    H258016   3.330   0.917  12.694  1.9160 -0.2380  0.2045
12201TIP3   OH258017   6.739   2.249   3.767  0.5804 -0.1205  0.0629
12201TIP3    H158018   6.646   2.244   3.747  0.1387  0.2391  1.8522
12201TIP3    H258019   6.756   2.173   3.823  0.7898  1.1240  1.7551
12202TIP3   OH258020   4.487   4.460  12.857 -0.4232 -0.0760  0.1757
12202TIP3    H158021   4.516   4.455  12.948 -0.7090 -3.4927  0.1956
12202TIP3    H258022   4.407   4.408  12.854 -0.1024 -0.5435 -2.1318
12203TIP3   OH258023   0.196   6.020  16.740  0.0856 -0.7952 -0.0325
12203TIP3    H158024   0.189   6.113  16.719 -0.0225 -0.7454  0.2295
12203TIP3    H258025   0.249   5.984  16.668  0.7498 -0.4029  0.2495
12204TIP3   OH258026   6.008   1.732   0.742 -0.0962  0.3566  0.2407
12204TIP3    H158027   5.956   1.654   0.720  0.3012  0.3522 -0.7249
12204TIP3    H258028   5.987   1.749   0.834 -2.3588  0.7694 -0.2967
12205TIP3   OH258029   4.697   1.587   3.856 -0.1703 -0.5236 -0.1120
12205TIP3    H158030   4.674   1.551   3.941  0.6441  1.1059  0.8505
12205TIP3    H258031   4.793   1.587   3.855 -0.1647 -0.5431 -1.0452
12206TIP3   OH258032   6.099   3.055   4.984 -0.2039 -0.0210  0.0604
12206TIP3    H158033   6.010   3.058   4.948  0.1834 -1.1277 -1.0456
12206TIP3    H258034   6.089   3.013   5.070 -0.7896  0.1915  0.1018
12207TIP3   OH258035   5.927   5.591   2.882  0.2837  0.4255  0.2622
12207TIP3    H158036   5.881   5.626   2.806  0.2740  0.1505  0.1408
12207TIP3    H258037   5.994   5.534   2.846  1.5876  1.8125  0.3801
12208TIP3   OH258038   1.357   1.380  10.425  0.0024 -0.4173  0.1318
12208TIP3    H158039   1.324   1.457  10.472  1.6847 -0.8839  2.2334
12208TIP3    H258040   1.403   1.330  10.491  2.2077 -1.3483 -1.9661
12209TIP3   OH258041   6.125   0.603  14.026 -0.0800 -0.6576  0.0166
12209TIP3    H158042   6.197   0.662  14.047 -1.1980 -0.2276  3.1585
12209TIP3    H258043   6.046   0.652  14.047 -1.1497 -2.3536  0.1804
12210TIP3   OH258044   5.156   4.740   3.000  0.2977 -0.6033 -0.0772
12210TIP3    H158045   5.074   4.791   3.000 -0.2545 -1.3572  2.3278
12210TIP3    H258046   5.127   4.650   2.988  1.0105 -0.7006 -1.2266
12211TIP3   OH258047   1.564   4.882  15.956 -0.6462  0.1071  0.0057
12211TIP3    H158048   1.592   4.859  15.867  0.4834 -1.0965  0.6218
12211TIP3    H258049   1.515   4.805  15.986 -0.1708  0.0771  0.7488
12212TIP3   OH258050   2.184   6.634  11.296  0.3714 -0.5005  0.0479
12212TIP3    H158051   2.101   6.651  11.341 -0.2124  0.3172 -1.2521
12212TIP3    H258052   2.244   6.700  11.329  0.4706 -0.9823  0.8622
12213TIP3   OH258053   0.751   1.521   5.446  0.2289  0.1476 -0.2616
12213TIP3    H158054   0.661   1.492   5.462 -0.1918  1.0791 -0.8336
12213TIP3    H258055   0.750   1.614   5.470  1.2935 -0.0525  0.6504
12214TIP3   OH258056   4.987   3.199  16.821 -0.2469 -0.6080  0.2824
12214TIP3    H158057   4.935   3.123  16.795  0.2378 -0.1427 -2.3146
12214TIP3    H258058   5.063   3.162  16.867 -1.3533 -1.4709  1.4701
12215TIP3   OH258059   2.689   5.851  15.387 -0.1524  0.0055 -0.0541
12215TIP3    H158060   2.754   5.836  15.456 -2.4679  0.4554  2.3981
12215TIP3    H258061   2.639   5.927  15.417 -0.7494  0.7470 -2.7083
12216TIP3   OH258062   3.759   5.009   5.134 -0.6876 -0.1689 -0.6677
12216TIP3    H158063   3.679   4.960   5.150 -0.2407 -1.3740 -1.9055
12216TIP3    H258064   3.730   5.097   5.112 -1.6926 -0.6028 -1.1469
12217TIP3   OH258065   1.576   0.149  11.988 -0.4318  0.1198  0.0957
12217TIP3    H158066   1.500   0.132  12.043 -0.5185 -2.6894 -0.7237
12217TIP3    H258067   1.551   0.118  11.901  2.0600 -2.3914  0.1224
12218TIP3   OH258068   0.112   2.953   2.197 -0.5692  0.0886  0.0428
12218TIP3    H158069   0.018   2.940   2.211 -0.6941 -0.0112 -0.8816
12218TIP3    H258070   0.154   2.886   2.252 -1.0528 -0.2934 -0.0474
12219TIP3   OH258071   0.181   4.894  15.116 -0.6502 -0.2356 -0.8742
12219TIP3    H158072   0.250   4.890  15.049 -0.4502  0.6831 -0.7419
12219TIP3    H258073   0.168   4.803  15.143 -1.2915 -0.7287 -2.7110
12220TIP3   OH258074   1.691   6.343  14.871  0.4868 -0.5358  0.3066
12220TIP3    H158075   1.662   6.338  14.780 -0.8088  0.3698  0.6304
12220TIP3    H258076   1.734   6.428  14.878  1.2404 -0.9142  0.3801
12221TIP3   OH258077   5.525   1.223  10.826  0.0921 -0.2941  0.0828
12221TIP3    H158078   5.536   1.128  10.826 -1.5443 -0.5415  1.4486
12221TIP3    H258079   5.464   1.240  10.899 -0.4682  1.6991 -0.7779
12222TIP3   OH258080   0.624   4.067  15.100  0.4187 -0.6080  0.0226
12222TIP3    H158081   0.576   4.003  15.154  0.4170 -0.8821 -0.3035
12222TIP3    H258082   0.556   4.110  15.049  0.5132 -1.0086 -0.4519
12223TIP3   OH258083   5.102   0.528  12.248 -0.3198 -0.1994 -0.1691
12223TIP3    H158084   5.163   0.536  12.322  0.6789  1.5846 -1.1178
12223TIP3    H258085   5.132   0.450  12.202  3.2079  2.0480 -2.1684
12224TIP3   OH258086   2.817   5.645  11.903 -0.1136  0.3152  0.0258
12224TIP3    H158087   2.886   5.712  11.902 -1.7048  2.0249 -0.8361
12224TIP3    H258088   2.844   5.582  11.835 -0.4419  2.1372 -1.8809
12225TIP3   OH258089   3.097   4.554   5.921  0.2245 -0.1522 -0.2486
12225TIP3    H158090   3.153   4.600   5.858  0.1665  1.0561  0.5584
12225TIP3    H258091   3.076   4.620   5.988 -0.9386 -1.0003  0.2538
12226TIP3   OH258092   1.369   3.628   4.174 -0.2089  0.2122  0.1103
12226TIP3    H158093   1.353   3.559   4.110 -0.2040 -0.1102  0.4471
12226TIP3    H258094   1.323   3.598   4.253 -3.4691  2.3864 -0.7823
12227TIP3   OH258095   4.420   6.700  14.312 -0.0320  0.3454  0.7627
12227TIP3    H158096   4.499   6.683  14.363  1.4249  0.6798 -1.2621
12227TIP3    H258097   4.400   6.792  14.329 -0.1765  0.1845  1.5073
12228TIP3   OH258098   3.648   1.725   4.666  0.1749 -0.3769 -0.2672
12228TIP3    H158099   3.636   1.768   4.751 -0.9890  0.9440 -1.0627
12228TIP3    H258100   3.588   1.651   4.668 -1.1131  0.6263 -0.5418
12229TIP3   OH258101   0.686   0.582   5.241  0.6707 -0.0565 -0.0761
12229TIP3    H158102   0.656   0.660   5.286 -0.4888 -0.9354  0.7581
12229TIP3    H258103   0.606   0.546   5.201  1.0366 -1.1524  0.1356
12230TIP3   OH258104   1.196   0.032  15.100 -0.2849 -0.2168 -0.2272
12230TIP3    H158105   1.124   0.037  15.038 -0.1608  1.2464 -0.2902
12230TIP3    H258106   1.248   0.111  15.083  0.6136 -0.5855  0.6846
12231TIP3   OH258107   4.481   6.244   3.310  0.1596  0.0583  1.5913
12231TIP3    H158108   4.394   6.207   3.318  0.1339 -0.2322  0.2896
12231TIP3    H258109   4.470   6.318   3.249  1.1951 -1.5155 -0.6541
12232TIP3   OH258110   3.196   1.509  16.370  0.7623  0.5955 -0.3227
12232TIP3    H158111   3.188   1.524  16.276  0.6447 -1.1870 -0.6262
12232TIP3    H258112   3.198   1.414  16.379  0.8708  0.7407  1.4761
12233TIP3   OH258113   3.755   2.207  12.747 -0.0746 -0.4849 -0.0654
12233TIP3    H158114   3.710   2.247  12.673  0.8120 -0.0954 -0.3980
12233TIP3    H258115   3.839   2.252  12.752 -0.4423  0.0776  1.6910
12234TIP3   OH258116   3.923   5.928   5.460 -0.5842  0.1806  0.0904
12234TIP3    H158117   3.915   5.879   5.542 -0.1015 -0.3599 -0.1809
12234TIP3    H258118   3.844   5.983   5.458 -0.3405  0.5995  1.1634
12235TIP3   OH258119   0.333   3.421   6.073  0.3948  0.2397 -0.3942
12235TIP3    H158120   0.367   3.406   5.984 -0.3215  1.9702 -1.0161
12235TIP3    H258121   0.247   3.379   6.073  1.1683 -1.3951  0.1300
12236TIP3   OH258122   3.771   0.421   5.507 -0.0864 -0.5768 -0.2696
12236TIP3    H158123   3.768   0.465   5.422 -3.4812 -0.5629 -0.2997
12236TIP3    H258124   3.808   0.486   5.567 -1.1076  0.8224 -1.0886
12237TIP3   OH258125   5.220   0.040   5.322 -0.1492  0.4752 -0.1207
12237TIP3    H158126   5.292   0.101   5.307  0.6557 -0.4556 -0.1200
12237TIP3    H258127   5.198   0.050   5.415  0.3587  0.3605  0.0130
12238TIP3   OH258128   3.965   1.845  14.655 -0.5071 -0.3532 -0.3553
12238TIP3    H158129   4.033   1.808  14.599  1.3440  2.9493 -0.4980
12238TIP3    H258130   3.995   1.934  14.674 -2.4772 -0.3237  3.5197
12239TIP3   OH258131   0.511   3.001   3.418 -0.1297  0.3726  0.1619
12239TIP3    H158132   0.449   3.074   3.412 -0.3837  0.1312 -0.1578
12239TIP3    H258133   0.596   3.043   3.432 -0.5372  0.6683  2.0872
12240TIP3   OH258134   0.673   3.348  12.288 -0.2679  0.2288 -0.0446
12240TIP3    H158135   0.712   3.435  12.288 -3.1187  1.6389  1.2889
12240TIP3    H258136   0.583   3.361  12.258 -0.6003 -2.3804 -0.4502
12241TIP3   OH258137   2.035   1.497   3.892 -0.4721 -0.2160 -0.3175
12241TIP3    H158138   1.987   1.455   3.820 -0.4035  0.2254 -0.6208
12241TIP3    H258139   2.017   1.441   3.968 -0.5538 -0.6804 -0.6734
12242TIP3   OH258140   3.193   6.064   5.693 -0.2493 -0.4288  0.1063
12242TIP3    H158141   3.234   5.992   5.740  2.1884 -0.2170 -1.5495
12242TIP3    H258142   3.230   6.143   5.732 -1.7347 -0.0713  0.8711
12243TIP3   OH258143   4.281   4.939  11.845 -0.1024  0.6364 -0.8033
12243TIP3    H158144   4.193   4.926  11.880  0.4307  1.3112  0.9001
12243TIP3    H258145   4.269   4.946  11.750 -2.0873  2.2181 -0.5079
12244TIP3   OH258146   4.823   0.165  16.107  0.2375 -0.2245 -0.6618
12244TIP3    H158147   4.809   0.115  16.187  1.2536 -0.9340 -0.9107
12244TIP3    H258148   4.881   0.110  16.054 -0.0677  0.4253 -1.7014
12245TIP3   OH258149   3.550   0.008   4.264  0.4219  0.1966  0.3511
12245TIP3    H158150   3.585  -0.031   4.184  1.3541 -0.5979  1.1160
12245TIP3    H258151   3.577  -0.052   4.334 -1.4949  0.1616  1.1367
12246TIP3   OH258152   3.278   0.602   4.850 -0.6918 -0.2991 -0.2204
12246TIP3    H158153   3.340   0.657   4.801 -0.7043  0.2667  0.3807
12246TIP3    H258154   3.334   0.550   4.908 -0.7837  0.4191  0.5283
12247TIP3   OH258155   3.470   3.509   5.070 -0.1150 -0.2854  0.2089
12247TIP3    H158156   3.499   3.574   5.134  0.7911 -1.3265  0.8925
12247TIP3    H258157   3.503   3.425   5.104 -1.5920 -1.1662 -0.4350
12248TIP3   OH258158   1.511   5.174   0.350  0.1911 -0.0378  0.5800
12248TIP3    H158159   1.570   5.099   0.357  0.0476 -0.2624 -0.3831
12248TIP3    H258160   1.446   5.160   0.419  0.8477 -0.1666  1.1780
12249TIP3   OH258161   3.032   4.800  17.163 -0.7407  0.3152 -0.1267
12249TIP3    H158162   3.002   4.729  17.220  0.1827  0.0860  0.0997
12249TIP3    H258163   3.021   4.879  17.216  1.2639 -0.0236  0.8895
12250TIP3   OH258164   5.809   0.042   3.462  0.0106  0.3689 -0.2153
12250TIP3    H158165   5.845   0.002   3.541 -1.3415  0.6638  0.5802
12250TIP3    H258166   5.862   0.121   3.450  2.7911 -1.5618 -1.8712
12251TIP3   OH258167   0.877   2.038  13.998  0.1460 -0.2776 -0.0107
12251TIP3    H158168   0.900   1.983  14.072  0.5261 -1.4184 -0.9593
12251TIP3    H258169   0.874   1.979  13.923  0.6521  1.0018 -1.0772
12252TIP3   OH258170   0.486   1.420  16.622  0.1209  0.2651  0.1685
12252TIP3    H158171   0.536   1.347  16.584 -2.5196 -0.0966 -3.0633
12252TIP3    H258172   0.433   1.379  16.691  0.2598 -0.4144 -0.1191
12253TIP3   OH258173   0.413   3.833   4.640  0.0915  0.9276  0.4893
12253TIP3    H158174   0.328   3.872   4.657 -0.2526  0.7969 -0.8173
12253TIP3    H258175   0.409   3.806   4.548  1.5546  0.9649  0.3916
12254TIP3   OH258176   1.160   0.312  12.278 -0.0917 -0.8699 -0.1486
12254TIP3    H158177   1.112   0.298  12.196 -0.4885 -1.9086  0.2431
12254TIP3    H258178   1.093   0.307  12.346  0.4835 -1.8186  0.3682
12255TIP3   OH258179   2.641   6.354  17.077 -0.2247  0.2923 -0.3530
12255TIP3    H158180   2.597   6.371  17.160 -2.7149  1.3712 -1.7718
12255TIP3    H258181   2.651   6.441  17.037 -0.9799 -0.3607 -2.0459
12256TIP3   OH258182   0.191   2.170  15.930 -0.0990  0.1738  0.2833
12256TIP3    H158183   0.107   2.215  15.927 -0.8225 -1.1601  0.0024
12256TIP3    H258184   0.181   2.104  15.999  0.5157 -0.3709 -0.1393
12257TIP3   OH258185   5.048   4.839   5.613 -0.4793  0.2352  0.4095
12257TIP3    H158186   5.121   4.896   5.587 -0.2036 -0.7529 -1.1116
12257TIP3    H258187   4.981   4.854   5.547 -0.8955 -0.2780  0.7086
12258TIP3   OH258188   5.317   3.033   5.512  0.1179  0.0381 -0.5319
12258TIP3    H158189   5.236   3.074   5.543  1.4939  1.0341  2.0586
12258TIP3    H258190   5.360   3.002   5.592  1.7748 -1.5026 -1.9392
12259TIP3   OH258191   3.984   5.010   5.288 -0.1957  0.0166 -0.0012
12259TIP3    H158192   3.985   5.105   5.299  0.3089 -0.2343  2.7013
12259TIP3    H258193   3.910   4.993   5.230 -1.1074  1.9706  0.5145
12260TIP3   OH258194   5.309   6.105  12.249  0.2595 -0.3136  0.3371
12260TIP3    H158195   5.369   6.168  12.209  0.3235 -0.3526  0.3723
12260TIP3    H258196   5.362   6.027  12.264 -0.0190 -0.6701 -0.4624
12261TIP3   OH258197   2.187   6.667  13.858 -0.3103 -0.1130 -0.3418
12261TIP3    H158198   2.132   6.660  13.780  0.0341  2.0706 -0.8389
12261TIP3    H258199   2.130   6.705  13.925 -0.2492 -0.8200  0.1367
12262TIP3   OH258200   5.791   5.514   1.127 -0.0206  0.1840  0.4528
12262TIP3    H158201   5.709   5.490   1.171  0.7169 -4.1155 -0.0235
12262TIP3    H258202   5.853   5.531   1.198 -0.3063 -0.8179  0.9577
12263TIP3   OH258203   2.828   0.866  14.021 -0.0525  0.2058  0.5070
12263TIP3    H158204   2.766   0.817  14.076 -2.1863  0.4881 -1.4903
12263TIP3    H258205   2.903   0.807  14.012 -1.0700 -1.2380  1.0097
12264TIP3   OH258206   6.754   5.605   3.483  0.6511  0.3644 -0.7018
12264TIP3    H158207   6.788   5.635   3.567 -1.0880 -0.0507  0.2103
12264TIP3    H258208   6.798   5.522   3.467 -0.1775 -0.3691  0.6533
12265TIP3   OH258209   1.645   6.618   0.142 -0.0477  0.2233 -0.0556
12265TIP3    H158210   1.566   6.621   0.196  0.6810  1.5557  0.9854
12265TIP3    H258211   1.614   6.584   0.058 -1.3472 -1.1777  0.9277
12266TIP3   OH258212   0.433   1.682   5.382 -0.6245  0.2424 -0.5791
12266TIP3    H158213   0.500   1.750   5.376 -0.4317  0.0723 -0.3681
12266TIP3    H258214   0.463   1.625   5.453 -0.0888 -0.8347 -1.6269
12267TIP3   OH258215   5.752   2.122  14.688 -0.2868 -0.3716  0.2152
12267TIP3    H158216   5.722   2.073  14.611 -0.3415  1.8407 -1.2734
12267TIP3    H258217   5.746   2.059  14.760 -0.4007 -2.4981 -1.5295
12268TIP3   OH258218   1.143   1.787  16.726  0.3330 -0.1013  0.2727
12268TIP3    H158219   1.088   1.844  16.672  2.8804  0.5633 -1.7963
12268TIP3    H258220   1.186   1.846  16.788  0.2638 -0.3378  0.5509
12269TIP3   OH258221   3.910   2.529   4.884 -0.5426 -0.1357  0.0377
12269TIP3    H158222   3.960   2.605   4.912  1.2631 -1.5108  0.7493
12269TIP3    H258223   3.876   2.492   4.966 -2.6592  0.6683 -0.4161
12270TIP3   OH258224   4.844   0.889   1.873 -0.2594  0.0102  0.1956
12270TIP3    H158225   4.807   0.976   1.885 -0.2168  0.2378 -1.2013
12270TIP3    H258226   4.891   0.894   1.790  2.1830 -0.5265  1.4514
12271TIP3   OH258227   0.700   3.212   3.641  0.3579 -0.6764 -0.3159
12271TIP3    H158228   0.625   3.158   3.666 -0.3100 -0.2930 -1.4022
12271TIP3    H258229   0.670   3.302   3.651  0.7350 -0.5139 -0.5987
12272TIP3   OH258230   2.848   0.599   2.932 -0.2392  0.0844  0.0071
12272TIP3    H158231   2.840   0.533   3.001 -0.9232  0.1587  0.0076
12272TIP3    H258232   2.785   0.667   2.957 -2.2699 -0.9700 -1.8902
12273TIP3   OH258233   1.769   3.607   2.986 -0.2539 -0.0877  1.1315
12273TIP3    H158234   1.825   3.679   3.014 -0.4526  0.6809 -0.3467
12273TIP3    H258235   1.769   3.612   2.890 -0.0968 -2.1994  0.9720
12274TIP3   OH258236   6.694   0.895   1.863 -0.1301 -0.3277 -0.8573
12274TIP3    H158237   6.673   0.824   1.802 -0.3382 -0.5392 -0.5399
12274TIP3    H258238   6.778   0.929   1.831  0.1716 -0.9806 -0.7732
12275TIP3   OH258239   5.309   3.609  17.089 -0.2595  0.4562 -0.3056
12275TIP3    H158240   5.279   3.578  17.004  0.1918  1.6257 -0.9047
12275TIP3    H258241   5.369   3.540  17.119 -1.0342 -0.3419 -0.5560
12276TIP3   OH258242   4.732   5.813   3.713 -0.3365 -0.5722  0.1920
12276TIP3    H158243   4.793   5.850   3.778  0.3756  0.3195 -0.9555
12276TIP3    H258244   4.650   5.859   3.729  0.3819  1.1631 -0.8372
12277TIP3   OH258245   1.443   0.087   4.420  0.3429 -0.0790  0.6582
12277TIP3    H158246   1.411  -0.002   4.405  1.9109 -0.1597 -3.9723
12277TIP3    H258247   1.396   0.140   4.355  2.3596  1.6249  0.4993
12278TIP3   OH258248   4.212   5.160  13.783  0.1604 -0.1162 -0.1341
12278TIP3    H158249   4.161   5.241  13.779  0.2623 -0.1086 -1.5268
12278TIP3    H258250   4.289   5.183  13.835 -0.2800  0.4083  0.2993
12279TIP3   OH258251   2.337   4.933   0.651  0.1382  0.7616  0.3202
12279TIP3    H158252   2.314   4.927   0.744  2.4895  1.3350  1.0117
12279TIP3    H258253   2.354   4.843   0.624 -0.8162  0.5648  0.3631
12280TIP3   OH258254   1.251   4.416   5.201 -0.1965  0.1179  0.9373
12280TIP3    H158255   1.220   4.496   5.243  1.0297  1.6659 -0.9734
12280TIP3    H258256   1.176   4.356   5.207 -1.2371  1.4592  2.1828
12281TIP3   OH258257   0.854   1.899   0.830  0.5738  0.1650 -0.3206
12281TIP3    H158258   0.947   1.878   0.814  1.0002  2.1819 -0.7702
12281TIP3    H258259   0.854   1.943   0.915 -0.5615 -3.0751  1.5392
12282TIP3   OH258260   2.109   0.123  11.495  0.2121  0.2309 -0.0419
12282TIP3    H158261   2.202   0.100  11.487  0.2745 -0.2648  1.7228
12282TIP3    H258262   2.082   0.083  11.577 -0.5753  3.6133  1.5246
12283TIP3   OH258263   0.492   3.796  11.900  0.2711 -0.2465 -0.3427
12283TIP3    H158264   0.423   3.806  11.965  0.9403 -0.0760  0.3574
12283TIP3    H258265   0.455   3.737  11.834  0.1527 -1.7443  1.0134
12284TIP3   OH258266   0.298   4.371  16.071  0.1354 -0.1110 -0.1616
12284TIP3    H158267   0.237   4.430  16.114  0.2681  0.8447 -1.2332
12284TIP3    H258268   0.377   4.373  16.126  0.2030  0.8565 -0.2773
12285TIP3   OH258269   1.922   6.627   5.553  0.0917  0.5572 -0.0668
12285TIP3    H158270   1.967   6.663   5.477 -0.0750 -0.8548 -0.8810
12285TIP3    H258271   1.980   6.557   5.583  0.0589  0.9804  0.9997
12286TIP3   OH258272   0.732   3.700  11.831 -0.2560  0.1776 -0.2607
12286TIP3    H158273   0.648   3.742  11.848 -0.4522 -1.0147  2.1257
12286TIP3    H258274   0.710   3.608  11.816  0.5180  0.1051 -1.0045
12287TIP3   OH258275   2.508   1.339   1.405 -0.4802 -0.6299  0.4365
12287TIP3    H158276   2.514   1.311   1.496  0.1168  0.5607  0.7832
12287TIP3    H258277   2.578   1.403   1.395 -1.0480 -0.1480 -0.6359
12288TIP3   OH258278   6.441   6.216  12.536  0.1628 -0.4514  0.9720
12288TIP3    H158279   6.533   6.191  12.544  0.3901  0.4611  1.4498
12288TIP3    H258280   6.399   6.181  12.615  0.0200 -1.1904  0.5691
12289TIP3   OH258281   0.607   3.512  15.622  0.0430 -0.2607 -0.5578
12289TIP3    H158282   0.581   3.599  15.655  1.5884  0.7463 -1.8507
12289TIP3    H258283   0.580   3.452  15.691  1.5790  1.5649  1.7929
12290TIP3   OH258284   0.451   6.240   2.104  0.2792 -0.3878  0.4427
12290TIP3    H158285   0.414   6.321   2.140  1.1026  0.0401  0.3382
12290TIP3    H258286   0.530   6.224   2.155 -0.0117 -1.2728  0.6303
12291TIP3   OH258287   4.497   4.931   0.648 -0.4496 -0.3526 -0.0862
12291TIP3    H158288   4.578   4.971   0.619  0.2155 -0.4678  1.5193
12291TIP3    H258289   4.434   4.952   0.579  0.0883  2.6428  0.2007
12292TIP3   OH258290   4.153   4.042  15.704  0.2275  0.2156 -0.0245
12292TIP3    H158291   4.186   4.101  15.636  3.3087 -1.6779 -0.3616
12292TIP3    H258292   4.179   4.083  15.786  0.0139  0.5874 -0.1408
12293TIP3   OH258293   1.991   2.977   1.700 -0.3033 -0.3322 -0.5287
12293TIP3    H158294   1.926   3.014   1.760  0.5805  0.8590 -0.2863
12293TIP3    H258295   1.997   2.885   1.726 -2.3862 -0.6705 -1.0057
12294TIP3   OH258296   0.296   5.622   4.289  0.0779 -0.3269 -0.0911
12294TIP3    H158297   0.326   5.646   4.377 -1.5595 -1.0355  0.7040
12294TIP3    H258298   0.373   5.634   4.234  1.0588  0.4725  1.3702
12295TIP3   OH258299   1.653   3.620  15.795  0.2339  0.6166  0.4264
12295TIP3    H158300   1.729   3.586  15.842  0.2332  1.0447  0.7409
12295TIP3    H258301   1.628   3.549  15.736  1.7148  1.0058 -0.6966
12296TIP3   OH258302   0.826   4.069  11.131 -0.0085  0.0294 -0.4573
12296TIP3    H158303   0.856   4.159  11.144 -0.0394  0.2081 -1.5361
12296TIP3    H258304   0.793   4.067  11.042  0.2965 -1.1359 -0.5659
12297TIP3   OH258305   4.855   4.866   0.813 -0.3793 -0.2232 -0.0800
12297TIP3    H158306   4.816   4.830   0.893 -0.2514  0.5322  0.3344
12297TIP3    H258307   4.872   4.958   0.834  1.9740 -0.5932 -0.1112
12298TIP3   OH258308   1.862   4.865   1.053  0.3554  0.4734  0.0482
12298TIP3    H158309   1.792   4.922   1.019  0.5693  1.0257  0.5096
12298TIP3    H258310   1.897   4.913   1.128  0.2226 -0.5000  0.7536
12299TIP3   OH258311   5.824   5.757   2.117  0.1729  0.1504 -0.0457
12299TIP3    H158312   5.917   5.744   2.096 -0.1704 -3.2958  0.0087
12299TIP3    H258313   5.822   5.758   2.213  0.1042  0.0471 -0.0473
12300TIP3   OH258314   0.590   4.393   1.766  0.1710 -0.2043 -0.1886
12300TIP3    H158315   0.684   4.395   1.781 -0.2547 -0.6529  3.6515
12300TIP3    H258316   0.569   4.300   1.757 -0.1194 -0.3930  1.8435
12301TIP3   OH258317   1.436   1.577   4.804  0.0753 -0.2395 -0.3434
12301TIP3    H158318   1.348   1.569   4.841 -0.9603 -1.8688 -2.8467
12301TIP3    H258319   1.474   1.489   4.814  0.2634 -0.3562 -1.8373
12302TIP3   OH258320   3.555   1.099   0.491 -0.2377  0.0003 -0.2992
12302TIP3    H158321   3.474   1.111   0.541 -0.6392 -1.4212 -0.5647
12302TIP3    H258322   3.529   1.113   0.400  0.0247  0.4561 -0.3061
12303TIP3   OH258323   0.297   0.039   0.131  0.2925  0.0977  0.2762
12303TIP3    H158324   0.232  -0.030   0.145  2.2979 -1.7256  1.1140
12303TIP3    H258325   0.270   0.080   0.049 -2.5738  0.2512  1.1976
12304TIP3   OH258326   3.564   1.932  13.329  0.5861 -0.6480  0.1036
12304TIP3    H158327   3.593   2.002  13.271 -1.4430  0.6793  0.5932
12304TIP3    H258328   3.566   1.853  13.275 -0.1157  0.3574 -1.4425
12305TIP3   OH258329   1.435   2.409  15.263  0.2934  0.1230  0.5596
12305TIP3    H158330   1.465   2.369  15.344 -1.2735 -1.5259  0.3801
12305TIP3    H258331   1.422   2.336  15.203 -0.6263  1.1009 -0.4887
12306TIP3   OH258332   1.250   1.323  12.140 -0.2888 -0.0002 -0.2517
12306TIP3    H158333   1.244   1.235  12.177  1.4860 -0.2677 -0.5359
12306TIP3    H258334   1.208   1.315  12.054 -2.5245  0.1229  0.7594
12307TIP3   OH258335   5.422   1.467  12.635 -0.1468 -0.3147  0.1875
12307TIP3    H158336   5.356   1.437  12.698 -0.8749 -0.0899 -0.4472
12307TIP3    H258337   5.444   1.555  12.665 -0.2054 -0.3552  0.3535
12308TIP3   OH258338   1.154   2.931  16.872  0.2230  0.2014 -0.5604
12308TIP3    H158339   1.089   2.891  16.930 -0.7522  1.8016 -0.5107
12308TIP3    H258340   1.238   2.907  16.912 -0.3655 -0.4424  0.3431
12309TIP3   OH258341   6.265   0.516   0.127  0.2544 -0.8375  0.0754
12309TIP3    H158342   6.204   0.502   0.199 -0.4905 -0.7266 -0.5189
12309TIP3    H258343   6.209   0.537   0.052  0.9303 -2.0522 -0.8059
12310TIP3   OH258344   1.373   6.131   1.220 -0.1021  0.3306  0.5521
12310TIP3    H158345   1.304   6.192   1.194  0.1213  0.9982  1.4512
12310TIP3    H258346   1.349   6.103   1.308 -0.0702 -0.7157  0.2415
12311TIP3   OH258347   0.329   3.235   2.765 -0.0027 -0.0671  0.1038
12311TIP3    H158348   0.333   3.282   2.682 -0.2841  0.9405  0.6384
12311TIP3    H258349   0.326   3.304   2.831 -2.5970 -0.7753  0.8300
12312TIP3   OH258350   1.307   6.625   3.119 -0.5159  0.1433 -0.0363
12312TIP3    H158351   1.223   6.613   3.075 -0.0620  0.5510 -1.0425
12312TIP3    H258352   1.284   6.659   3.206 -1.3469  2.9304 -1.2221
12313TIP3   OH258353   0.384   5.977   1.183 -0.3512 -0.2582  0.6476
12313TIP3    H158354   0.374   6.008   1.273  0.4267  1.3997  0.1969
12313TIP3    H258355   0.439   6.043   1.140  0.1281 -1.5138 -0.7910
12314TIP3   OH258356   3.243   5.190   1.441 -0.0686  0.3592 -0.0189
12314TIP3    H158357   3.331   5.218   1.415 -0.0245 -1.1322 -1.6582
12314TIP3    H258358   3.194   5.188   1.359 -1.5715  0.8848  0.8357
12315TIP3   OH258359   0.108   1.343   4.036  0.7026  0.1545 -0.0249
12315TIP3    H158360   0.161   1.281   4.087  0.1029 -1.2626 -1.0744
12315TIP3    H258361   0.018   1.321   4.058  0.4627  0.1042 -1.0113
12316TIP3   OH258362   3.991   6.324  11.608  0.4643 -0.1095  0.4472
12316TIP3    H158363   4.053   6.275  11.555  1.4143 -0.2400  1.6526
12316TIP3    H258364   4.045   6.373  11.670 -0.4653  2.0530 -0.3317
12317TIP3   OH258365   6.389   2.035   1.406 -0.1292 -0.1567 -0.2999
12317TIP3    H158366   6.321   2.010   1.343 -0.7245  0.0142  0.2703
12317TIP3    H258367   6.458   2.073   1.351 -1.8010  2.6104 -0.6957
12318TIP3   OH258368   0.661   4.069   2.331  0.5959  0.0790  0.2461
12318TIP3    H158369   0.628   4.157   2.348  1.4898  0.3004  0.8883
12318TIP3    H258370   0.744   4.082   2.285  0.0847 -0.4633 -0.8646
12319TIP3   OH258371   0.681   4.023   5.834 -0.1584  0.1613  0.3901
12319TIP3    H158372   0.630   3.966   5.892 -1.2295  0.1638 -0.5170
12319TIP3    H258373   0.621   4.093   5.810  0.5263  0.5932 -0.1054
12320TIP3   OH258374   2.949   5.223   3.819  0.0156  0.0917  0.2537
12320TIP3    H158375   3.025   5.272   3.788  0.6726 -0.1710  1.3703
12320TIP3    H258376   2.891   5.290   3.856 -0.8810  0.4320 -1.6663
12321TIP3   OH258377   2.196   4.567  14.051 -0.8151 -0.0604  0.4922
12321TIP3    H158378   2.287   4.542  14.069 -1.4180 -1.0317  2.3724
12321TIP3    H258379   2.199   4.601  13.961  1.2984 -0.5757  0.3000
12322TIP3   OH258380   4.611   1.689   4.557  0.1826  0.2330  0.1016
12322TIP3    H158381   4.559   1.745   4.614 -0.0631  0.0273  0.0813
12322TIP3    H258382   4.688   1.741   4.535 -0.3258  0.7898 -0.3948
12323TIP3   OH258383   0.085   2.763  10.817  0.7424  0.1763 -0.6419
12323TIP3    H158384   0.173   2.747  10.782  1.3381  2.3302 -0.3029
12323TIP3    H258385   0.030   2.775  10.739  1.8313  3.8044 -1.0442
12324TIP3   OH258386   2.940   2.663   5.125 -0.2224  0.0130 -0.0506
12324TIP3    H158387   2.867   2.655   5.186  0.2965  1.1552  0.7570
12324TIP3    H258388   3.008   2.708   5.175  1.8920 -2.8919 -0.0694
12325TIP3   OH258389   1.593   2.881  10.944  0.2268 -0.0612 -0.1234
12325TIP3    H158390   1.673   2.885  10.891  0.7571 -1.9356  0.4709
12325TIP3    H258391   1.531   2.830  10.891 -0.3588  0.7887 -0.2810
12326TIP3   OH258392   0.714   2.524  13.872 -0.0222 -0.3714  0.1075
12326TIP3    H158393   0.679   2.456  13.814 -0.0505 -1.7691  1.6735
12326TIP3    H258394   0.638   2.556  13.920  0.1073  0.2489 -0.0943
12327TIP3   OH258395   5.367   0.481  14.458 -0.3482  0.2080 -0.0446
12327TIP3    H158396   5.311   0.410  14.492  1.1623 -0.9718  0.0838
12327TIP3    H258397   5.424   0.504  14.531  2.2081 -1.6130 -1.3044
12328TIP3   OH258398   5.665   1.993   4.297  0.3085 -0.5829 -0.1541
12328TIP3    H158399   5.758   2.013   4.293  0.4017 -0.7068  1.0382
12328TIP3    H258400   5.661   1.897   4.300  0.0100 -0.7096 -2.5718
12329TIP3   OH258401   1.470   0.034   3.476 -0.9448  0.4255  0.7071
12329TIP3    H158402   1.430   0.121   3.483 -0.1571  0.7178  2.0355
12329TIP3    H258403   1.529   0.042   3.401 -1.0214  0.9859  0.6966
12330TIP3   OH258404   5.894   2.434  12.432  0.1437  0.2775 -0.2384
12330TIP3    H158405   5.815   2.394  12.469  0.8150 -0.2543  0.6494
12330TIP3    H258406   5.899   2.520  12.474  0.0388  0.3188 -0.3078
12331TIP3   OH258407   1.759   5.992  13.948 -0.1641  0.2835  0.3605
12331TIP3    H158408   1.797   6.034  13.870  1.3851 -1.0324  0.3661
12331TIP3    H258409   1.832   5.986  14.010 -0.1436 -2.7943  0.1908
12332TIP3   OH258410   5.331   2.921  13.184 -0.7026 -0.3689 -0.1782
12332TIP3    H158411   5.261   2.870  13.225  0.7650 -3.1835 -0.9182
12332TIP3    H258412   5.411   2.891  13.227  0.4062  0.1290 -1.7821
12333TIP3   OH258413   4.154   5.227   0.205 -0.1471 -0.0074 -0.1651
12333TIP3    H158414   4.136   5.165   0.134 -1.2633 -1.0931  1.0077
12333TIP3    H258415   4.113   5.309   0.177 -1.9613 -0.8468 -0.1338
12334TIP3   OH258416   3.999   3.744  14.561 -0.3715 -0.2896  0.0121
12334TIP3    H158417   3.926   3.693  14.526 -0.3471  1.8330 -3.5376
12334TIP3    H258418   3.959   3.800  14.628 -1.3193 -1.3862  0.4018
12335TIP3   OH258419   1.580   1.248  16.439 -0.2813  0.1195 -0.2661
12335TIP3    H158420   1.491   1.217  16.458  0.1153 -1.5847 -1.0262
12335TIP3    H258421   1.575   1.343  16.452 -1.5993 -0.1879  2.0436
12336TIP3   OH258422   3.302   4.063  11.627  0.6181  0.0449 -0.1561
12336TIP3    H158423   3.340   4.078  11.540  2.4468  2.6335  0.9604
12336TIP3    H258424   3.377   4.049  11.684 -0.5999 -3.0195  0.9088
12337TIP3   OH258425   1.277   2.543   0.623  0.6910 -0.7694 -0.2593
12337TIP3    H158426   1.231   2.529   0.706  1.7087 -0.7780  0.3080
12337TIP3    H258427   1.348   2.603   0.644  0.8767 -0.6470 -1.1673
12338TIP3   OH258428   0.315   5.828   4.866 -0.5087  0.2873  0.0123
12338TIP3    H158429   0.239   5.832   4.808 -1.3694  0.1355  1.1010
12338TIP3    H258430   0.343   5.736   4.861 -0.9280  0.1435  0.2714
12339TIP3   OH258431   6.167   1.728   4.997 -0.0122 -0.5112 -0.3469
12339TIP3    H158432   6.260   1.734   4.975 -0.0562 -0.5090 -0.5384
12339TIP3    H258433   6.149   1.809   5.046 -0.5903  0.9978 -2.8728
12340TIP3   OH258434   4.365   1.587  10.486  0.2121 -0.4480 -0.0857
12340TIP3    H158435   4.297   1.530  10.451 -0.2025 -0.7092  1.1013
12340TIP3    H258436   4.327   1.675  10.481 -0.5823 -0.6884  1.3830
12341TIP3   OH258437   5.397   6.754  11.212 -0.2054  0.0682 -0.3515
12341TIP3    H158438   5.381   6.699  11.135 -0.1693 -1.0112  0.3918
12341TIP3    H258439   5.313   6.800  11.226 -1.0425 -1.5921  0.3947
12342TIP3   OH258440   1.396   2.525   0.919  0.0866 -0.3666 -0.2058
12342TIP3    H158441   1.364   2.451   0.971  0.0271 -0.6296 -0.6158
12342TIP3    H258442   1.342   2.599   0.947 -0.7071 -0.7494 -0.7007
12343TIP3   OH258443   4.618   2.615  16.422 -0.1597  0.2855 -0.3493
12343TIP3    H158444   4.679   2.615  16.497  0.0508 -0.9769 -0.5014
12343TIP3    H258445   4.536   2.583  16.458  0.0066 -0.5492 -0.7032
12344TIP3   OH258446   4.500   1.919  16.427 -0.4153  0.6843  0.1346
12344TIP3    H158447   4.466   1.895  16.340  1.1248 -0.2257 -0.2558
12344TIP3    H258448   4.422   1.945  16.476 -1.5025 -0.0508 -1.1016
12345TIP3   OH258449   1.754   1.137   1.958 -0.2422 -0.4900 -0.0144
12345TIP3    H158450   1.802   1.073   1.905  0.1577 -0.3810  0.2091
12345TIP3    H258451   1.818   1.167   2.023 -1.0308 -1.3791  1.1922
12346TIP3   OH258452   1.413   5.532   1.855 -0.1286 -0.3523  0.2343
12346TIP3    H158453   1.370   5.463   1.805 -1.4422 -2.5085  3.9549
12346TIP3    H258454   1.342   5.594   1.875  0.4645  0.6893 -0.7472
12347TIP3   OH258455   6.048   6.211   5.556  0.1588  0.1087 -0.4325
12347TIP3    H158456   6.050   6.217   5.460  2.2417 -1.3300 -0.5506
12347TIP3    H258457   6.051   6.301   5.586 -0.9151  0.5961 -1.6963
12348TIP3   OH258458   4.491   5.581   2.169  0.2414 -0.3438  0.2315
12348TIP3    H158459   4.459   5.640   2.100  0.3669 -0.0466  0.4262
12348TIP3    H258460   4.567   5.626   2.206  0.1717 -0.4999  0.5675
12349TIP3   OH258461   5.721   6.472   4.012  0.5564 -0.2236 -0.7506
12349TIP3    H158462   5.736   6.447   4.103 -0.3194  2.0231  0.0660
12349TIP3    H258463   5.679   6.395   3.973  1.5858 -1.4872  0.5044
12350TIP3   OH258464   4.283   3.240  16.629 -0.2496 -0.0987  0.1288
12350TIP3    H158465   4.370   3.202  16.612  0.0791  0.6349  0.1169
12350TIP3    H258466   4.288   3.272  16.719 -0.7080 -0.5710  0.3249
12351TIP3   OH258467   0.848   1.919  13.311 -0.2347 -0.1035  0.1423
12351TIP3    H158468   0.814   1.880  13.231 -0.3071  2.1390 -1.0226
12351TIP3    H258469   0.794   1.997  13.324  1.5993  1.1389  0.7303
12352TIP3   OH258470   5.037   3.179  14.832 -0.3753 -0.1554  1.0471
12352TIP3    H158471   5.045   3.173  14.927 -0.3447 -0.4994  1.0259
12352TIP3    H258472   4.998   3.264  14.816  2.3954  1.2425  1.2036
12353TIP3   OH258473   5.110   0.046  11.236 -0.0057 -0.3098 -0.2211
12353TIP3    H158474   5.105   0.067  11.330  0.2264 -1.6582  0.1131
12353TIP3    H258475   5.060   0.115  11.193  1.3843  1.3886  0.7276
12354TIP3   OH258476   2.109   6.449  11.636 -0.1216  0.0721  0.0290
12354TIP3    H158477   2.148   6.362  11.622 -0.5170 -0.4618  1.9585
12354TIP3    H258478   2.168   6.492  11.698 -0.3951  0.8509 -0.2421
12355TIP3   OH258479   6.441   5.573   2.443  0.0017  0.1841 -0.4311
12355TIP3    H158480   6.477   5.493   2.482  0.3951 -0.3969 -1.9134
12355TIP3    H258481   6.474   5.573   2.354  1.5713  2.9647  0.0064
12356TIP3   OH258482   3.884   1.909  13.460 -0.5006 -0.2688 -0.0502
12356TIP3    H158483   3.867   1.835  13.518 -0.5535 -0.1647  0.0672
12356TIP3    H258484   3.979   1.922  13.466 -0.7006  0.7398  1.2305
12357TIP3   OH258485   3.518   6.386  17.047  0.0988 -0.6683  0.4525
12357TIP3    H158486   3.523   6.440  17.126  0.1367  0.8783 -0.5629
12357TIP3    H258487   3.607   6.352  17.035  0.2863 -0.2557  0.6424
12358TIP3   OH258488   3.763   3.336  15.536  0.7463  0.4288 -0.0272
12358TIP3    H158489   3.736   3.425  15.516 -0.5715  0.5369  1.9173
12358TIP3    H258490   3.714   3.282  15.474 -0.7521  0.9194  0.6776
12359TIP3   OH258491   5.256   1.856  17.081 -0.2639 -0.0553  0.1998
12359TIP3    H158492   5.330   1.881  17.025 -1.2665 -0.0757 -1.1795
12359TIP3    H258493   5.224   1.774  17.043 -0.3989 -0.5759  1.3916
12360TIP3   OH258494   3.749   5.371   0.889  0.1854 -0.2912  0.5145
12360TIP3    H158495   3.799   5.383   0.970 -0.4935  0.8809  0.7915
12360TIP3    H258496   3.739   5.277   0.880  0.1834 -0.4416  1.8685
12361TIP3   OH258497   3.113   6.151   3.499 -0.4698  0.0869  0.1653
12361TIP3    H158498   3.099   6.062   3.531 -0.0996 -0.2188 -0.4985
12361TIP3    H258499   3.173   6.191   3.562 -0.9413 -0.0085  0.6720
12362TIP3   OH258500   0.268   3.489   5.305 -0.0042 -0.1552  0.3450
12362TIP3    H158501   0.222   3.507   5.223 -0.8513  1.3339  1.1122
12362TIP3    H258502   0.220   3.538   5.371  0.5041 -1.5256  1.8009
12363TIP3   OH258503   6.612   5.062   1.114 -0.6121  0.3021 -0.2370
12363TIP3    H158504   6.672   5.100   1.178 -2.0917  0.7446  0.9389
12363TIP3    H258505   6.593   5.134   1.054 -0.6316  0.4124 -0.1001
12364TIP3   OH258506   4.246   0.371  13.103  0.0215  0.0686 -0.6315
12364TIP3    H158507   4.158   0.403  13.080  1.5147  3.8375 -1.8971
12364TIP3    H258508   4.260   0.403  13.192  0.7709  1.3073 -1.1620
12365TIP3   OH258509   3.790   6.620   3.476 -0.1710 -0.2724  0.0658
12365TIP3    H158510   3.751   6.639   3.391  1.7502  2.8551 -0.2644
12365TIP3    H258511   3.867   6.565   3.456 -0.5647 -0.8106 -0.0040
12366TIP3   OH258512   3.623   6.229  10.764  0.0960  0.0989  0.0066
12366TIP3    H158513   3.637   6.323  10.748  1.4722 -0.0193  0.3598
12366TIP3    H258514   3.530   6.221  10.782  0.1272  1.5795  1.0318
12367TIP3   OH258515   3.312   3.519   3.369 -0.0216  0.0111  0.1258
12367TIP3    H158516   3.408   3.512   3.373 -0.1743 -3.2343  1.1408
12367TIP3    H258517   3.286   3.548   3.456  0.0560  5.8068 -1.3925
12368TIP3   OH258518   4.354   6.166   4.294 -0.6869  0.2143  0.3152
12368TIP3    H158519   4.401   6.208   4.222 -0.6188 -0.2623  0.0801
12368TIP3    H258520   4.317   6.087   4.256  1.3954 -1.3608  1.3363
12369TIP3   OH258521   3.423   1.081  15.192 -0.1379  0.2851  0.0709
12369TIP3    H158522   3.476   1.008  15.224 -0.8373 -0.1686  0.2253
12369TIP3    H258523   3.482   1.156  15.192 -0.0342  0.2603  2.1728
12370TIP3   OH258524   0.163   4.615   0.815  0.2782 -0.2637  0.4241
12370TIP3    H158525   0.198   4.704   0.804  1.9394 -0.6642  1.9230
12370TIP3    H258526   0.135   4.611   0.906 -1.0007 -0.9129  0.0302
12371TIP3   OH258527   4.299   0.798   5.800 -0.3876 -0.2123  0.1781
12371TIP3    H158528   4.379   0.850   5.788 -0.4836 -0.1157 -0.0405
12371TIP3    H258529   4.234   0.840   5.743 -0.5677 -0.3500  0.2817
12372TIP3   OH258530   6.237   6.412  16.659  0.0447  0.1258 -0.1510
12372TIP3    H158531   6.243   6.487  16.600 -1.1638 -0.4916 -1.1010
12372TIP3    H258532   6.150   6.375  16.644  0.6324 -1.5330  0.2064
12373TIP3   OH258533   5.765   1.961   6.245 -0.0400  0.2136 -0.0441
12373TIP3    H158534   5.716   1.885   6.276  1.0263  0.5342  2.6045
12373TIP3    H258535   5.699   2.031   6.241 -0.5404 -0.2577 -0.2472
12374TIP3   OH258536   5.907   1.537  16.333 -0.2631 -0.8293  0.1043
12374TIP3    H158537   5.993   1.575  16.353 -0.1352 -0.7795 -0.4923
12374TIP3    H258538   5.873   1.508  16.417 -0.6575  1.2273  0.7080
12375TIP3   OH258539   6.306   1.929  14.041  0.6178  0.0437  0.2595
12375TIP3    H158540   6.210   1.930  14.045  0.6426 -0.4872  1.3656
12375TIP3    H258541   6.328   1.836  14.030  0.9662  0.3392 -1.7800
12376TIP3   OH258542   0.203   4.880   0.823 -0.1092 -0.7829  0.0488
12376TIP3    H158543   0.208   4.882   0.919 -0.3488 -1.0360  0.0675
12376TIP3    H258544   0.290   4.909   0.795  0.2453 -1.5118  0.3503
12377TIP3   OH258545   2.835   6.783   5.519 -0.3365 -0.2808 -0.6611
12377TIP3    H158546   2.797   6.813   5.601 -1.2205 -0.5581 -0.9602
12377TIP3    H258547   2.876   6.861   5.481 -2.4525  0.5550 -1.3524
12378TIP3   OH258548   6.751   3.203  14.838 -0.2234  0.1823  0.4476
12378TIP3    H158549   6.812   3.236  14.771  0.7297  1.7496  2.0017
12378TIP3    H258550   6.672   3.256  14.826  0.5181  1.5907  1.5285
12379TIP3   OH258551   0.219   2.165   1.023  0.3523  0.2720 -0.0695
12379TIP3    H158552   0.145   2.104   1.030  0.1703  0.2930 -1.4875
12379TIP3    H258553   0.292   2.118   1.063 -0.0458 -0.4216 -0.1278
12380TIP3   OH258554   6.343   1.913   0.732  0.4904  0.5267 -0.0728
12380TIP3    H158555   6.324   1.936   0.641 -1.5584  0.0629  0.1748
12380TIP3    H258556   6.438   1.911   0.737  0.6737 -0.0688 -2.3806
12381TIP3   OH258557   6.743   0.164  16.932  0.2034 -0.1381  0.5476
12381TIP3    H158558   6.763   0.163  16.839 -2.1990  2.2424 -0.0982
12381TIP3    H258559   6.668   0.105  16.942 -0.4504  0.7144  0.7200
12382TIP3   OH258560   5.097   6.673  14.598  0.5713 -0.6462 -0.1814
12382TIP3    H158561   5.017   6.702  14.641 -0.5178 -2.6190 -0.7110
12382TIP3    H258562   5.166   6.726  14.637 -0.7386 -0.2465  1.7544
12383TIP3   OH258563   6.553   0.569  16.158  0.5036  0.1130 -0.2354
12383TIP3    H158564   6.573   0.476  16.150  0.2357 -0.0340  0.6565
12383TIP3    H258565   6.636   0.613  16.143  0.6335 -0.2701 -0.6605
12384TIP3   OH258566   2.112   6.679  12.890  0.3039 -0.2114 -0.4977
12384TIP3    H158567   2.170   6.644  12.957  1.4990  0.6463 -1.0473
12384TIP3    H258568   2.069   6.603  12.853 -0.3907 -0.7073  1.2215
12385TIP3   OH258569   5.420   1.629  16.641 -0.0910 -0.4429  0.6482
12385TIP3    H158570   5.467   1.569  16.698  0.7946 -0.5958 -0.2113
12385TIP3    H258571   5.380   1.572  16.575  0.8836 -0.1078 -0.2630
12386TIP3   OH258572   4.402   3.741  13.999 -0.6088 -0.2893 -0.5103
12386TIP3    H158573   4.393   3.715  13.907  0.1241  0.1584 -0.7209
12386TIP3    H258574   4.328   3.800  14.015  0.3094  1.2007 -1.4069
12387TIP3   OH258575   1.179   3.629  12.322  0.3693 -0.3154  0.2627
12387TIP3    H158576   1.184   3.537  12.296 -2.1324 -0.9530  1.7003
12387TIP3    H258577   1.251   3.641  12.383 -0.2679 -1.8424  1.3717
12388TIP3   OH258578   6.778   1.115   4.999 -0.0921  0.0289  0.3808
12388TIP3    H158579   6.752   1.154   4.916 -0.4345 -0.5713  0.2018
12388TIP3    H258580   6.701   1.123   5.055 -0.0717 -0.1374  0.4325
12389TIP3   OH258581   1.150   1.151   5.632 -0.2392  0.3428  0.1676
12389TIP3    H158582   1.207   1.075   5.633 -1.0628 -0.3013  1.7011
12389TIP3    H258583   1.206   1.223   5.661  0.4900  0.3195 -1.0930
12390TIP3   OH258584   5.968   3.478   4.629  0.3212 -0.1703  0.0237
12390TIP3    H158585   5.957   3.414   4.699 -2.4221 -0.5138 -0.5716
12390TIP3    H258586   6.061   3.499   4.629  1.0064 -2.7841  1.4234
12391TIP3   OH258587   6.684   0.438   1.964 -0.3599  0.0011 -0.0105
12391TIP3    H158588   6.618   0.458   2.030 -0.0168  0.8264  0.0826
12391TIP3    H258589   6.738   0.516   1.958 -0.3952 -0.0438 -1.2914
12392TIP3   OH258590   2.537   2.381   0.766  0.6776  1.0029 -0.2081
12392TIP3    H158591   2.622   2.348   0.739  0.2731 -1.1121  0.9349
12392TIP3    H258592   2.473   2.321   0.728 -0.2790  2.0100 -0.2737
12393TIP3   OH258593   1.216   2.298  14.478  0.5235  0.2017  0.4267
12393TIP3    H158594   1.140   2.298  14.536  0.8896 -0.8025  0.9311
12393TIP3    H258595   1.197   2.230  14.413 -0.0838  1.6093 -0.9486
12394TIP3   OH258596   0.763   1.551  15.513 -0.2133  0.2176  0.4111
12394TIP3    H158597   0.806   1.613  15.455 -0.1898 -0.3218 -0.1660
12394TIP3    H258598   0.685   1.597  15.544 -0.2468  0.4988 -0.0817
12395TIP3   OH258599   3.222   1.209  11.630  0.2030 -0.1792  0.0033
12395TIP3    H158600   3.312   1.233  11.653  0.0268  0.6428 -0.1251
12395TIP3    H258601   3.179   1.293  11.613  0.0295 -0.6775 -2.2672
12396TIP3   OH258602   6.185   4.402  10.601 -0.0012 -0.4498  0.1279
12396TIP3    H158603   6.272   4.387  10.637  0.0447 -1.9036 -0.5100
12396TIP3    H258604   6.137   4.448  10.670  1.3953  0.8050  0.2975
12397TIP3   OH258605   5.749   3.026   3.416  0.3930  0.5140 -0.3961
12397TIP3    H158606   5.699   3.066   3.488  0.1405  0.3494 -0.4781
12397TIP3    H258607   5.839   3.023   3.449  0.6551  2.2288 -0.8414
12398TIP3   OH258608   2.963   5.168  17.133  0.1421 -0.4290  0.0570
12398TIP3    H158609   3.004   5.113  17.065 -0.0250 -0.4763 -0.0046
12398TIP3    H258610   2.919   5.105  17.190  0.8501 -0.4523  0.6017
12399TIP3   OH258611   0.890   3.174   0.649 -0.1650  0.0615 -0.3223
12399TIP3    H158612   0.979   3.158   0.618  0.8310  1.2091  1.7469
12399TIP3    H258613   0.859   3.248   0.597  0.4513  0.2814 -0.3874
12400TIP3   OH258614   5.042   5.519  11.807  0.8937 -0.0598  0.4045
12400TIP3    H158615   5.021   5.546  11.718  2.8912  1.1888  0.2520
12400TIP3    H258616   4.961   5.533  11.856  0.0398  0.1503 -1.0080
12401TIP3   OH258617   1.714   5.425  16.830 -0.3941  0.0012 -0.0725
12401TIP3    H158618   1.740   5.517  16.832 -1.1693  0.2764 -1.3085
12401TIP3    H258619   1.639   5.420  16.889 -1.1427  0.4542 -0.9561
12402TIP3   OH258620   4.195   4.753  16.647  1.1145 -0.0184 -0.8760
12402TIP3    H158621   4.133   4.825  16.652  0.5605 -0.6012  1.9266
12402TIP3    H258622   4.253   4.765  16.721  2.1730 -1.4453 -1.4213
12403TIP3   OH258623   4.643   5.348  11.247 -0.0430  0.1288  0.9035
12403TIP3    H158624   4.610   5.269  11.290 -0.3971  0.3135  0.9739
12403TIP3    H258625   4.735   5.329  11.229 -1.0699 -2.1000 -3.2052
12404TIP3   OH258626   0.893   2.940  13.336  0.3625  0.1807 -0.4015
12404TIP3    H158627   0.952   2.947  13.411 -0.7281  3.3329  0.3118
12404TIP3    H258628   0.814   2.899  13.371  0.6396 -0.2996 -0.3419
12405TIP3   OH258629   3.956   1.477   6.432 -0.1462 -0.2019 -0.1170
12405TIP3    H158630   3.981   1.530   6.508 -0.9986  0.1750 -0.0937
12405TIP3    H258631   3.880   1.427   6.461  0.6715 -1.5085 -0.1210
12406TIP3   OH258632   0.755   3.423   5.365  0.3547  0.3255 -0.5080
12406TIP3    H158633   0.728   3.434   5.274 -0.4763 -1.7976 -0.5738
12406TIP3    H258634   0.693   3.361   5.401  1.0791  0.6085  1.3430
12407TIP3   OH258635   3.034   6.536   4.328 -0.1071 -0.0356 -0.3654
12407TIP3    H158636   2.958   6.544   4.387 -1.4054 -3.0413 -1.4009
12407TIP3    H258637   3.104   6.504   4.384 -0.6300 -0.5141  0.0354
12408TIP3   OH258638   0.781   6.650   5.460  0.1558 -0.1744  0.5283
12408TIP3    H158639   0.741   6.576   5.415  1.8177  0.4221 -2.1152
12408TIP3    H258640   0.876   6.633   5.455  0.5261  1.6441  0.7212
12409TIP3   OH258641   2.732   4.185   1.951  0.4505  0.2030  0.3269
12409TIP3    H158642   2.733   4.267   1.902 -1.4796 -0.6815 -1.3188
12409TIP3    H258643   2.719   4.211   2.042 -0.7860  1.7147 -0.2449
12410TIP3   OH258644   0.860   2.361   3.670 -0.0467 -0.2586 -0.2858
12410TIP3    H158645   0.911   2.296   3.622  0.5908 -0.1671  0.2471
12410TIP3    H258646   0.800   2.309   3.724  0.8546 -0.4466  0.5734
12411TIP3   OH258647   6.431   4.614   3.060 -0.2214  0.2092  0.2425
12411TIP3    H158648   6.367   4.597   3.129  0.6462 -2.2945  0.5212
12411TIP3    H258649   6.389   4.583   2.980  0.1549 -0.2760  0.2313
12412TIP3   OH258650   2.490   1.000  13.936 -0.1906 -0.0632  0.1874
12412TIP3    H158651   2.473   0.954  14.018  1.0020 -2.1636 -0.6715
12412TIP3    H258652   2.543   1.076  13.961 -0.0371 -0.5451  1.3651
12413TIP3   OH258653   2.921   4.666   1.432 -0.5969 -0.6207  0.0402
12413TIP3    H158654   2.898   4.740   1.489  1.3325  0.2927 -0.2611
12413TIP3    H258655   2.907   4.699   1.343 -0.4958 -0.8993 -0.0806
12414TIP3   OH258656   1.013   5.420   5.780  0.1827 -0.2692 -0.4162
12414TIP3    H158657   1.090   5.396   5.831 -0.2033  0.3418  0.4822
12414TIP3    H258658   1.047   5.473   5.708  0.4669  1.3480  0.8661
12415TIP3   OH258659   4.879   1.411   4.525 -0.1337 -0.3485 -0.2271
12415TIP3    H158660   4.960   1.360   4.536 -0.7358 -1.4867 -0.8808
12415TIP3    H258661   4.810   1.351   4.552 -0.8586  0.1970 -0.8473
12416TIP3   OH258662   4.210   0.417   0.919  0.3731  0.3599  0.0241
12416TIP3    H158663   4.271   0.450   0.985 -0.6229  0.8066  0.7468
12416TIP3    H258664   4.123   0.427   0.959 -0.4667  2.4876 -2.0800
12417TIP3   OH258665   4.005   3.249  14.728  0.5217 -0.5660 -0.2813
12417TIP3    H158666   3.944   3.237  14.801 -1.5566  1.5922 -1.5163
12417TIP3    H258667   4.000   3.168  14.679 -0.0492 -1.0667  0.5749
12418TIP3   OH258668   3.542   2.405  14.744 -0.7251 -0.4732 -0.4449
12418TIP3    H158669   3.513   2.364  14.663  2.3866 -2.7473 -0.5927
12418TIP3    H258670   3.516   2.344  14.813 -0.7767 -0.0177 -0.0534
12419TIP3   OH258671   4.564   3.104   0.541 -0.3020 -0.2356 -0.0778
12419TIP3    H158672   4.541   3.090   0.449 -0.3043 -0.1641 -0.0885
12419TIP3    H258673   4.486   3.146   0.578 -0.6190 -1.0018  0.1534
12420TIP3   OH258674   3.770   3.012   2.153  0.3235  0.1418  0.1169
12420TIP3    H158675   3.717   3.018   2.074 -1.6477 -0.6345  1.3207
12420TIP3    H258676   3.728   3.071   2.215  1.2357 -0.0331  0.9375
12421TIP3   OH258677   5.328   4.183  12.247 -0.4240  0.0404 -0.4573
12421TIP3    H158678   5.389   4.231  12.302 -0.9961  0.5438 -0.2464
12421TIP3    H258679   5.375   4.170  12.164  0.4327 -0.7137  0.1355
12422TIP3   OH258680   0.236   5.589  14.431  0.6580 -0.3213 -0.2708
12422TIP3    H158681   0.312   5.533  14.415  0.6631 -0.6643  0.9365
12422TIP3    H258682   0.171   5.559  14.367  1.6264  0.1867 -1.5329
12423TIP3   OH258683   4.293   6.024   2.129 -0.1518  0.5480 -0.5949
12423TIP3    H158684   4.206   6.064   2.122 -0.3235  0.0169 -1.9330
12423TIP3    H258685   4.343   6.062   2.057  0.2539 -0.2295 -0.7425
12424TIP3   OH258686   5.815   0.435   6.642  0.1504  0.1060  0.0709
12424TIP3    H158687   5.722   0.447   6.659  0.3919  0.3403  1.3305
12424TIP3    H258688   5.853   0.522   6.651  0.5575 -0.0622  0.0069
12425TIP3   OH258689   3.169   1.498   6.118  0.5648 -0.0501  0.5457
12425TIP3    H158690   3.100   1.442   6.082 -1.3556  2.4303  0.1126
12425TIP3    H258691   3.239   1.495   6.054 -1.1489  1.1179 -1.5049
12426TIP3   OH258692   3.363   2.970  15.462 -0.4756 -0.2912 -0.6333
12426TIP3    H158693   3.324   2.977  15.549  1.6433 -0.2476  0.3762
12426TIP3    H258694   3.411   2.887  15.464  0.4889  0.2268 -1.3707
12427TIP3   OH258695   2.364   3.531  14.908 -0.1080 -0.2835 -0.3346
12427TIP3    H158696   2.336   3.559  14.996  0.1390 -0.9162 -0.0507
12427TIP3    H258697   2.345   3.607  14.852 -0.7649 -0.0636  0.1648
12428TIP3   OH258698   1.949   2.499   5.249  0.4280 -0.3875 -0.0421
12428TIP3    H158699   2.001   2.419   5.257  0.4215 -0.4183 -0.2965
12428TIP3    H258700   1.858   2.469   5.254  0.4117 -0.4600 -0.6258
12429TIP3   OH258701   4.953   0.959   0.116  0.6546 -0.0732  0.5111
12429TIP3    H158702   4.867   0.998   0.133  0.4477 -0.0542 -0.4913
12429TIP3    H258703   4.966   0.898   0.188 -0.1153  0.0669  0.7864
12430TIP3   OH258704   0.811   6.102  16.904  0.4710 -0.1331 -0.0758
12430TIP3    H158705   0.809   6.034  16.972  0.3793 -2.2378 -2.0533
12430TIP3    H258706   0.899   6.095  16.866  0.7726  1.5123  0.2538
12431TIP3   OH258707   2.863   4.626   4.959  0.1128 -0.7216 -0.3835
12431TIP3    H158708   2.800   4.554   4.955 -0.5207 -0.1617 -3.2183
12431TIP3    H258709   2.905   4.624   4.873  1.9301  0.7118  0.4295
12432TIP3   OH258710   2.253   2.737  11.768  0.3554  0.0373  1.2084
12432TIP3    H158711   2.338   2.701  11.794 -0.3690 -1.7340  1.2722
12432TIP3    H258712   2.223   2.679  11.699 -0.7806  0.6716  1.1468
12433TIP3   OH258713   2.553   6.011  13.966 -0.1385 -0.1997  0.7352
12433TIP3    H158714   2.606   5.949  13.917  0.8466  0.1799  1.2881
12433TIP3    H258715   2.555   6.091  13.913 -0.0359 -0.1443  0.8219
12434TIP3   OH258716   3.040   3.152   5.704 -0.4156  0.7225 -0.4449
12434TIP3    H158717   3.134   3.171   5.702 -0.3241  0.2333 -1.2701
12434TIP3    H258718   3.018   3.151   5.797  0.7133 -0.7182 -0.1537
12435TIP3   OH258719   4.510   4.460   2.285 -0.2253 -0.2107 -0.4271
12435TIP3    H158720   4.538   4.478   2.196  0.3796  0.6824 -0.0635
12435TIP3    H258721   4.417   4.482   2.286  0.2965  2.2008 -0.2156
12436TIP3   OH258722   2.043   0.173  11.925  0.0885 -0.5493  0.0239
12436TIP3    H158723   1.958   0.169  11.970  0.2360 -1.7124  0.2231
12436TIP3    H258724   2.039   0.254  11.875 -0.6727  0.0145  0.9563
12437TIP3   OH258725   6.131   5.695  13.478  0.5380 -0.7952  0.8005
12437TIP3    H158726   6.198   5.666  13.416 -1.1577  2.3126 -2.9316
12437TIP3    H258727   6.049   5.664  13.441 -0.5146  0.5773  1.8470
12438TIP3   OH258728   4.188   3.985  10.511 -0.9748 -0.4560 -0.2068
12438TIP3    H158729   4.135   3.914  10.548 -0.7519 -0.3370  0.3434
12438TIP3    H258730   4.124   4.053  10.488 -1.0506 -0.2224  0.6560
12439TIP3   OH258731   6.483   4.104  13.943 -0.3867 -0.4749  0.0979
12439TIP3    H158732   6.502   4.154  13.864 -0.3843 -1.6664 -0.6903
12439TIP3    H258733   6.550   4.036  13.945  0.4722  0.3455  1.9024
12440TIP3   OH258734   4.734   5.744  13.732 -0.8333 -0.0640 -0.1167
12440TIP3    H158735   4.692   5.767  13.815  0.0708  0.7290  0.1330
12440TIP3    H258736   4.781   5.663  13.750 -1.6823 -0.5978 -0.2205
12441TIP3   OH258737   3.431   4.519  15.473 -0.4888  0.2626 -0.8620
12441TIP3    H158738   3.391   4.511  15.560  0.5995  1.5095 -0.1996
12441TIP3    H258739   3.404   4.606  15.443  1.4753  1.0785 -0.4614
12442TIP3   OH258740   5.772   0.989  11.317  0.1725 -0.0870  0.6325
12442TIP3    H158741   5.855   1.008  11.359  0.8627  0.3558 -0.8702
12442TIP3    H258742   5.749   0.902  11.348  0.6442  0.2182  1.8946
12443TIP3   OH258743   6.158   1.624  16.447 -0.2948  0.1405  0.0560
12443TIP3    H158744   6.147   1.545  16.500  1.3065  0.3466  0.7416
12443TIP3    H258745   6.241   1.662  16.476  0.2726  0.6856 -2.0520
12444TIP3   OH258746   3.639   4.195  15.767 -0.7091 -0.2146 -0.0417
12444TIP3    H158747   3.698   4.122  15.748 -0.7583 -0.1123 -0.5972
12444TIP3    H258748   3.551   4.160  15.753 -0.6976  0.3652 -1.8964
12445TIP3   OH258749   0.982   1.300  14.137 -0.3093 -0.0053  0.8140
12445TIP3    H158750   0.997   1.384  14.095 -1.1213 -0.5554 -0.6402
12445TIP3    H258751   0.906   1.315  14.195 -0.3406  0.3005  0.6949
12446TIP3   OH258752   2.466   5.556  16.641  0.4646 -0.3752 -0.4840
12446TIP3    H158753   2.537   5.617  16.660 -0.0936  0.0715  0.2116
12446TIP3    H258754   2.465   5.497  16.717  0.9852 -1.2499 -1.1361
12447TIP3   OH258755   5.703   0.612  12.146  0.9106 -0.6263  0.9526
12447TIP3    H158756   5.743   0.544  12.092  1.1072 -0.2751  0.6524
12447TIP3    H258757   5.621   0.574  12.177  1.2617 -1.1835  1.2011
12448TIP3   OH258758   4.505   4.530  11.779  0.1986 -0.3551 -0.1263
12448TIP3    H158759   4.539   4.618  11.798 -0.5613 -0.2062  0.5917
12448TIP3    H258760   4.517   4.520  11.684  0.3279  0.5054 -0.2115
12449TIP3   OH258761   1.660   2.687  16.987  0.0393  0.3482  0.1253
12449TIP3    H158762   1.747   2.707  17.021 -0.4085  0.1147  1.4308
12449TIP3    H258763   1.674   2.611  16.930  1.1175  1.9718 -1.9130
12450TIP3   OH258764   0.831   3.643   1.374 -0.8184 -0.0638  0.3641
12450TIP3    H158765   0.817   3.548   1.369 -0.2158 -0.2512  1.7209
12450TIP3    H258766   0.892   3.654   1.447 -0.7967  1.3692  0.1552
12451TIP3   OH258767   6.585   5.226  12.574 -0.1057 -0.0874  0.1643
12451TIP3    H158768   6.551   5.284  12.642  0.7408 -1.2297  1.6376
12451TIP3    H258769   6.673   5.258  12.557  0.2308 -0.6915  0.7195
12452TIP3   OH258770   2.928   3.549  14.006 -0.6421 -0.6031  0.6029
12452TIP3    H158771   2.948   3.465  14.048  0.6596  0.1417  1.5323
12452TIP3    H258772   2.857   3.529  13.945 -0.3054 -2.3893  0.7575
12453TIP3   OH258773   1.184   1.442   0.637 -0.4809  0.3553  0.1289
12453TIP3    H158774   1.128   1.378   0.592  0.6880  0.0874 -0.9941
12453TIP3    H258775   1.123   1.493   0.691 -1.9064  0.4459 -1.4670
12454TIP3   OH258776   1.693   3.849  12.602  0.4813 -0.1360  0.2545
12454TIP3    H158777   1.759   3.786  12.573  1.6046  1.7886 -1.7150
12454TIP3    H258778   1.722   3.933  12.564 -0.7173  1.6745  2.9890
12455TIP3   OH258779   2.707   6.588  16.969  0.1109 -0.0106 -0.1077
12455TIP3    H158780   2.797   6.621  16.964  0.1676 -0.2252 -0.4767
12455TIP3    H258781   2.652   6.667  16.965  0.2701  0.0977 -0.1546
12456TIP3   OH258782   6.232   2.954  15.887 -0.1820  0.2324 -0.4172
12456TIP3    H158783   6.236   2.926  15.979  0.4039 -0.6679 -0.7100
12456TIP3    H258784   6.291   2.895  15.841  0.7701  1.6810 -1.1338
12457TIP3   OH258785   2.028   0.233  15.263 -0.3030 -0.0987 -0.2645
12457TIP3    H158786   2.043   0.328  15.255  2.6639 -0.5208 -1.2541
12457TIP3    H258787   2.064   0.210  15.348 -1.5392 -0.2986  0.2243
12458TIP3   OH258788   6.374   3.712   2.975  0.2166 -0.0441 -0.4346
12458TIP3    H158789   6.461   3.689   3.007  0.4283  0.5155 -0.5978
12458TIP3    H258790   6.342   3.779   3.035 -0.0526 -0.1590 -0.4460
12459TIP3   OH258791   1.032   0.817   0.944  0.1143 -0.0392  0.0383
12459TIP3    H158792   1.063   0.907   0.938  1.0469 -0.3765 -0.4406
12459TIP3    H258793   0.953   0.814   0.889  0.4727  0.3213 -0.4964
12460TIP3   OH258794   6.053   4.047  16.262  0.3028  0.1470  0.2009
12460TIP3    H158795   6.111   4.104  16.312  0.3754  1.8822 -1.7228
12460TIP3    H258796   6.083   4.055  16.172 -0.5343 -1.9719 -0.3290
12461TIP3   OH258797   0.252   1.996   4.252 -0.1160  0.8530 -0.1095
12461TIP3    H158798   0.208   1.913   4.271  2.9601 -0.9334 -0.2125
12461TIP3    H258799   0.297   2.019   4.333  2.9680 -0.2449 -1.3514
12462TIP3   OH258800   5.848   3.695  14.504  0.1045 -0.6479 -0.7478
12462TIP3    H158801   5.882   3.719  14.418  0.4427  0.6466 -0.2686
12462TIP3    H258802   5.891   3.755  14.565  0.1452 -1.7774  0.3830
12463TIP3   OH258803   2.979   0.997   3.249 -0.0118  0.6173  0.4584
12463TIP3    H158804   2.948   1.060   3.184 -2.5177  0.2415  1.1914
12463TIP3    H258805   3.001   1.050   3.326  0.2735  0.8050  0.2498
12464TIP3   OH258806   3.100   0.430  13.328  0.3106 -0.2997 -0.3290
12464TIP3    H158807   3.187   0.451  13.363 -0.8569  1.4170  1.7762
12464TIP3    H258808   3.104   0.460  13.237  1.8858 -0.1767 -0.2513
12465TIP3   OH258809   3.255   0.354  13.639  0.0646 -0.6004 -0.0803
12465TIP3    H158810   3.288   0.402  13.564 -1.9127 -0.0573 -0.6685
12465TIP3    H258811   3.277   0.408  13.715 -0.7793  0.5017 -0.5937
12466TIP3   OH258812   0.856   4.886  15.482 -0.7383 -0.2247 -0.0608
12466TIP3    H158813   0.826   4.918  15.398 -0.9106 -0.0567  0.0636
12466TIP3    H258814   0.803   4.807  15.498 -2.0988  0.7976  0.7712
12467TIP3   OH258815   1.159   5.723  13.793  0.0642  0.2221  0.2133
12467TIP3    H158816   1.111   5.800  13.764  0.5104  0.0587 -1.0274
12467TIP3    H258817   1.194   5.684  13.713  0.0265 -1.1582  0.8245
12468TIP3   OH258818   0.012   3.722  13.471  0.0474  0.6945 -0.3317
12468TIP3    H158819  -0.019   3.767  13.549 -0.8895  0.3934 -0.5055
12468TIP3    H258820   0.099   3.689  13.494  0.2628  1.5978  0.1773
12469TIP3   OH258821   6.657   6.516  11.119  0.2726 -0.1465 -0.0854
12469TIP3    H158822   6.625   6.432  11.085 -1.0098  0.8123 -1.4271
12469TIP3    H258823   6.678   6.567  11.040  0.7031  0.9116  0.6899
12470TIP3   OH258824   0.657   6.356  13.093  0.5966 -0.1167 -0.1425
12470TIP3    H158825   0.700   6.273  13.072  0.4304 -0.5284  1.0364
12470TIP3    H258826   0.672   6.412  13.017  1.5293 -0.9138 -0.5576
12471TIP3   OH258827   2.402   4.000  15.920  0.6769 -0.4616  0.1360
12471TIP3    H158828   2.488   3.992  15.879  1.2992  0.7608  1.1470
12471TIP3    H258829   2.415   3.971  16.010 -0.0668 -0.6641  0.1830
12472TIP3   OH258830   4.226   1.516  17.049 -0.4556  0.0707  0.1694
12472TIP3    H158831   4.140   1.555  17.039 -0.5388 -0.2888 -0.5675
12472TIP3    H258832   4.284   1.590  17.071 -0.4251  0.8231 -2.1370
12473TIP3   OH258833   2.310   2.458  17.117  0.4198 -0.5017  0.6259
12473TIP3    H158834   2.216   2.472  17.127  0.3969 -0.3717  0.2301
12473TIP3    H258835   2.318   2.398  17.043  0.7524  1.4146 -0.9822
12474TIP3   OH258836   6.621   4.167   2.404 -0.2123 -0.0831 -0.1117
12474TIP3    H158837   6.703   4.200   2.442  0.3703 -0.0172 -1.3796
12474TIP3    H258838   6.618   4.075   2.430  0.9769 -0.4509 -1.1785
12475TIP3   OH258839   6.243   3.182   0.327 -0.0783  0.1438  0.2429
12475TIP3    H158840   6.272   3.211   0.240 -0.5668  0.7511  0.2758
12475TIP3    H258841   6.287   3.241   0.388 -2.0812  1.7381  0.2528
12476TIP3   OH258842   5.356   4.572  11.086 -0.4603  0.2014 -0.1172
12476TIP3    H158843   5.402   4.642  11.132  0.7198 -0.6860  0.1090
12476TIP3    H258844   5.348   4.603  10.996 -0.0993  0.7083  0.0215
12477TIP3   OH258845   2.027   3.301  13.375 -0.5068  0.3541  0.3870
12477TIP3    H158846   2.066   3.240  13.437 -0.7410  0.1809  0.3637
12477TIP3    H258847   2.035   3.258  13.290 -2.6012 -0.6255  0.6249
12478TIP3   OH258848   5.837   4.325   1.037 -0.4563  0.7490 -0.1248
12478TIP3    H158849   5.930   4.302   1.035 -0.4384  0.7378  0.6782
12478TIP3    H258850   5.820   4.353   1.127 -1.5859 -0.7186  0.1628
12479TIP3   OH258851   6.224   5.607  12.586  0.2850 -0.3256  0.0368
12479TIP3    H158852   6.222   5.691  12.632  1.5926  0.0756 -0.5603
12479TIP3    H258853   6.133   5.586  12.569 -0.0752  0.8773  0.4007
12480TIP3   OH258854   0.445   0.712  12.635  0.5485 -0.2638 -0.1958
12480TIP3    H158855   0.358   0.749  12.619 -0.1737 -1.1185  1.4542
12480TIP3    H258856   0.481   0.694  12.548 -1.7102 -1.6400 -0.9199
12481TIP3   OH258857   1.798   6.571  11.240 -0.0768 -0.4647  0.6075
12481TIP3    H158858   1.730   6.603  11.181 -0.4211 -1.7888  0.2598
12481TIP3    H258859   1.849   6.649  11.263 -1.1332  0.3824  0.1278
12482TIP3   OH258860   0.110   0.741   0.202  0.0899  0.1090 -0.5918
12482TIP3    H158861   0.184   0.795   0.174 -1.0516  2.3732  0.5050
12482TIP3    H258862   0.040   0.803   0.222 -1.4908 -1.8170  0.2816
12483TIP3   OH258863   4.147   1.470   2.646 -0.1193  0.1784  0.7706
12483TIP3    H158864   4.225   1.519   2.622  1.7488 -2.4237  1.0472
12483TIP3    H258865   4.117   1.431   2.564 -1.3872  1.4285  0.6063
12484TIP3   OH258866   0.640   6.684  15.628 -0.8401 -0.3016 -0.7065
12484TIP3    H158867   0.728   6.720  15.623 -0.9692  0.0304 -0.6294
12484TIP3    H258868   0.652   6.589  15.626 -0.4037 -0.2920  0.5251
12485TIP3   OH258869   4.578   0.841   2.774 -0.0797 -0.1956  0.2400
12485TIP3    H158870   4.581   0.762   2.827 -0.2277 -0.0621  0.4463
12485TIP3    H258871   4.578   0.913   2.837  0.4342 -0.0203  0.0488
12486TIP3   OH258872   3.895   3.219   2.738  0.3843 -0.2049  0.2428
12486TIP3    H158873   3.930   3.262   2.660 -0.0661  0.2914  0.3051
12486TIP3    H258874   3.961   3.155   2.762  1.6284  1.2379  0.8295
12487TIP3   OH258875   2.203   6.479   1.748 -0.3262 -0.1506 -0.0121
12487TIP3    H158876   2.117   6.519   1.758 -0.2746  0.7652 -2.4854
12487TIP3    H258877   2.186   6.394   1.706 -0.0592 -0.2249  0.0237
12488TIP3   OH258878   4.090   4.467  11.995  0.7972 -0.1974 -0.2474
12488TIP3    H158879   4.084   4.562  12.002  0.6653 -0.2464  0.4199
12488TIP3    H258880   4.071   4.435  12.084  0.2333 -0.8714 -0.5941
12489TIP3   OH258881   4.350   1.770  17.123 -1.0914  0.4100 -0.4356
12489TIP3    H158882   4.358   1.848  17.068 -2.4886  2.3208  1.9001
12489TIP3    H258883   4.340   1.803  17.212 -0.0332 -2.5102  0.9363
12490TIP3   OH258884   2.198   1.071   3.677  0.4021 -0.3466 -0.0784
12490TIP3    H158885   2.219   1.009   3.748 -0.2179 -0.1389  0.2911
12490TIP3    H258886   2.275   1.070   3.621  0.6263 -1.0310  0.2349
12491TIP3   OH258887   1.241   2.679  15.041 -0.4128  1.2048  0.1749
12491TIP3    H158888   1.236   2.747  15.108  1.0993  1.3749  0.1546
12491TIP3    H258889   1.320   2.701  14.991 -0.3891 -0.0771 -0.3822
12492TIP3   OH258890   5.557   1.343  15.619 -0.0481  0.1416  0.3638
12492TIP3    H158891   5.500   1.274  15.585 -0.2682  0.9427 -0.9243
12492TIP3    H258892   5.618   1.297  15.677  0.3401 -1.2634 -1.1010
12493TIP3   OH258893   2.622   6.739   1.457  0.1383 -0.0614  0.3178
12493TIP3    H158894   2.557   6.669   1.467 -0.0422  0.0456 -0.0808
12493TIP3    H258895   2.623   6.783   1.542  0.7033 -0.9249  0.7722
12494TIP3   OH258896   4.014   1.162   4.446 -0.1066 -0.1006  0.4723
12494TIP3    H158897   3.992   1.120   4.363  1.6962  1.7214 -1.0327
12494TIP3    H258898   4.103   1.196   4.433 -0.3884  1.6749  2.5570
12495TIP3   OH258899   6.164   0.600   5.944  0.2832 -0.2033 -0.1399
12495TIP3    H158900   6.162   0.694   5.930 -1.1771  0.0180  1.2429
12495TIP3    H258901   6.173   0.590   6.039 -2.0011 -1.3688  0.0292
12496TIP3   OH258902   4.654   4.975   3.079  0.1346 -0.5019  0.6725
12496TIP3    H158903   4.702   5.056   3.099  0.8633 -0.8087  0.2154
12496TIP3    H258904   4.599   4.998   3.004 -0.5913 -0.0941  1.3183
12497TIP3   OH258905   0.620   5.381   4.259 -0.3780 -0.3015 -0.1887
12497TIP3    H158906   0.626   5.290   4.285  0.7215 -0.6924 -1.6651
12497TIP3    H258907   0.573   5.379   4.175  0.4603  0.3687 -0.6962
12498TIP3   OH258908   2.369   5.638   5.862 -0.0971 -0.0447 -0.0054
12498TIP3    H158909   2.313   5.590   5.923 -0.1095  0.5750  0.4814
12498TIP3    H258910   2.321   5.637   5.779  0.2294 -1.4758 -0.2066
12499TIP3   OH258911   3.718   4.628   5.262 -0.3273  0.4574  0.0251
12499TIP3    H158912   3.636   4.643   5.309  0.0999 -0.9508  1.2838
12499TIP3    H258913   3.780   4.601   5.330  1.0054  0.8010 -1.0030
12500TIP3   OH258914   1.580   3.930  15.366  0.0374  0.2886 -0.2832
12500TIP3    H158915   1.542   3.889  15.444 -2.6771  1.5315 -0.8216
12500TIP3    H258916   1.642   3.994  15.400  3.0226 -2.7752  0.6045
12501TIP3   OH258917   2.506   5.609   2.648  0.3327 -0.2140  0.6474
12501TIP3    H158918   2.581   5.606   2.588  1.0726 -0.4291  1.5560
12501TIP3    H258919   2.511   5.697   2.687  2.1399 -1.3321  3.1761
12502TIP3   OH258920   2.113   3.533  16.534  0.2470  0.2958 -0.1128
12502TIP3    H158921   2.104   3.605  16.598  1.6099 -0.2670  0.7485
12502TIP3    H258922   2.201   3.544  16.498 -0.3238  0.2932 -1.5455
12503TIP3   OH258923   1.744   3.877   0.374  0.1443 -0.3007  0.2008
12503TIP3    H158924   1.774   3.808   0.434  1.0924 -1.6332 -1.7097
12503TIP3    H258925   1.671   3.836   0.327 -1.9937  1.4418  1.7864
12504TIP3   OH258926   3.322   0.293   0.577  0.3292 -0.5716 -0.4508
12504TIP3    H158927   3.365   0.372   0.608  0.7321 -1.1396  0.4769
12504TIP3    H258928   3.239   0.289   0.625  1.2894 -1.8470  1.1980
12505TIP3   OH258929   4.622   5.804  16.304  0.2357 -0.1340  0.1819
12505TIP3    H158930   4.616   5.792  16.399  0.1831 -0.5641  0.1261
12505TIP3    H258931   4.533   5.825  16.276  0.8380  3.7374  0.7042
12506TIP3   OH258932   0.390   4.112   3.732  0.5724 -0.2033  0.1606
12506TIP3    H158933   0.395   4.149   3.821  0.0712 -0.4731  0.3002
12506TIP3    H258934   0.412   4.186   3.675 -0.0574  0.2197  0.4590
12507TIP3   OH258935   1.877   4.406  14.812  0.5341  0.3909 -0.2398
12507TIP3    H158936   1.957   4.413  14.865  0.4154 -1.5195  0.2868
12507TIP3    H258937   1.894   4.333  14.752 -0.8828 -0.2279  0.0619
12508TIP3   OH258938   2.649   6.244   5.186 -0.5207 -0.0523  0.5963
12508TIP3    H158939   2.739   6.230   5.215 -0.6759  1.7581  2.1079
12508TIP3    H258940   2.612   6.307   5.248 -2.4918  0.1312 -0.6493
12509TIP3   OH258941   3.781   0.958   3.776  0.2045  0.0955  0.0126
12509TIP3    H158942   3.750   1.026   3.835 -1.6085  0.8730 -1.7256
12509TIP3    H258943   3.736   0.879   3.805  1.5685 -0.2342  1.4182
12510TIP3   OH258944   6.174   1.463  12.401 -0.4688  0.6887  0.0444
12510TIP3    H158945   6.269   1.453  12.388 -0.6321  0.4438 -1.0587
12510TIP3    H258946   6.159   1.431  12.490  0.0849 -2.2203 -0.7745
12511TIP3   OH258947   5.541   0.069  14.855  0.0305 -0.0461 -0.1014
12511TIP3    H158948   5.586  -0.016  14.863  1.2735  0.5488 -0.5798
12511TIP3    H258949   5.605   0.133  14.884  0.3569  1.0431 -2.9527
12512TIP3   OH258950   6.597   0.248   2.566  0.7336  0.2533 -0.3608
12512TIP3    H158951   6.634   0.179   2.511 -0.5576 -1.0247  0.2951
12512TIP3    H258952   6.630   0.229   2.654  2.6972  2.2189 -0.5858
12513TIP3   OH258953   1.228   5.949   2.764 -0.5522 -0.5125 -0.2655
12513TIP3    H158954   1.164   5.962   2.834 -1.5019 -1.5848 -0.8744
12513TIP3    H258955   1.276   6.031   2.758  1.9205 -1.4141  3.8941
12514TIP3   OH258956   1.265   4.965  14.233 -0.2984  0.3915  0.5562
12514TIP3    H158957   1.280   4.951  14.327  2.5577  1.6889  0.3731
12514TIP3    H258958   1.220   5.049  14.229  1.2084  1.2219  0.7077
12515TIP3   OH258959   1.407   4.164   0.744  0.3225  0.4475 -0.3932
12515TIP3    H158960   1.364   4.249   0.749  1.1805  0.9698 -1.4361
12515TIP3    H258961   1.364   4.119   0.671  1.2995  0.8689 -1.2677
12516TIP3   OH258962   5.461   5.833   5.101  0.2522 -0.1294 -0.1408
12516TIP3    H158963   5.545   5.788   5.098  0.5141  0.3442 -0.0726
12516TIP3    H258964   5.441   5.852   5.009 -0.0261 -0.6863 -0.1964
12517TIP3   OH258965   3.458   0.737   5.193  0.4091 -0.4352  0.1010
12517TIP3    H158966   3.482   0.696   5.110 -1.3155  1.9224 -1.7321
12517TIP3    H258967   3.492   0.827   5.186  0.4591 -0.2575  2.0920
12518TIP3   OH258968   2.728   4.986   2.905  0.3728  0.8123  0.2847
12518TIP3    H158969   2.715   5.046   2.978 -0.2238  0.0367  0.8300
12518TIP3    H258970   2.821   4.963   2.909  0.4806  1.2471  0.4060
12519TIP3   OH258971   6.273   2.206   5.654 -0.3677 -0.4138 -0.0541
12519TIP3    H158972   6.277   2.287   5.705 -1.8563 -1.0445  1.1400
12519TIP3    H258973   6.292   2.233   5.564 -1.8759  1.4688  0.1312
12520TIP3   OH258974   4.750   5.718   4.561  0.1610  0.0914  0.1159
12520TIP3    H158975   4.816   5.649   4.569  0.9033  0.9951  2.3313
12520TIP3    H258976   4.765   5.775   4.636 -2.1811  1.1777 -0.1543
12521TIP3   OH258977   6.257   5.066  15.193 -0.5177 -0.3655  0.0496
12521TIP3    H158978   6.336   5.098  15.236 -0.8217  1.2494 -0.5250
12521TIP3    H258979   6.276   4.974  15.172  2.1708  0.5673 -2.2470
12522TIP3   OH258980   4.951   6.257  11.332  0.0946 -0.1986  0.0040
12522TIP3    H158981   4.950   6.325  11.398 -0.9629  0.3140 -0.5074
12522TIP3    H258982   4.907   6.182  11.373  1.0031 -0.5021  0.4651
12523TIP3   OH258983   2.476   6.074   1.963 -0.2168 -0.2843  0.1905
12523TIP3    H158984   2.465   6.015   1.888 -0.6352 -1.3708  1.0892
12523TIP3    H258985   2.404   6.051   2.022  1.2112 -0.7819  1.8035
12524TIP3   OH258986   4.042   0.450  11.589  0.2917  0.0916  0.1028
12524TIP3    H158987   4.058   0.489  11.503 -1.2660  1.8403  0.5484
12524TIP3    H258988   4.104   0.377  11.594  0.4195 -0.0716 -2.4901
12525TIP3   OH258989   6.680   4.614   5.961  0.5116  0.3108 -0.2707
12525TIP3    H158990   6.744   4.565   6.014  0.0696  1.3220  1.2906
12525TIP3    H258991   6.703   4.706   5.975 -1.5275  0.7281  0.7243
12526TIP3   OH258992   2.666   0.038  15.042  0.2067 -0.2422  0.0540
12526TIP3    H158993   2.635  -0.035  14.989 -0.2295  0.6389 -0.9579
12526TIP3    H258994   2.602   0.045  15.113  0.2222 -0.8012  0.1267
12527TIP3   OH258995   3.623   4.062   5.880 -0.2008  0.0325 -0.1002
12527TIP3    H158996   3.557   4.018   5.934 -0.4910 -1.6152 -1.7023
12527TIP3    H258997   3.654   4.135   5.935  0.6380 -2.3811  2.9435
12528TIP3   OH258998   0.860   5.432   6.457  0.0657 -1.0872  0.4311
12528TIP3    H158999   0.779   5.449   6.506  0.9490  4.2277  0.6596
12528TIP3    H259000   0.832   5.437   6.365 -0.2218 -1.6903  0.4838
12529TIP3   OH259001   0.554   1.792  11.932 -0.2264 -0.4787  0.1874
12529TIP3    H159002   0.593   1.751  11.855 -1.1733 -0.1981 -0.4620
12529TIP3    H259003   0.512   1.871  11.898  1.7171  1.2170  1.4097
12530TIP3   OH259004   6.525   3.198  14.145  0.1726  0.6341 -0.2140
12530TIP3    H159005   6.430   3.198  14.155  0.0956 -1.0981 -0.5786
12530TIP3    H259006   6.557   3.142  14.216  1.0115  1.8490  0.4003
12531TIP3   OH259007   5.481   6.115  15.670  0.4523 -0.2196  0.3936
12531TIP3    H159008   5.537   6.192  15.666 -0.2936  0.3497  0.5434
12531TIP3    H259009   5.515   6.063  15.743  0.5884  0.2717  0.6817
12532TIP3   OH259010   6.702   2.862  12.997  0.3190  0.2322  0.0786
12532TIP3    H159011   6.750   2.931  12.951  2.3807 -2.3180 -1.9235
12532TIP3    H259012   6.657   2.813  12.928  0.8735 -1.8119  1.0836
12533TIP3   OH259013   2.431   6.497  11.647 -0.0408  0.0507 -0.2369
12533TIP3    H159014   2.383   6.574  11.677  1.3088  0.6983  0.3881
12533TIP3    H259015   2.384   6.467  11.570 -0.3259  1.8057 -0.7770
12534TIP3   OH259016   3.651   1.607   2.110 -0.2075  0.3980 -0.2571
12534TIP3    H159017   3.687   1.641   2.029  1.0278 -0.1624  0.0299
12534TIP3    H259018   3.621   1.684   2.158  3.0389  1.2549  0.6394
12535TIP3   OH259019   1.826   0.886  15.889 -0.2680 -0.5496  0.4816
12535TIP3    H159020   1.919   0.878  15.911  0.3091  0.1260 -1.5008
12535TIP3    H259021   1.817   0.975  15.855 -0.9144 -1.5806 -2.3397
12536TIP3   OH259022   0.061   0.904  16.307 -0.0406 -0.2653 -0.0816
12536TIP3    H159023   0.034   0.833  16.248 -0.4062  0.5045 -0.8634
12536TIP3    H259024   0.005   0.893  16.384 -1.5399  0.3712 -1.0403
12537TIP3   OH259025   3.220   3.659   3.855 -0.1813  0.1706 -0.7883
12537TIP3    H159026   3.146   3.606   3.825 -1.7107  2.0442 -0.4793
12537TIP3    H259027   3.251   3.703   3.776 -0.2100  0.3684 -0.6883
12538TIP3   OH259028   4.560   5.571   2.994  0.4112  0.0976  0.0985
12538TIP3    H159029   4.598   5.485   3.010 -0.9384 -0.3098  1.2932
12538TIP3    H259030   4.604   5.629   3.056 -0.4309 -0.2498  1.0447
12539TIP3   OH259031   6.294   1.708   0.952 -0.1120 -0.4578 -0.0912
12539TIP3    H159032   6.259   1.747   0.872  0.8467  1.1043  0.2230
12539TIP3    H259033   6.379   1.672   0.926  0.9714  1.5175  0.5280
12540TIP3   OH259034   5.066   4.913  12.320  0.3331  0.7159 -0.5392
12540TIP3    H159035   5.148   4.929  12.367 -1.2266 -1.6799  3.5064
12540TIP3    H259036   5.010   4.987  12.346  0.0750  0.4118 -0.2261
12541TIP3   OH259037   2.920   0.857  16.253  0.1999  0.0611  0.6681
12541TIP3    H159038   2.857   0.928  16.266  1.1111  0.8993  0.6104
12541TIP3    H259039   2.881   0.781  16.297 -0.5552  0.7259  1.1546
12542TIP3   OH259040   4.314   5.778  15.424 -0.1650  0.2909 -0.3403
12542TIP3    H159041   4.262   5.857  15.436 -0.3102  0.1745 -0.1916
12542TIP3    H259042   4.405   5.808  15.430 -0.2225  0.3504  0.3551
12543TIP3   OH259043   4.104   3.856  12.853 -0.7381 -0.3391  0.3859
12543TIP3    H159044   4.176   3.901  12.808 -0.7429  0.0063  0.7190
12543TIP3    H259045   4.042   3.834  12.783 -0.1876 -0.8786  0.0586
12544TIP3   OH259046   5.997   3.283  15.948 -0.3703  0.1237  0.2202
12544TIP3    H159047   5.942   3.226  16.003 -0.7233  1.1396  0.9631
12544TIP3    H259048   5.953   3.285  15.863 -0.7527 -0.1378  0.4109
12545TIP3   OH259049   2.028   3.728  16.725 -0.5756 -0.3917  0.0943
12545TIP3    H159050   1.942   3.694  16.698 -0.8895  0.7649 -0.4693
12545TIP3    H259051   2.010   3.780  16.803 -0.7141  1.2118 -0.9452
12546TIP3   OH259052   2.538   3.002   0.409  0.1521  0.1660  0.3448
12546TIP3    H159053   2.555   2.918   0.366  0.1077  0.2809  0.1041
12546TIP3    H259054   2.456   2.989   0.457 -0.2025  0.2743 -0.2250
12547TIP3   OH259055   0.643   0.261  13.556  0.3760 -0.2148 -0.1028
12547TIP3    H159056   0.553   0.289  13.543  0.3566  0.1503  0.7519
12547TIP3    H259057   0.676   0.244  13.468  0.2371  2.0369 -0.6642
12548TIP3   OH259058   3.530   4.611  12.812 -0.6751 -0.2481  0.4959
12548TIP3    H159059   3.617   4.651  12.810 -1.7999  2.4939  1.5119
12548TIP3    H259060   3.533   4.551  12.887  0.1338  0.4057  1.0075
12549TIP3   OH259061   3.903   2.565  16.032 -0.1496  0.0694  0.6954
12549TIP3    H159062   3.924   2.510  15.956 -1.2040  0.0428  0.3993
12549TIP3    H259063   3.986   2.604  16.057  0.1295  0.5211 -0.8193
12550TIP3   OH259064   4.096   2.373   2.779  0.0737 -0.2329  0.7282
12550TIP3    H159065   4.107   2.407   2.690  1.4264  2.0576  1.6933
12550TIP3    H259066   4.010   2.404   2.806  0.0896 -0.0596  0.5825
12551TIP3   OH259067   3.621   4.986   3.465  0.0033  0.2414 -0.1504
12551TIP3    H159068   3.526   4.983   3.452 -0.0141  0.9427 -0.2312
12551TIP3    H259069   3.633   5.038   3.544  0.3781  1.6632 -1.1024
12552TIP3   OH259070   5.803   2.510  13.631 -0.0686  0.1772  0.6046
12552TIP3    H159071   5.771   2.579  13.690 -0.9348 -1.0318  1.6041
12552TIP3    H259072   5.875   2.470  13.679  2.2988  2.0655 -1.1082
12553TIP3   OH259073   5.675   2.602   4.437  0.3125 -0.0639  0.1156
12553TIP3    H159074   5.644   2.555   4.514 -0.7496  2.3394  1.2520
12553TIP3    H259075   5.608   2.584   4.370 -0.3957  0.2765  0.7198
12554TIP3   OH259076   1.968   3.658  11.047  0.3470  0.2506 -0.1666
12554TIP3    H159077   1.912   3.649  10.971  0.1555  2.8176 -0.4185
12554TIP3    H259078   1.924   3.723  11.102  0.2705 -1.8060  2.3937
12555TIP3   OH259079   4.138   2.845  16.297  0.2428 -0.4450  0.2451
12555TIP3    H159080   4.083   2.883  16.365 -0.3459  0.2913 -0.6202
12555TIP3    H259081   4.202   2.913  16.277 -0.4837 -0.0770 -0.9361
12556TIP3   OH259082   3.984   4.301   4.146  0.1463 -0.3307 -0.3388
12556TIP3    H159083   3.908   4.332   4.097  0.2262  1.2706  0.4684
12556TIP3    H259084   4.035   4.251   4.082  0.7160  2.4292 -2.2676
12557TIP3   OH259085   5.422   3.216   1.341 -0.5639  0.0821  0.2503
12557TIP3    H159086   5.419   3.132   1.387 -0.0318  1.3337  2.7870
12557TIP3    H259087   5.506   3.215   1.296  0.9059  0.3519  2.7679
12558TIP3   OH259088   0.717   2.227  12.478 -0.3186 -0.0283 -0.2371
12558TIP3    H159089   0.712   2.246  12.572  2.9407  0.6569 -0.0738
12558TIP3    H259090   0.627   2.236  12.447 -1.3137  0.9594  2.5814
12559TIP3   OH259091   2.687   3.536  14.215 -0.1566  0.0669  0.1531
12559TIP3    H159092   2.628   3.557  14.143  0.1670 -0.1507 -0.1780
12559TIP3    H259093   2.706   3.443  14.204 -0.5326 -0.0942  0.8352
12560TIP3   OH259094   1.808   0.216   2.901 -0.6949 -0.8227 -0.2982
12560TIP3    H159095   1.845   0.303   2.891  0.3189 -1.0992  0.8011
12560TIP3    H259096   1.716   0.226   2.877 -0.0563 -0.0284 -2.7290
12561TIP3   OH259097   3.625   6.385  15.325  0.9004 -0.3723  0.4705
12561TIP3    H159098   3.600   6.343  15.243  1.4066  0.0780  0.0773
12561TIP3    H259099   3.705   6.432  15.305 -0.1516  1.6069  0.6079
12562TIP3   OH259100   6.207   0.666   2.678 -0.1272 -0.0587 -0.6774
12562TIP3    H159101   6.179   0.601   2.742 -0.9910  0.4709 -0.5064
12562TIP3    H259102   6.165   0.640   2.596  0.6544 -0.5082 -0.9394
12563TIP3   OH259103   1.208   0.807   0.588  0.1187 -0.2164 -0.0716
12563TIP3    H159104   1.115   0.805   0.610  0.2057 -0.3199  0.2903
12563TIP3    H259105   1.227   0.719   0.556  0.5693 -0.8571  1.8576
12564TIP3   OH259106   1.609   0.087  13.832  0.3081  0.3345 -0.0061
12564TIP3    H159107   1.667   0.018  13.864  1.3071  0.2193 -1.9300
12564TIP3    H259108   1.595   0.144  13.908  1.1060 -0.8659  1.0823
12565TIP3   OH259109   3.841   1.289   4.587 -0.2016  0.4131 -0.0036
12565TIP3    H159110   3.867   1.243   4.507 -0.3781  0.7318 -0.2472
12565TIP3    H259111   3.758   1.332   4.564 -0.4806  0.1476  0.4862
12566TIP3   OH259112   5.336   5.385   3.343  0.8645  0.8873 -0.1600
12566TIP3    H159113   5.268   5.392   3.410  1.0487  2.6111 -0.1147
12566TIP3    H259114   5.306   5.443   3.273 -0.2150 -2.1533 -2.4608
12567TIP3   OH259115   2.414   0.491   3.792  0.1135  0.0893  0.4749
12567TIP3    H159116   2.372   0.555   3.734 -2.4226 -1.0306  0.9151
12567TIP3    H259117   2.501   0.526   3.807  0.9942  0.4836 -3.9872
12568TIP3   OH259118   4.820   3.113   0.450  0.0450 -0.0584  0.2333
12568TIP3    H159119   4.842   3.026   0.482 -0.9010 -0.6294 -0.5949
12568TIP3    H259120   4.727   3.124   0.472 -0.2625  0.0873 -1.0316
12569TIP3   OH259121   4.245   2.424  15.998 -0.0842  0.4365 -0.5626
12569TIP3    H159122   4.243   2.519  15.983 -1.3632  0.3026 -1.3242
12569TIP3    H259123   4.325   2.395  15.953  0.5507  1.1956  0.0378
12570TIP3   OH259124   2.894   5.323   2.367 -0.3582 -0.5642 -0.2681
12570TIP3    H159125   2.804   5.330   2.335 -0.0849 -0.8881 -1.1338
12570TIP3    H259126   2.890   5.258   2.437 -0.3387 -2.6537 -2.1316
12571TIP3   OH259127   5.866   2.975  12.586  0.4600 -0.1767 -0.7845
12571TIP3    H159128   5.821   2.935  12.661  1.1531 -0.7525 -0.6687
12571TIP3    H259129   5.805   2.964  12.513 -1.5107  2.9472  0.2334
12572TIP3   OH259130   6.548   4.352  15.251  0.0521 -0.2764  0.0151
12572TIP3    H159131   6.630   4.395  15.228  0.6018 -0.6683  1.1916
12572TIP3    H259132   6.572   4.285  15.315 -1.2168 -0.1807  0.6315
12573TIP3   OH259133   2.385   1.349  12.060  0.6653 -0.0375  0.2404
12573TIP3    H159134   2.450   1.280  12.078  0.3061 -0.3482  0.3539
12573TIP3    H259135   2.420   1.395  11.984  0.0398 -1.4749 -0.9844
12574TIP3   OH259136   6.168   3.751  16.494  0.2315  0.5329  0.1593
12574TIP3    H159137   6.139   3.660  16.486 -0.5770  0.6451  1.4645
12574TIP3    H259138   6.089   3.802  16.479  0.4321  0.9738  0.5897
12575TIP3   OH259139   6.211   3.664  15.392  0.2849  0.2646  0.6010
12575TIP3    H159140   6.132   3.611  15.383  1.0455 -0.9359  0.6949
12575TIP3    H259141   6.201   3.707  15.477  0.0361 -0.4306  0.9367
12576TIP3   OH259142   3.875   6.076   0.518  0.0452 -0.9741 -0.2442
12576TIP3    H159143   3.906   5.991   0.487  1.8386 -0.1728 -0.7608
12576TIP3    H259144   3.923   6.091   0.600 -0.9296 -0.8358  0.3211
12577TIP3   OH259145   5.481   4.150  15.782  0.7831  0.0945 -0.2075
12577TIP3    H159146   5.448   4.060  15.782  0.6880  0.1264  0.3250
12577TIP3    H259147   5.435   4.193  15.710 -1.4245  0.5217  1.3762
12578TIP3   OH259148   2.160   4.373   0.606  0.1642  0.1646  0.2234
12578TIP3    H159149   2.147   4.282   0.581  1.6533 -0.2855  0.9663
12578TIP3    H259150   2.239   4.372   0.660 -2.4842  1.0841  4.6106
12579TIP3   OH259151   1.953   4.770  15.015  0.6929 -0.0574  0.7516
12579TIP3    H159152   1.940   4.790  14.922  0.0063  1.1632  1.0815
12579TIP3    H259153   1.901   4.836  15.061 -0.9688 -2.0813  1.9705
12580TIP3   OH259154   4.085   3.435  14.545 -0.5836 -0.2447 -0.3716
12580TIP3    H159155   4.065   3.404  14.456 -0.4868  2.0619 -1.2481
12580TIP3    H259156   4.040   3.373  14.602 -3.6164  0.1843 -2.0970
12581TIP3   OH259157   5.811   0.494   1.049  0.1567  0.0375 -0.1874
12581TIP3    H159158   5.776   0.564   0.995  0.0446 -0.3218 -0.5879
12581TIP3    H259159   5.787   0.517   1.139  0.3852  0.6618 -0.2841
12582TIP3   OH259160   4.644   5.138  12.580  0.4792 -0.0723 -0.0115
12582TIP3    H159161   4.645   5.207  12.514  2.3711  0.1724  0.2165
12582TIP3    H259162   4.614   5.060  12.533  0.3291  0.4297 -0.7656
12583TIP3   OH259163   0.294   5.138  13.003  1.0256 -0.2964 -0.5254
12583TIP3    H159164   0.206   5.141  12.965  0.9307 -0.1961 -0.2988
12583TIP3    H259165   0.341   5.208  12.959  1.5376 -1.5101 -1.9820
12584TIP3   OH259166   5.954   6.757  10.648 -0.4443  0.1722 -0.0558
12584TIP3    H159167   6.020   6.730  10.712 -0.8341  0.4224  0.4608
12584TIP3    H259168   5.920   6.674  10.614 -0.0527  0.0397 -0.1335
12585TIP3   OH259169   1.871   5.186  11.341  0.0703  0.1779  0.6824
12585TIP3    H159170   1.939   5.171  11.276 -0.5892  0.7680 -0.1735
12585TIP3    H259171   1.894   5.270  11.381  1.0339 -0.6507  1.9700
12586TIP3   OH259172   2.817   5.020  11.125  0.0790 -0.0230  0.2404
12586TIP3    H159173   2.721   5.020  11.131  0.1804  0.0560  2.5330
12586TIP3    H259174   2.838   4.931  11.095 -0.7121  0.1460 -0.8848
12587TIP3   OH259175   0.250   1.674   2.327  0.5331  0.1590 -0.4973
12587TIP3    H159176   0.308   1.718   2.388  1.8491 -1.1667 -0.7451
12587TIP3    H259177   0.217   1.598   2.375  2.1130 -1.2827 -1.5889
12588TIP3   OH259178   3.498   4.071  14.622 -0.1065 -0.5720  0.0082
12588TIP3    H159179   3.454   4.150  14.590  0.4691 -0.7742 -1.3357
12588TIP3    H259180   3.581   4.102  14.657 -0.2816 -0.4855  0.3614
12589TIP3   OH259181   4.480   5.210  13.537  0.1384 -0.2022  0.3141
12589TIP3    H159182   4.540   5.230  13.609  0.4801 -0.2068  0.0353
12589TIP3    H259183   4.536   5.170  13.470 -0.3062 -0.8954  0.3432
12590TIP3   OH259184   5.840   1.938  12.524  0.0253 -0.0347 -0.6191
12590TIP3    H159185   5.894   2.012  12.496  1.5643 -1.4544 -1.5894
12590TIP3    H259186   5.816   1.893  12.443 -0.6888 -0.7223 -0.0435
12591TIP3   OH259187   6.108   4.082  16.012  0.1043 -1.0383  0.5573
12591TIP3    H159188   6.016   4.070  15.989  0.5136  0.2820 -2.1185
12591TIP3    H259189   6.154   4.081  15.928  2.5998 -1.8740  1.8412
12592TIP3   OH259190   0.346   2.585   4.630  0.1935  0.1672  0.1836
12592TIP3    H159191   0.285   2.594   4.557  0.8143  1.7094 -0.1980
12592TIP3    H259192   0.309   2.641   4.699  1.2082  1.2613 -0.1157
12593TIP3   OH259193   2.752   2.668  14.106  0.1637  0.2223  0.3818
12593TIP3    H159194   2.732   2.599  14.168 -3.0719  0.6180 -0.0284
12593TIP3    H259195   2.801   2.733  14.157  0.7971 -1.0831  1.4886
12594TIP3   OH259196   0.224   2.885  15.319  0.6799 -0.3529 -0.2834
12594TIP3    H159197   0.185   2.807  15.279 -1.7201  0.1202  0.9395
12594TIP3    H259198   0.249   2.856  15.407  1.9595 -0.2995 -0.6103
12595TIP3   OH259199   4.649   2.453  10.135 -0.0747  0.0162  0.6343
12595TIP3    H159200   4.706   2.380  10.162  1.6784  1.2660  0.5031
12595TIP3    H259201   4.663   2.520  10.202  1.0491  1.5283 -1.0317
12596TIP3   OH259202   0.708   3.883  12.583 -0.1507 -0.4955 -0.0593
12596TIP3    H159203   0.663   3.892  12.667  0.6988 -0.5930  0.4170
12596TIP3    H259204   0.799   3.904  12.602  0.0103 -0.2679 -1.0159
12597TIP3   OH259205   0.902   6.689   2.148  0.2939  0.0880  0.0216
12597TIP3    H159206   0.947   6.612   2.182 -0.9307 -0.5591  0.2105
12597TIP3    H259207   0.941   6.704   2.061 -0.0437 -1.2617 -0.3824
12598TIP3   OH259208   0.680   2.300   1.939 -0.4125  0.0044  0.6495
12598TIP3    H159209   0.689   2.332   2.029 -2.0962 -0.2370  0.9372
12598TIP3    H259210   0.730   2.219   1.938  0.3462  0.4510  1.1185
12599TIP3   OH259211   3.677   4.164   3.953  0.2255 -0.6443  0.0017
12599TIP3    H159212   3.630   4.162   3.870 -0.1204 -2.2028  0.1937
12599TIP3    H259213   3.743   4.232   3.941 -0.3974 -0.2172 -1.2173
12600TIP3   OH259214   5.583   0.569   6.639  0.1737 -0.3232  0.4566
12600TIP3    H159215   5.522   0.639   6.664  0.1954 -0.2587  0.3299
12600TIP3    H259216   5.549   0.537   6.556  0.9589  0.4787 -0.1870
12601TIP3   OH259217   1.270   6.205  16.353 -0.2234 -1.0661  0.0414
12601TIP3    H159218   1.270   6.295  16.384 -0.6093 -1.1780  0.3851
12601TIP3    H259219   1.179   6.189  16.327 -0.6243 -1.9695  1.8513
12602TIP3   OH259220   4.614   5.108   5.330 -0.1844  0.3452 -0.4046
12602TIP3    H159221   4.547   5.039   5.338 -1.6588  1.8322  0.5347
12602TIP3    H259222   4.604   5.140   5.240 -1.5599  1.3395  0.0802
12603TIP3   OH259223   6.220   4.008   5.973  0.3059 -0.4327  0.0739
12603TIP3    H159224   6.130   4.020   5.943  0.3855  0.6951  0.2677
12603TIP3    H259225   6.230   3.913   5.979 -0.4004 -0.6328 -1.3696
12604TIP3   OH259226   5.252   0.970   4.931  0.2435  0.0903  0.3108
12604TIP3    H159227   5.285   0.926   5.009  0.1718 -0.5864 -0.0367
12604TIP3    H259228   5.158   0.978   4.947 -0.0257 -1.3998 -0.3348
12605TIP3   OH259229   2.792   4.425   1.838  0.1018 -0.2424 -0.2125
12605TIP3    H159230   2.794   4.417   1.743  2.7028 -0.9753 -0.1777
12605TIP3    H259231   2.872   4.472   1.861  0.7574 -2.0812  1.6978
12606TIP3   OH259232   3.198   2.671  15.764  0.0729  0.4038  0.4709
12606TIP3    H159233   3.262   2.639  15.700  0.5238 -2.2855  2.1021
12606TIP3    H259234   3.242   2.745  15.806 -0.5570  2.8178 -2.6992
12607TIP3   OH259235   0.370   3.866   0.767  0.3201 -0.8607  0.4852
12607TIP3    H159236   0.280   3.832   0.773  0.2907 -1.1688 -1.2098
12607TIP3    H259237   0.400   3.837   0.681  1.5464  0.4653  0.4490
12608TIP3   OH259238   5.459   4.951  11.780 -0.2520 -0.0797  0.4594
12608TIP3    H159239   5.537   4.977  11.731  0.8340  0.0516  2.2077
12608TIP3    H259240   5.419   5.034  11.808 -0.6003 -0.1676  0.2361
12609TIP3   OH259241   5.003   3.133  16.062 -0.8309  0.3837 -0.2643
12609TIP3    H159242   5.026   3.204  16.123 -2.2425 -0.5149  1.4229
12609TIP3    H259243   4.919   3.100  16.095 -0.5514 -1.6178 -1.3967
12610TIP3   OH259244   5.051   5.926  11.700 -0.2275  0.2871 -0.2967
12610TIP3    H159245   5.068   5.849  11.646  0.3801 -0.0033  0.2858
12610TIP3    H259246   5.085   6.000  11.649  0.9632 -0.0599 -0.0378
12611TIP3   OH259247   1.754   2.593   6.335  0.4563  0.3389  0.5880
12611TIP3    H159248   1.685   2.557   6.391  0.5561 -0.9585 -0.0788
12611TIP3    H259249   1.818   2.521   6.328  1.2765  1.0926  0.2067
12612TIP3   OH259250   3.594   4.586   1.248 -0.2846  0.2968  0.1695
12612TIP3    H159251   3.550   4.563   1.330 -1.8715  1.5983 -0.2607
12612TIP3    H259252   3.531   4.562   1.180  0.2099  0.9945 -0.5487
12613TIP3   OH259253   6.478   0.016  16.764 -0.5489 -0.4347 -0.2448
12613TIP3    H159254   6.474   0.110  16.747 -1.1726 -0.4633 -0.2891
12613TIP3    H259255   6.484   0.009  16.859 -1.5473 -0.3639 -0.1644
12614TIP3   OH259256   5.599   2.839  14.670  0.1101  0.7591  0.3767
12614TIP3    H159257   5.626   2.838  14.578 -0.0758  1.9659  0.2936
12614TIP3    H259258   5.503   2.839  14.667  0.1023  0.4175  0.5811
12615TIP3   OH259259   3.862   2.460  12.025 -0.0338  0.1321 -0.7282
12615TIP3    H159260   3.766   2.463  12.030  0.0031  0.8104 -0.1688
12615TIP3    H259261   3.887   2.550  12.004  0.4688 -0.1307 -1.2836
12616TIP3   OH259262   6.102   6.277  12.728 -0.0174  0.4025 -0.3161
12616TIP3    H159263   6.026   6.292  12.671  1.0836  1.1430 -1.6573
12616TIP3    H259264   6.134   6.365  12.749  0.9067  0.0987 -0.3948
12617TIP3   OH259265   5.173   1.385  15.441  0.2358 -0.7221  0.2680
12617TIP3    H159266   5.207   1.460  15.490 -0.3556 -0.4372  0.2644
12617TIP3    H259267   5.107   1.424  15.382  0.8972 -1.0642 -0.7169
12618TIP3   OH259268   5.890   2.666  15.872  0.2587 -0.7364 -0.1534
12618TIP3    H159269   5.849   2.587  15.909 -0.6540  0.0892  0.6621
12618TIP3    H259270   5.880   2.656  15.777 -0.9957 -1.0292 -0.0170
12619TIP3   OH259271   4.857   3.147   5.301  0.4643 -0.4119 -0.7282
12619TIP3    H159272   4.770   3.132   5.337  0.7025 -0.4470 -0.1492
12619TIP3    H259273   4.863   3.089   5.226 -0.3023  0.1637 -1.2494
12620TIP3   OH259274   5.859   6.017   3.041  0.2672 -0.0597  0.4048
12620TIP3    H159275   5.817   6.035   3.125 -0.4834 -1.5712  0.3861
12620TIP3    H259276   5.867   6.103   2.999 -1.2132  0.4787  1.1684
12621TIP3   OH259277   3.688   0.565   2.178 -0.4144 -0.0208  0.3298
12621TIP3    H159278   3.609   0.575   2.231 -0.0132  0.2652  0.8863
12621TIP3    H259279   3.710   0.655   2.150 -0.5301 -0.1492 -0.1850
12622TIP3   OH259280   0.646   5.185   5.387  0.2975 -0.5774 -0.4289
12622TIP3    H159281   0.706   5.240   5.438 -1.1424 -0.6393  1.4291
12622TIP3    H259282   0.559   5.205   5.422 -0.8793 -0.1914 -3.3092
12623TIP3   OH259283   3.039   3.606   4.994  0.5730 -0.1758 -0.2712
12623TIP3    H159284   3.045   3.532   5.056  0.8627 -1.5873 -1.9059
12623TIP3    H259285   3.040   3.565   4.908 -1.2158  1.6329 -1.2418
12624TIP3   OH259286   3.744   1.379   5.147 -0.9705  0.5464 -0.2089
12624TIP3    H159287   3.693   1.413   5.074 -0.3902 -0.7731 -1.2715
12624TIP3    H259288   3.835   1.388   5.120 -0.6640  1.3727  0.9834
12625TIP3   OH259289   0.853   4.926   1.567 -0.6342 -0.2386 -0.0669
12625TIP3    H159290   0.777   4.975   1.598 -1.8246 -1.0772 -1.5121
12625TIP3    H259291   0.928   4.983   1.585 -1.8854  1.8305 -1.0514
12626TIP3   OH259292   0.754   6.590  11.875  0.7307  0.4892 -0.1045
12626TIP3    H159293   0.702   6.637  11.810 -1.2474 -0.2415  0.8844
12626TIP3    H259294   0.835   6.568  11.829 -0.2164  0.8212 -2.0270
12627TIP3   OH259295   6.639   0.868   3.107  0.3749 -0.0429  0.0519
12627TIP3    H159296   6.616   0.951   3.148  1.9170  0.4575 -0.0171
12627TIP3    H259297   6.605   0.801   3.166  1.0577  0.6621  1.2786
12628TIP3   OH259298   4.427   5.491  13.461 -0.1261  0.1685  0.0066
12628TIP3    H159299   4.452   5.399  13.462  1.4017  0.5408 -0.7712
12628TIP3    H259300   4.410   5.512  13.552  1.3619 -0.4292  0.4554
12629TIP3   OH259301   5.669   1.002  15.912  0.2798 -0.3120  0.1963
12629TIP3    H159302   5.661   0.907  15.900 -0.0348 -0.4428  1.2931
12629TIP3    H259303   5.738   1.012  15.977  3.0615  0.4266 -2.6244
12630TIP3   OH259304   2.216   3.725   1.497  0.3950 -0.0859 -0.2353
12630TIP3    H159305   2.131   3.770   1.499 -0.5039 -1.7145  1.3286
12630TIP3    H259306   2.223   3.689   1.409 -1.3471 -1.3441  0.1062
12631TIP3   OH259307   1.713   1.157   2.865 -0.0976  0.4777 -0.1354
12631TIP3    H159308   1.689   1.132   2.954  2.6127  0.3493  0.6536
12631TIP3    H259309   1.723   1.252   2.868  1.3780  0.3284  0.1012
12632TIP3   OH259310   5.558   5.871  12.714  0.4599  0.0715 -0.4671
12632TIP3    H159311   5.630   5.817  12.748  0.7623  1.3400  1.0353
12632TIP3    H259312   5.501   5.809  12.669  0.7474 -1.5409  1.2251
12633TIP3   OH259313   6.131   1.213  14.002  0.0412  0.3832  0.5692
12633TIP3    H159314   6.135   1.121  13.977 -0.9540  0.6943 -0.8597
12633TIP3    H259315   6.080   1.214  14.083  0.5183 -0.3589  0.8887
12634TIP3   OH259316   6.143   5.148   5.376  0.6996 -0.1219  0.3350
12634TIP3    H159317   6.209   5.190   5.320 -0.9757  0.9216 -0.9449
12634TIP3    H259318   6.075   5.215   5.388 -1.6099 -2.0615 -0.9740
12635TIP3   OH259319   0.677   0.781   1.397  0.5929 -0.0333  0.0412
12635TIP3    H159320   0.739   0.799   1.326  0.2479  1.7797  0.1625
12635TIP3    H259321   0.592   0.772   1.354  0.7649 -1.6171 -0.0264
12636TIP3   OH259322   1.835   5.164   2.438  0.4078 -0.4999 -0.8068
12636TIP3    H159323   1.891   5.101   2.394  0.1462 -1.1377 -0.2407
12636TIP3    H259324   1.867   5.165   2.529 -1.0431 -1.5495 -0.2471
12637TIP3   OH259325   2.481   1.076   4.936 -0.1820 -0.5814  0.6134
12637TIP3    H159326   2.553   1.017   4.960  0.5880  0.6383  1.3696
12637TIP3    H259327   2.437   1.031   4.864  1.7032 -1.0837 -0.2825
12638TIP3   OH259328   5.536   1.930  16.387 -0.0188 -0.1572  0.1718
12638TIP3    H159329   5.472   1.928  16.316 -0.2148  1.1683  0.2685
12638TIP3    H259330   5.616   1.894  16.350 -0.2933 -0.0477 -0.5384
12639TIP3   OH259331   0.287   2.497  13.748  0.9971 -0.2364 -0.0007
12639TIP3    H159332   0.280   2.417  13.695  0.8990  0.4668 -1.0801
12639TIP3    H259333   0.197   2.530  13.753  1.4984  2.0580 -3.2067
12640TIP3   OH259334   3.744   6.753  15.329 -0.6973 -0.0860 -0.0162
12640TIP3    H159335   3.713   6.824  15.386 -2.2036 -0.0058 -0.8754
12640TIP3    H259336   3.680   6.683  15.340 -0.5627 -0.3815 -0.9747
12641TIP3   OH259337   0.342   1.555  12.859 -0.7609  0.2610 -0.4122
12641TIP3    H159338   0.401   1.483  12.880 -0.7660  0.5030  0.4607
12641TIP3    H259339   0.320   1.594  12.944 -1.9224  0.3782 -0.7555
12642TIP3   OH259340   4.881   0.018  15.844 -0.0397  0.2784  0.3099
12642TIP3    H159341   4.888  -0.041  15.769  0.9244  0.1715  0.4766
12642TIP3    H259342   4.815  -0.023  15.900  0.2844 -0.4096  0.1994
12643TIP3   OH259343   0.768   3.052  11.927  0.2348  0.4378  0.8907
12643TIP3    H159344   0.754   2.963  11.960  1.7338 -0.3975 -0.5660
12643TIP3    H259345   0.785   3.105  12.005  5.0424 -1.6785  1.6580
12644TIP3   OH259346   0.966   0.873   5.239  0.1295  0.2582  0.7925
12644TIP3    H159347   0.919   0.952   5.211  0.2632  0.3666  0.8717
12644TIP3    H259348   0.945   0.864   5.331 -0.2691 -0.0699  0.6673
12645TIP3   OH259349   3.154   0.359   4.571  0.5000 -0.5377 -0.3194
12645TIP3    H159350   3.246   0.337   4.585  1.2237  0.0418 -3.4146
12645TIP3    H259351   3.128   0.405   4.651  2.5719 -1.5846  1.0508
12646TIP3   OH259352   5.803   3.341  12.730  0.4614 -0.4609 -0.2317
12646TIP3    H159353   5.885   3.385  12.753  0.8254 -0.8940 -0.7030
12646TIP3    H259354   5.754   3.338  12.812  0.1444  1.4171 -0.3010
12647TIP3   OH259355   0.025   5.273   1.140 -0.1593 -0.4374  0.1334
12647TIP3    H159356  -0.011   5.251   1.226 -0.3683 -0.5057  0.0281
12647TIP3    H259357   0.119   5.255   1.148  0.0460  0.7998  0.7559
12648TIP3   OH259358   5.379   5.638   4.468 -0.1085 -0.7468  0.6382
12648TIP3    H159359   5.333   5.626   4.385 -0.4098  0.9434  0.5167
12648TIP3    H259360   5.471   5.630   4.446  0.0193  2.4865 -0.5158
12649TIP3   OH259361   2.895   2.316   4.149  0.1345 -0.5592  0.8163
12649TIP3    H159362   2.887   2.221   4.136  0.8002 -0.7029  1.4232
12649TIP3    H259363   2.980   2.328   4.190  0.7897  0.4555 -0.7261
12650TIP3   OH259364   5.861   0.868  15.329 -0.1284  0.3097 -0.0894
12650TIP3    H159365   5.955   0.885  15.323 -0.0448 -0.6870 -2.2234
12650TIP3    H259366   5.828   0.883  15.240 -1.9409  0.2992  0.5417
12651TIP3   OH259367   2.967   4.228  14.602 -0.7209  0.1168  0.1139
12651TIP3    H159368   3.016   4.310  14.611  0.5030 -0.4327 -1.1888
12651TIP3    H259369   2.897   4.248  14.541 -0.4038  0.1856 -0.2270
12652TIP3   OH259370   4.646   6.572   1.962 -0.6223  0.3255  0.2029
12652TIP3    H159371   4.712   6.576   2.031 -0.6939 -1.1985  0.3883
12652TIP3    H259372   4.663   6.489   1.917 -1.5433  0.5716 -0.6360
12653TIP3   OH259373   0.052   6.303   2.393  0.5228  0.0256  0.0530
12653TIP3    H159374   0.070   6.312   2.487  1.2595  1.6988 -0.2081
12653TIP3    H259375   0.051   6.208   2.378  0.3298 -0.2811  1.7472
12654TIP3   OH259376   5.205   1.538  11.634  0.2398  0.1100 -0.2984
12654TIP3    H159377   5.206   1.628  11.668 -0.2675  0.2763 -0.6950
12654TIP3    H259378   5.284   1.533  11.579 -0.4356  0.7798 -1.3877
12655TIP3   OH259379   4.562   3.972  13.282 -0.2054  0.6763  0.2084
12655TIP3    H159380   4.645   3.933  13.254 -0.7042  0.5512 -1.1918
12655TIP3    H259381   4.535   3.919  13.357  0.7190  0.3929  0.3528
12656TIP3   OH259382   4.017   3.003  10.969  0.2639  0.0731 -0.3233
12656TIP3    H159383   3.930   2.992  10.931  1.4059  0.4378 -3.3437
12656TIP3    H259384   4.044   3.091  10.943  0.7325  0.8839  2.5346
12657TIP3   OH259385   1.594   5.249   2.666 -0.2035 -0.9734  0.0545
12657TIP3    H159386   1.678   5.259   2.711  0.0363 -0.2943 -0.5161
12657TIP3    H259387   1.533   5.222   2.735  0.1946 -0.1362  0.7642
12658TIP3   OH259388   1.951   5.390  13.060  0.1350 -0.1879 -0.6938
12658TIP3    H159389   1.958   5.327  13.132  2.1699 -0.3725 -0.9830
12658TIP3    H259390   1.947   5.475  13.102  6.0621  0.2135 -0.0553
12659TIP3   OH259391   0.913   2.586   4.586 -0.4126 -0.4758 -0.0529
12659TIP3    H159392   0.840   2.647   4.580  0.2826  0.2791 -1.4533
12659TIP3    H259393   0.986   2.638   4.621 -0.3868 -1.0818  0.8278
12660TIP3   OH259394   5.464   5.363  12.703 -0.1093 -0.2031 -0.0053
12660TIP3    H159395   5.418   5.279  12.694 -1.6902  0.5429  0.7184
12660TIP3    H259396   5.437   5.395  12.789  0.5221  1.0247 -0.2536
12661TIP3   OH259397   0.977   0.595   0.327 -0.3994  0.1214  0.0349
12661TIP3    H159398   1.045   0.625   0.387 -1.2632  0.4138  0.8742
12661TIP3    H259399   1.024   0.540   0.263  1.2454  3.1636 -1.5750
12662TIP3   OH259400   3.521   5.862   3.834 -0.1231 -0.4249 -0.6197
12662TIP3    H159401   3.595   5.840   3.891 -0.4587  0.1926  0.0831
12662TIP3    H259402   3.475   5.931   3.881 -0.4325  0.0881 -1.6388
12663TIP3   OH259403   0.500   3.622   6.186  0.0667  0.4455 -1.0113
12663TIP3    H159404   0.575   3.573   6.150  0.3164 -0.9630  1.2502
12663TIP3    H259405   0.424   3.570   6.161  0.2847 -0.8679  0.8373
12664TIP3   OH259406   5.360   1.348   2.321  0.0059  0.0369  0.4406
12664TIP3    H159407   5.323   1.280   2.266 -1.1385 -1.0649  2.4391
12664TIP3    H259408   5.284   1.385   2.368  0.6679  2.2867 -0.1070
12665TIP3   OH259409   2.070   2.169   0.620 -0.6629  0.5441 -0.2059
12665TIP3    H159410   2.117   2.197   0.699  2.0423 -0.9616 -1.1370
12665TIP3    H259411   2.112   2.216   0.549 -1.5821  0.2299 -0.9788
12666TIP3   OH259412   2.712   1.431   1.979  0.7088 -0.1608 -0.1284
12666TIP3    H159413   2.628   1.385   1.988  0.1656  0.8708  0.2271
12666TIP3    H259414   2.735   1.420   1.887 -0.8181  1.1747 -0.7237
12667TIP3   OH259415   3.168   4.063  11.889  0.0791  0.3457  0.1547
12667TIP3    H159416   3.200   4.060  11.799  0.0845  0.5636  0.1477
12667TIP3    H259417   3.236   4.112  11.936 -0.0152  0.3989  0.2365
12668TIP3   OH259418   1.322   1.204  16.558 -0.2042 -0.2123 -0.3945
12668TIP3    H159419   1.245   1.206  16.613  0.1376 -3.6854  0.3910
12668TIP3    H259420   1.317   1.122  16.510  2.5158 -0.1239 -1.0441
12669TIP3   OH259421   0.067   1.737   1.810  0.2373 -0.6235  0.7307
12669TIP3    H159422   0.013   1.700   1.880 -0.6849  0.9084  0.8646
12669TIP3    H259423   0.148   1.762   1.854 -0.8658  1.6328  1.6152
12670TIP3   OH259424   5.783   6.262  12.323  0.2344 -0.2613  0.4398
12670TIP3    H159425   5.767   6.169  12.333  0.3853 -0.8069 -3.2676
12670TIP3    H259426   5.870   6.268  12.283  0.3048  1.5036  0.7564
12671TIP3   OH259427   2.855   6.498  15.826  0.4045 -0.2770 -0.0618
12671TIP3    H159428   2.916   6.436  15.868  1.9614  0.8342 -0.5806
12671TIP3    H259429   2.827   6.556  15.897  1.9711  0.7587 -0.2364
12672TIP3   OH259430   5.518   5.518   5.260  0.2966  0.8408 -0.3998
12672TIP3    H159431   5.555   5.440   5.301  1.8573  1.5470 -0.3836
12672TIP3    H259432   5.477   5.486   5.180 -0.7330 -0.2266  0.5210
12673TIP3   OH259433   1.904   6.089  12.177 -0.9261 -0.0502 -0.0753
12673TIP3    H159434   1.871   6.087  12.266  4.4917 -1.4580  2.3117
12673TIP3    H259435   1.924   6.182  12.162  0.0919 -0.0562  1.1074
12674TIP3   OH259436   5.851   5.011   5.192  0.6840  0.3637 -0.7178
12674TIP3    H159437   5.878   4.922   5.168  0.6479  0.1818 -0.1174
12674TIP3    H259438   5.814   5.001   5.280  1.4476  1.1101 -0.2964
12675TIP3   OH259439   3.822   5.615  11.136  0.2959  0.2679  0.0325
12675TIP3    H159440   3.860   5.688  11.087  0.5142  0.2519  0.1767
12675TIP3    H259441   3.728   5.630  11.132  0.3784  1.3798  1.2833
12676TIP3   OH259442   4.000   5.749   3.369  0.9833  1.0180  0.0350
12676TIP3    H159443   4.058   5.762   3.294  2.5901  1.3041  1.2691
12676TIP3    H259444   3.934   5.686   3.338  2.5377 -0.1235 -1.1241
12677TIP3   OH259445   6.777   4.651   1.311 -0.3530 -0.2831 -0.4725
12677TIP3    H159446   6.732   4.734   1.330 -0.5948  0.1049 -2.4590
12677TIP3    H259447   6.867   4.665   1.341 -0.4839  0.5766 -0.4527
12678TIP3   OH259448   6.140   6.736   5.113  0.7245  0.0236  0.0853
12678TIP3    H159449   6.095   6.653   5.132 -0.4446  0.6868  0.3388
12678TIP3    H259450   6.209   6.742   5.179  1.0921 -0.9477 -0.2002
12679TIP3   OH259451   0.433   4.295   2.540 -0.2929  0.0849  0.0616
12679TIP3    H159452   0.497   4.365   2.556 -0.1072  0.0794 -0.6193
12679TIP3    H259453   0.348   4.335   2.559 -0.1195  0.1975  0.6247
12680TIP3   OH259454   0.347   0.789   5.837 -0.1513 -0.8006  0.3278
12680TIP3    H159455   0.319   0.701   5.812 -0.3221 -1.4083  2.4560
12680TIP3    H259456   0.300   0.808   5.918 -0.7163  1.6026 -0.4609
12681TIP3   OH259457   1.625   3.304  15.172 -0.1033 -0.2136  0.4521
12681TIP3    H159458   1.717   3.321  15.150 -0.0048 -1.7273 -0.4233
12681TIP3    H259459   1.578   3.318  15.090 -0.7100  0.7085  0.9307
12682TIP3   OH259460   6.338   0.272   1.490 -0.0134 -0.0346  0.5217
12682TIP3    H159461   6.310   0.343   1.433 -0.0501  0.0779  0.6809
12682TIP3    H259462   6.402   0.224   1.437 -0.2309 -0.0775  0.2943
12683TIP3   OH259463   0.624   6.598  11.283  0.2396 -0.5202 -0.1371
12683TIP3    H159464   0.671   6.517  11.264  0.5982 -0.4536  0.4434
12683TIP3    H259465   0.654   6.659  11.216 -0.8467 -1.1595 -1.2514
12684TIP3   OH259466   4.760   3.305   4.657 -0.1886 -0.7755  0.5751
12684TIP3    H159467   4.698   3.336   4.723 -0.0056 -0.8372  0.7779
12684TIP3    H259468   4.727   3.341   4.574 -0.8558 -1.3340  0.5863
12685TIP3   OH259469   3.904   2.172  15.613 -0.0998  0.4166  0.1357
12685TIP3    H159470   3.811   2.175  15.636 -0.6080 -1.8161 -1.3357
12685TIP3    H259471   3.934   2.086  15.642  1.4433  0.9737  0.2890
12686TIP3   OH259472   2.248   1.381  16.886  0.0400 -0.0501 -0.0373
12686TIP3    H159473   2.328   1.345  16.925  0.5467  0.0939 -0.9120
12686TIP3    H259474   2.241   1.338  16.800 -1.4784 -0.9477  0.4999
12687TIP3   OH259475   2.882   4.369  11.450 -0.1951  0.4730 -0.0655
12687TIP3    H159476   2.880   4.428  11.375 -0.0054 -0.7357 -1.0502
12687TIP3    H259477   2.975   4.356  11.468 -0.1929 -0.5779 -0.7375
12688TIP3   OH259478   4.638   6.534  15.834  0.3292  0.1534  0.1547
12688TIP3    H159479   4.575   6.602  15.812  1.3208  0.8366 -0.7421
12688TIP3    H259480   4.698   6.533  15.758  0.0446 -2.0739 -0.0965
12689TIP3   OH259481   0.813   2.733   5.506  0.4620 -0.5720 -0.0378
12689TIP3    H159482   0.824   2.740   5.600 -2.8159  1.6095  0.3323
12689TIP3    H259483   0.873   2.798   5.469 -0.3943  0.7092  0.7801
12690TIP3   OH259484   3.874   0.546  13.980  0.0211 -0.3307  0.1270
12690TIP3    H159485   3.805   0.603  13.946 -1.7914 -2.4152  0.0422
12690TIP3    H259486   3.893   0.486  13.909  3.0902  1.0388 -0.3703
12691TIP3   OH259487   6.775   3.656   4.260  0.2916  0.3396 -0.5992
12691TIP3    H159488   6.727   3.710   4.322 -0.5682 -0.4356 -0.5835
12691TIP3    H259489   6.783   3.711   4.182 -0.6944  0.4398 -0.6322
12692TIP3   OH259490   5.383   5.924  11.392 -0.0302 -0.1500  0.2338
12692TIP3    H159491   5.296   5.962  11.401 -0.4838 -1.1304  0.1414
12692TIP3    H259492   5.409   5.945  11.303  0.7808  2.0307  0.9129
12693TIP3   OH259493   1.789   6.737   0.623 -0.1845 -0.1776  0.6101
12693TIP3    H159494   1.762   6.778   0.540 -0.8684 -0.8768  0.4746
12693TIP3    H259495   1.814   6.811   0.679  1.3280  0.2601 -0.5574
12694TIP3   OH259496   3.681   5.393  16.145  0.6243  0.1905  0.0681
12694TIP3    H159497   3.757   5.347  16.109  1.5686  1.1142  0.7960
12694TIP3    H259498   3.622   5.405  16.070  2.0723  1.1627 -0.9936
12695TIP3   OH259499   5.126   3.222  13.642 -0.1241 -0.0120 -1.2049
12695TIP3    H159500   5.070   3.281  13.592 -0.1212  0.7683 -0.3140
12695TIP3    H259501   5.203   3.208  13.586  0.9339  2.6548 -0.5335
12696TIP3   OH259502   1.228   4.616   3.543 -0.1206  0.3584 -0.2531
12696TIP3    H159503   1.188   4.640   3.460 -0.7039  1.0160  0.2029
12696TIP3    H259504   1.285   4.690   3.565 -0.9364  0.7788  0.5303
12697TIP3   OH259505   2.691   6.219   1.538 -0.0028  0.7421 -0.3659
12697TIP3    H159506   2.753   6.182   1.476  1.1432  0.8301  0.6769
12697TIP3    H259507   2.656   6.144   1.585  0.0811  0.7614 -0.2713
12698TIP3   OH259508   2.505   0.101   4.187  0.2035 -0.0191 -0.0403
12698TIP3    H159509   2.527   0.079   4.096 -2.0032  1.7740 -1.1000
12698TIP3    H259510   2.460   0.022   4.220  1.2841 -0.7951 -0.3739
12699TIP3   OH259511   2.015   3.566  12.687 -0.5788 -0.4893  0.2016
12699TIP3    H159512   2.043   3.549  12.777 -1.1741 -0.5567  0.3820
12699TIP3    H259513   2.061   3.500  12.635 -0.8915 -1.0043  0.5701
12700TIP3   OH259514   4.899   5.284  11.190 -0.2132 -0.5015  0.5933
12700TIP3    H159515   4.919   5.222  11.120 -0.7908 -0.7100  0.6101
12700TIP3    H259516   4.982   5.330  11.205 -0.4832  0.8230 -1.4702
12701TIP3   OH259517   5.002   6.144   2.277  0.0768 -0.3855 -0.6254
12701TIP3    H159518   5.054   6.218   2.245 -0.8679  0.5081 -0.1886
12701TIP3    H259519   4.960   6.178   2.356 -0.9132 -1.1725 -0.7925
12702TIP3   OH259520   3.479   6.153  12.812 -0.6193 -0.0768  0.1292
12702TIP3    H159521   3.468   6.232  12.759 -0.9217  0.3821  0.8681
12702TIP3    H259522   3.390   6.126  12.834 -0.6315 -1.7190 -1.6781
12703TIP3   OH259523   2.071   4.014  13.460 -0.1541 -0.0855 -0.3505
12703TIP3    H159524   2.126   3.988  13.533 -0.1427  0.8275 -0.0173
12703TIP3    H259525   2.105   3.966  13.385 -1.3498 -2.5255  0.5702
12704TIP3   OH259526   6.459   6.599   2.338  0.2129 -0.3823  0.0020
12704TIP3    H159527   6.513   6.520   2.336 -0.1218 -0.6466  0.8143
12704TIP3    H259528   6.449   6.624   2.246  0.5358 -1.1386 -0.2457
12705TIP3   OH259529   2.072   4.882  13.352  0.1623  0.3947  1.1132
12705TIP3    H159530   1.978   4.900  13.360 -0.3435 -1.9973  1.2247
12705TIP3    H259531   2.092   4.900  13.260 -0.7586 -0.4534  0.7250
12706TIP3   OH259532   0.908   5.621   3.843 -0.3039 -0.1148  0.1292
12706TIP3    H159533   0.863   5.666   3.915  0.8219 -1.5182  1.8058
12706TIP3    H259534   0.951   5.546   3.885  2.8023  0.5954 -1.4678
12707TIP3   OH259535   2.295   5.810  11.114  0.0892 -0.2453 -0.6450
12707TIP3    H159536   2.221   5.775  11.163  0.5883  0.1525  0.4354
12707TIP3    H259537   2.303   5.753  11.038 -0.7237 -0.8763 -0.2759
12708TIP3   OH259538   5.537   0.198  16.277 -0.0660 -0.2084  0.1361
12708TIP3    H159539   5.523   0.293  16.282 -0.5552 -0.3241  1.0812
12708TIP3    H259540   5.569   0.184  16.188 -0.1607  0.8215 -0.0765
12709TIP3   OH259541   2.482   0.884  15.906  0.3710 -0.2436  0.5396
12709TIP3    H159542   2.515   0.884  15.996  1.5029  2.3142  0.2015
12709TIP3    H259543   2.526   0.957  15.864 -2.5772  0.7256 -1.1849
12710TIP3   OH259544   2.872   1.552  14.476  0.4371  0.0596  0.1731
12710TIP3    H159545   2.940   1.539  14.409  0.2702  0.3395 -0.0511
12710TIP3    H259546   2.918   1.598  14.546  0.7178 -0.6082  0.4374
12711TIP3   OH259547   5.881   2.186   4.775 -0.7288  0.1561 -0.4083
12711TIP3    H159548   5.827   2.224   4.844  0.0562 -0.1468  0.3971
12711TIP3    H259549   5.857   2.094   4.773 -0.3862  0.0571 -0.1692
12712TIP3   OH259550   0.502   5.954   4.507 -0.3915  0.0570 -0.3554
12712TIP3    H159551   0.409   5.966   4.527 -0.5105 -0.4146 -0.6284
12712TIP3    H259552   0.515   6.002   4.425 -0.7533 -1.1746 -1.1669
12713TIP3   OH259553   0.122   1.148   1.385 -0.4304 -0.0625 -0.7006
12713TIP3    H159554   0.060   1.144   1.459 -1.2828 -1.7791 -1.4432
12713TIP3    H259555   0.173   1.067   1.393 -0.3404 -0.1263 -1.8053
12714TIP3   OH259556   3.109   1.271  12.908 -0.0739  0.2084  0.5943
12714TIP3    H159557   3.156   1.353  12.896 -0.3342  0.3051  0.2024
12714TIP3    H259558   3.124   1.223  12.826 -0.1269 -0.0323  0.7232
12715TIP3   OH259559   0.664   6.381   1.709  0.0467  0.1560 -0.3174
12715TIP3    H159560   0.611   6.456   1.682  0.3291  0.7133  0.6224
12715TIP3    H259561   0.601   6.321   1.749  0.1704  1.1909  1.5861
12716TIP3   OH259562   2.647   0.192  16.638  0.4892 -0.0849 -0.1859
12716TIP3    H159563   2.726   0.240  16.612 -0.3608  0.4171 -2.0958
12716TIP3    H259564   2.575   0.253  16.619 -0.4333 -0.9983  0.2617
12717TIP3   OH259565   3.291   6.393  16.342 -0.1202 -0.6097  0.3640
12717TIP3    H159566   3.287   6.438  16.426 -0.5244 -0.1447  0.0948
12717TIP3    H259567   3.365   6.332  16.352 -0.2514 -0.6668  1.1017
12718TIP3   OH259568   5.035   4.825  16.954  0.1558 -0.5693  0.1813
12718TIP3    H159569   4.986   4.812  17.035  0.5341  1.7234  0.8494
12718TIP3    H259570   5.121   4.856  16.983  0.8471 -1.2424 -1.0747
12719TIP3   OH259571   5.498   0.246  12.853 -0.4636  0.1885  0.5119
12719TIP3    H159572   5.541   0.169  12.891 -0.8530  0.4923  1.5956
12719TIP3    H259573   5.415   0.252  12.899 -1.0202  0.5030 -0.5003
12720TIP3   OH259574   6.418   5.897  13.922  0.7017  0.1836  0.1928
12720TIP3    H159575   6.365   5.895  14.002  0.6539  2.2140  0.2572
12720TIP3    H259576   6.392   5.818  13.874 -0.3685 -0.2845  1.4763
12721TIP3   OH259577   2.181   4.165  16.015 -0.0214 -0.4121 -0.0613
12721TIP3    H159578   2.141   4.199  15.934  1.3248  1.3804 -0.0545
12721TIP3    H259579   2.245   4.100  15.985 -2.0123 -2.4472 -0.1411
12722TIP3   OH259580   5.226   5.968  14.608 -0.3139 -0.5547 -0.4224
12722TIP3    H159581   5.138   6.003  14.626 -0.5151 -0.6852 -1.0973
12722TIP3    H259582   5.219   5.875  14.627  0.4331 -0.1488  2.1157
12723TIP3   OH259583   4.548   6.010  17.091  0.0443 -0.4007  0.0729
12723TIP3    H159584   4.523   6.065  17.165  0.0530 -0.5393  0.1784
12723TIP3    H259585   4.619   5.955  17.125 -0.3850 -0.9151  0.1483
12724TIP3   OH259586   3.927   0.028   5.029  0.1391 -0.8293  0.2944
12724TIP3    H159587   3.930  -0.067   5.038 -0.3482 -0.6670  2.9851
12724TIP3    H259588   3.915   0.060   5.118 -1.2998  1.6984 -0.6985
12725TIP3   OH259589   5.225   1.973  12.718  0.1335 -0.5528 -0.7495
12725TIP3    H159590   5.184   1.898  12.673  2.8799 -2.0962 -0.9293
12725TIP3    H259591   5.237   2.038  12.649 -0.8884 -0.5735 -0.9550
12726TIP3   OH259592   5.560   3.498   3.935 -0.3229  0.5842 -0.2214
12726TIP3    H159593   5.517   3.583   3.923  0.9640  1.4784  1.1241
12726TIP3    H259594   5.602   3.480   3.851  0.4748  1.9463 -0.1539
12727TIP3   OH259595   4.044   4.968  16.759 -0.0969 -0.2213 -0.6500
12727TIP3    H159596   4.104   4.992  16.830  0.5003 -1.9455 -0.5234
12727TIP3    H259597   3.995   4.893  16.793 -1.7639  0.6153 -1.0755
12728TIP3   OH259598   2.436   4.687   0.160 -0.0736  0.0690  0.1995
12728TIP3    H159599   2.518   4.735   0.165  1.2440 -1.9726 -0.7131
12728TIP3    H259600   2.408   4.677   0.251  1.2685 -0.1205  0.6075
12729TIP3   OH259601   3.679   2.708   2.411  0.0842 -0.1860  0.0427
12729TIP3    H159602   3.634   2.752   2.339 -0.9020  2.1498  1.9354
12729TIP3    H259603   3.609   2.672   2.465  0.7574 -1.0812  0.3442
12730TIP3   OH259604   4.148   2.959  11.984  0.0610 -0.0152 -0.6619
12730TIP3    H159605   4.241   2.965  12.001 -0.1831 -0.5333  1.0797
12730TIP3    H259606   4.118   3.049  11.973  0.2967  0.4033  1.7177
12731TIP3   OH259607   0.998   3.538   0.132  0.3421  0.0212 -0.0505
12731TIP3    H159608   0.906   3.561   0.118  0.6198  0.0875 -2.1283
12731TIP3    H259609   0.997   3.447   0.160 -0.3630  0.0909  0.1555
12732TIP3   OH259610   6.297   0.532   1.303  0.0720  0.0746 -0.0996
12732TIP3    H159611   6.220   0.538   1.359 -0.4699  0.2646 -0.8410
12732TIP3    H259612   6.354   0.603   1.331 -0.6972  0.8809 -0.5221
12733TIP3   OH259613   5.044   6.588  15.487  0.1640  0.1974 -0.7738
12733TIP3    H159614   5.078   6.499  15.479 -1.2768 -0.2359 -2.8856
12733TIP3    H259615   5.121   6.641  15.507  1.8137 -1.0013 -3.3573
12734TIP3   OH259616   4.524   0.974   0.145  0.0863  0.1097  0.5207
12734TIP3    H159617   4.451   0.913   0.143  1.4008 -1.5339 -0.4769
12734TIP3    H259618   4.545   0.990   0.053  0.3953  1.3291  0.7798
12735TIP3   OH259619   4.770   2.830  15.681  0.1070  0.4053 -0.2611
12735TIP3    H159620   4.767   2.745  15.724 -0.3260  0.4519 -0.1978
12735TIP3    H259621   4.838   2.879  15.729  0.8957 -0.1561 -0.7776
12736TIP3   OH259622   3.159   6.643  15.330  0.5338  0.0469 -0.6356
12736TIP3    H159623   3.171   6.693  15.410  1.6429 -0.5463 -0.4039
12736TIP3    H259624   3.072   6.667  15.298  1.1825  2.4244 -0.7715
12737TIP3   OH259625   2.527   2.120   1.849  0.1545 -0.0211  0.4073
12737TIP3    H159626   2.548   2.027   1.855 -0.6761 -0.2005  0.5806
12737TIP3    H259627   2.434   2.123   1.825  0.2066  0.7618  0.2635
12738TIP3   OH259628   2.692   5.622   2.438 -0.0399  0.3910  0.1259
12738TIP3    H159629   2.718   5.580   2.356 -0.3875  2.4043 -1.1079
12738TIP3    H259630   2.769   5.617   2.494 -0.6420 -3.5582  0.9053
12739TIP3   OH259631   3.017   3.333   3.578  0.0980 -0.7123  0.5478
12739TIP3    H159632   3.062   3.326   3.494 -1.8964 -0.7850 -0.5781
12739TIP3    H259633   3.077   3.382   3.634  2.9235 -3.4339  0.1621
12740TIP3   OH259634   0.915   5.981  12.781  0.2498 -0.0662  0.0384
12740TIP3    H159635   0.970   5.961  12.705  1.2261 -0.7177  0.8807
12740TIP3    H259636   0.942   6.069  12.807 -0.4686  0.3785 -0.6671
12741TIP3   OH259637   3.722   6.179   1.734  0.2333 -0.4724 -0.3256
12741TIP3    H159638   3.769   6.256   1.703 -1.8628  0.8602 -0.3931
12741TIP3    H259639   3.644   6.214   1.777 -1.1657 -2.5517 -0.9921
12742TIP3   OH259640   1.813   6.172  12.682  0.3433 -0.1684 -0.1227
12742TIP3    H159641   1.854   6.258  12.688  1.6192 -0.5459 -2.4402
12742TIP3    H259642   1.825   6.145  12.591 -2.1447 -1.7927 -0.0814
12743TIP3   OH259643   5.333   0.765  12.209 -0.8190  0.2181  0.0565
12743TIP3    H159644   5.248   0.809  12.208  0.1824  2.2668  0.8172
12743TIP3    H259645   5.345   0.737  12.299 -0.5168  0.2728  0.0344
12744TIP3   OH259646   1.416   0.935   1.986  0.0505 -0.4665  0.2226
12744TIP3    H159647   1.491   0.895   1.943  0.4676  2.3042 -1.8495
12744TIP3    H259648   1.452   0.975   2.065  0.7458  0.5376 -0.5741
12745TIP3   OH259649   4.510   3.976   5.246 -0.3418 -0.0600  0.5353
12745TIP3    H159650   4.479   3.924   5.320  0.5180  1.0674  1.7168
12745TIP3    H259651   4.448   4.049   5.241 -1.1464 -0.7823 -0.6944
12746TIP3   OH259652   3.880   3.729  16.257  0.5632  0.1595  0.5497
12746TIP3    H159653   3.903   3.769  16.174  1.5410  0.7210  1.0834
12746TIP3    H259654   3.823   3.655  16.233  0.0503  0.8889 -0.5370
12747TIP3   OH259655   5.446   0.784   6.448  0.1711  0.4328 -0.0915
12747TIP3    H159656   5.424   0.841   6.375 -0.0626 -2.2413 -2.3008
12747TIP3    H259657   5.362   0.760   6.486 -0.2279 -2.0761 -2.2709
12748TIP3   OH259658   0.639   1.352  15.298  0.8144  0.0404  0.1854
12748TIP3    H159659   0.555   1.328  15.337 -0.8378  4.6473  0.0571
12748TIP3    H259660   0.679   1.411  15.362  2.3755  0.6113 -1.2275
12749TIP3   OH259661   0.510   6.550   1.543  0.5192  0.2180 -0.5875
12749TIP3    H159662   0.451   6.502   1.486  1.1099 -0.1536 -0.8976
12749TIP3    H259663   0.458   6.623   1.576 -0.4786 -0.8093  0.1445
12750TIP3   OH259664   3.690   4.204   0.365  0.0815 -0.4839 -0.5530
12750TIP3    H159665   3.604   4.220   0.404  0.1773 -0.6208 -0.2854
12750TIP3    H259666   3.672   4.188   0.272 -0.1461 -0.1516 -0.5672
12751TIP3   OH259667   2.882   5.626   6.026 -0.0218  0.5606  0.2283
12751TIP3    H159668   2.870   5.543   6.073  0.9167  0.7044  0.7394
12751TIP3    H259669   2.843   5.610   5.940 -0.3583 -0.2220  0.5124
12752TIP3   OH259670   2.628   6.631  14.486 -0.1866  0.0293  0.3348
12752TIP3    H159671   2.668   6.615  14.572  0.1145 -0.0299  0.1869
12752TIP3    H259672   2.540   6.664  14.506 -0.0040  0.3251  0.6717
12753TIP3   OH259673   1.208   5.223  10.717 -0.5202 -0.6986  0.0344
12753TIP3    H159674   1.211   5.306  10.669 -0.9060 -0.2129  0.8289
12753TIP3    H259675   1.183   5.248  10.806 -1.0265 -1.7073  0.1853
12754TIP3   OH259676   1.596   3.389  13.514  0.1168 -0.5059  0.3313
12754TIP3    H159677   1.640   3.361  13.433  0.9063 -1.8208  1.1749
12754TIP3    H259678   1.589   3.484  13.505  0.7566 -0.5496 -0.9995
12755TIP3   OH259679   0.975   1.982   3.866  0.0213  0.1545 -0.4618
12755TIP3    H159680   0.936   1.909   3.914 -1.1945 -1.2605 -3.3209
12755TIP3    H259681   0.902   2.020   3.816  0.7810  2.9162  0.3556
12756TIP3   OH259682   0.423   4.697  11.166  0.2948  0.2090  0.6243
12756TIP3    H159683   0.500   4.640  11.162  0.5343  0.4294  1.8282
12756TIP3    H259684   0.434   4.747  11.247 -1.8364 -0.7642  1.5900
12757TIP3   OH259685   0.458   4.500   0.204  0.3578 -0.0771  0.2521
12757TIP3    H159686   0.525   4.434   0.223  0.0599 -0.0412  1.5212
12757TIP3    H259687   0.385   4.477   0.262 -0.3268  0.4911 -0.3734
12758TIP3   OH259688   1.454   5.923  14.920  0.2971  0.3054  0.2131
12758TIP3    H159689   1.375   5.922  14.866  0.7806  1.4072 -0.5416
12758TIP3    H259690   1.464   5.832  14.948  0.2308 -0.4080 -1.8724
12759TIP3   OH259691   5.958   0.725   1.583 -0.1053 -0.0074  0.0769
12759TIP3    H159692   5.909   0.645   1.566  0.5944 -0.4168 -0.0591
12759TIP3    H259693   5.915   0.792   1.530 -0.5794 -0.3364  0.0437
12760TIP3   OH259694   0.996   0.865  12.468  0.2668 -0.2045 -0.2891
12760TIP3    H159695   0.981   0.790  12.411  0.9321 -0.8496  0.3705
12760TIP3    H259696   1.027   0.827  12.550 -0.5801  0.7061  0.4860
12761TIP3   OH259697   0.385   2.880   2.344  0.1106  0.0233 -0.2488
12761TIP3    H159698   0.439   2.813   2.388  0.2028  1.2282  1.5726
12761TIP3    H259699   0.295   2.858   2.369 -0.0711 -0.6543 -1.4306
12762TIP3   OH259700   3.488   5.419  16.346  0.2725 -0.0543 -0.3717
12762TIP3    H159701   3.559   5.427  16.283 -0.1043  0.9374 -0.6877
12762TIP3    H259702   3.524   5.363  16.416  1.5363  0.8311 -0.2858
12763TIP3   OH259703   2.589   5.627  15.230  0.4741  0.1145 -0.2116
12763TIP3    H159704   2.613   5.708  15.275  0.7968 -0.6577  1.0469
12763TIP3    H259705   2.573   5.564  15.300 -0.3593 -0.7592 -1.1560
12764TIP3   OH259706   4.440   4.112   1.989 -0.0127 -0.2020 -0.2940
12764TIP3    H159707   4.434   4.048   2.060  0.9226  0.2916  0.2485
12764TIP3    H259708   4.368   4.174   2.006 -0.7358 -0.9192 -0.6545
12765TIP3   OH259709   1.761   3.410   3.489 -0.4952  0.4270 -0.0316
12765TIP3    H159710   1.689   3.355   3.457 -0.6495  0.7469 -0.2436
12765TIP3    H259711   1.720   3.495   3.504 -0.0369  0.7789 -0.7376
12766TIP3   OH259712   0.663   1.276  13.934  0.1641  0.2662 -0.5002
12766TIP3    H159713   0.663   1.349  13.994  0.1667  0.1011 -0.2980
12766TIP3    H259714   0.755   1.263  13.911  0.3693 -0.7392  0.7742
12767TIP3   OH259715   4.799   2.515   1.060  0.0274  0.0828 -0.1425
12767TIP3    H159716   4.876   2.573   1.060 -0.7487  1.1363  0.3607
12767TIP3    H259717   4.741   2.552   1.127 -1.3074 -0.1750 -1.1241
12768TIP3   OH259718   5.444   5.756  16.226  0.4715  0.6801 -0.3043
12768TIP3    H159719   5.494   5.677  16.250  1.2363  1.2702  0.0909
12768TIP3    H259720   5.377   5.763  16.294  0.0213  0.0448 -0.6729
12769TIP3   OH259721   5.006   0.205   2.705  0.2525  0.6290 -0.0387
12769TIP3    H159722   4.923   0.252   2.699  0.2119  0.4735 -0.7009
12769TIP3    H259723   5.011   0.178   2.797 -1.3772 -1.0565 -0.3772
12770TIP3   OH259724   4.877   3.260   1.992  0.0256 -0.3510  0.1393
12770TIP3    H159725   4.855   3.334   2.048 -0.9494 -0.0830 -0.5686
12770TIP3    H259726   4.796   3.210   1.984 -0.0186 -0.0852 -1.4520
12771TIP3   OH259727   2.411   4.212  11.161 -0.4307  0.5596  0.0086
12771TIP3    H159728   2.431   4.217  11.068 -1.5007 -0.1266 -0.2680
12771TIP3    H259729   2.376   4.299  11.182 -0.7471  0.5236 -0.3635
12772TIP3   OH259730   3.726   4.367  12.159  0.4002 -0.6259  0.4093
12772TIP3    H159731   3.738   4.347  12.066  0.2828 -1.0122  0.4739
12772TIP3    H259732   3.797   4.428  12.179  0.2657 -0.3297  0.0048
12773TIP3   OH259733   0.226   4.682  13.770  0.1102  0.8115  1.1464
12773TIP3    H159734   0.266   4.665  13.684  0.1026  1.4103  1.0192
12773TIP3    H259735   0.152   4.740  13.750  1.3882  2.7418  1.7909
12774TIP3   OH259736   2.294   2.174   3.199  0.2655  0.0860  0.2548
12774TIP3    H159737   2.341   2.233   3.141 -0.0841  0.2441  0.1353
12774TIP3    H259738   2.250   2.112   3.140 -1.3435  1.1705  0.2787
12775TIP3   OH259739   1.457   5.095  13.191  0.4122 -0.4477  0.7152
12775TIP3    H159740   1.518   5.126  13.124  0.4507 -1.7669  0.1271
12775TIP3    H259741   1.373   5.133  13.166  1.0771  2.2377  2.0888
12776TIP3   OH259742   0.645   4.356  11.507  0.2015 -0.2835  1.1180
12776TIP3    H159743   0.580   4.361  11.577 -0.5436 -0.2404  0.4338
12776TIP3    H259744   0.665   4.262  11.499 -1.2378 -0.5219  0.0264
12777TIP3   OH259745   1.277   1.610   5.845 -0.1149  0.0014  0.3701
12777TIP3    H159746   1.249   1.677   5.783  1.8877  1.3431  0.8021
12777TIP3    H259747   1.277   1.654   5.930  0.1743 -0.8674  0.8346
12778TIP3   OH259748   3.291   2.766   2.587 -0.9725 -0.0983  0.5930
12778TIP3    H159749   3.232   2.762   2.662  0.1077  0.8399  1.5304
12778TIP3    H259750   3.347   2.689   2.596 -1.5642 -0.6003  0.0981
12779TIP3   OH259751   4.447   1.371   5.133  0.3164  0.2698  0.3404
12779TIP3    H159752   4.410   1.320   5.205  0.5144 -0.9983 -0.4246
12779TIP3    H259753   4.421   1.323   5.054 -0.6164  2.0855 -0.5006
12780TIP3   OH259754   2.679   3.523   4.655  0.2336 -0.7458  0.6369
12780TIP3    H159755   2.658   3.583   4.583  0.1108 -0.8416  0.5933
12780TIP3    H259756   2.624   3.447   4.640 -0.3699 -0.4377  1.2730
12781TIP3   OH259757   4.068   5.537  14.118  0.2181 -0.3405  0.3631
12781TIP3    H159758   4.140   5.479  14.140  0.7510  0.3034  0.3549
12781TIP3    H259759   3.991   5.481  14.116  0.7835 -1.1033 -0.0250
12782TIP3   OH259760   3.920   6.010  15.307  0.4888 -0.4348 -0.0438
12782TIP3    H159761   3.902   6.036  15.217 -0.5928  1.2118  0.6097
12782TIP3    H259762   3.844   6.040  15.357  2.2563  1.2010  1.8485
12783TIP3   OH259763   1.807   2.801  16.445  0.5473  0.3676 -0.3291
12783TIP3    H159764   1.898   2.792  16.472  0.4388  0.5123  0.0998
12783TIP3    H259765   1.803   2.886  16.400  0.7005  0.1904 -0.6808
12784TIP3   OH259766   2.930   2.205  17.025 -0.2248  0.2016  0.1455
12784TIP3    H159767   2.840   2.225  17.050 -0.2445 -0.0025  0.2431
12784TIP3    H259768   2.984   2.253  17.088 -0.2634  0.4573 -0.0169
12785TIP3   OH259769   4.783   3.380  13.575  0.0449  0.1638  0.4960
12785TIP3    H159770   4.708   3.336  13.536  0.5849 -1.3355  1.0741
12785TIP3    H259771   4.771   3.371  13.669  0.9783 -0.1865  0.6001
12786TIP3   OH259772   4.002   6.212  11.885 -0.8600 -0.5590  0.5211
12786TIP3    H159773   3.994   6.307  11.896 -1.9978 -0.5589 -0.2242
12786TIP3    H259774   4.044   6.183  11.966  0.3604  0.6766  0.3834
12787TIP3   OH259775   4.224   0.659  16.316  0.0658  0.0452 -0.2083
12787TIP3    H159776   4.272   0.610  16.250  1.4971 -2.5841  2.5526
12787TIP3    H259777   4.281   0.732  16.339  0.2191  0.1172 -0.8185
12788TIP3   OH259778   1.479   6.788  12.607  0.5705  0.2992  0.3864
12788TIP3    H159779   1.415   6.716  12.607  0.7386  0.1494 -0.2248
12788TIP3    H259780   1.446   6.849  12.541 -0.1445  1.3056  1.6305
12789TIP3   OH259781   1.175   3.103  14.195 -0.5627  0.1616 -0.5696
12789TIP3    H159782   1.245   3.062  14.145  0.6713  0.7126  0.6341
12789TIP3    H259783   1.176   3.058  14.279  0.0477  1.8339  0.3633
12790TIP3   OH259784   3.899   0.596   0.984 -0.0963  0.1094 -0.2867
12790TIP3    H159785   3.876   0.683   0.951 -3.2265 -1.2644 -2.3459
12790TIP3    H259786   3.942   0.612   1.067 -1.1556  3.6091 -0.2306
12791TIP3   OH259787   4.768   1.850   2.907  0.1789  0.4263 -0.8625
12791TIP3    H159788   4.836   1.912   2.934 -0.1621  1.0428 -1.3821
12791TIP3    H259789   4.689   1.904   2.898 -0.5925 -0.4086  0.5195
12792TIP3   OH259790   6.688   2.911  10.437 -0.7340  0.3796 -0.7129
12792TIP3    H159791   6.735   2.829  10.423  2.2002  1.6468  0.7870
12792TIP3    H259792   6.607   2.885  10.482 -0.2841 -1.7445 -1.0510
12793TIP3   OH259793   3.481   5.044  15.141 -0.2542  0.2362  0.2301
12793TIP3    H159794   3.416   4.995  15.091  0.6775  0.1803 -0.9620
12793TIP3    H259795   3.552   5.061  15.079 -0.3985  2.8484  0.6334
12794TIP3   OH259796   6.637   0.252  17.163  0.4124  0.2172 -0.4415
12794TIP3    H159797   6.606   0.168  17.196 -0.8674  0.2003 -1.5788
12794TIP3    H259798   6.694   0.230  17.089  3.2383  0.2544  1.5681
12795TIP3   OH259799   2.973   5.914  12.775 -0.1928  0.1228  0.7209
12795TIP3    H159800   2.888   5.872  12.786 -0.1296 -0.4717 -0.8314
12795TIP3    H259801   2.956   5.986  12.714  0.0082  1.3993  2.1171
12796TIP3   OH259802   1.274   2.347   0.402  0.1233  0.5536  0.6326
12796TIP3    H159803   1.254   2.408   0.473  1.7928  1.3866  0.4512
12796TIP3    H259804   1.370   2.338   0.406 -0.1073 -2.7950  1.2451
12797TIP3   OH259805   6.063   5.765  15.584 -0.6358  0.0731  0.3796
12797TIP3    H159806   6.123   5.800  15.518  0.4038  0.6065  1.5715
12797TIP3    H259807   6.043   5.677  15.553  0.2291  0.1319 -0.4071
12798TIP3   OH259808   2.859   3.294  14.731  0.1892  0.1438 -0.2827
12798TIP3    H159809   2.845   3.321  14.640  0.8328 -0.1702 -0.4839
12798TIP3    H259810   2.921   3.358  14.765 -1.1872  1.1622  0.4092
12799TIP3   OH259811   6.174   5.017   1.311  0.0374  0.4756  0.2910
12799TIP3    H159812   6.255   4.988   1.269 -0.8248  1.2069 -2.0238
12799TIP3    H259813   6.131   4.937   1.339  0.7251 -0.0356 -0.0851
12800TIP3   OH259814   2.115   4.878   5.510 -0.1440  0.0744  0.0091
12800TIP3    H159815   2.145   4.940   5.443 -0.1046  0.9314  0.7943
12800TIP3    H259816   2.045   4.829   5.468  2.3807 -2.1668 -1.9833
12801TIP3   OH259817   1.832   5.920  16.897  0.1578  0.5872  0.2415
12801TIP3    H159818   1.774   5.855  16.857 -0.3595  0.5487  1.0317
12801TIP3    H259819   1.887   5.950  16.825 -0.7826  0.5639 -0.5158
12802TIP3   OH259820   2.850   6.235   0.912 -0.3161  0.5037  0.8030
12802TIP3    H159821   2.850   6.288   0.832 -0.6678 -0.1829  0.3354
12802TIP3    H259822   2.867   6.298   0.982  1.7578  0.8609  0.0377
12803TIP3   OH259823   6.225   3.753  14.163 -0.3990  1.2276 -1.0102
12803TIP3    H159824   6.302   3.719  14.117 -0.5122  0.0424 -0.3668
12803TIP3    H259825   6.243   3.737  14.255 -2.8318 -2.4896 -0.9337
12804TIP3   OH259826   4.959   5.562   6.105 -0.6263 -0.0162 -0.2955
12804TIP3    H159827   4.870   5.550   6.137 -1.2112  0.6326 -1.5982
12804TIP3    H259828   5.006   5.599   6.179 -1.3498 -0.6396  0.5020
12805TIP3   OH259829   5.609   2.401  16.544  0.1754 -0.3195  0.4094
12805TIP3    H159830   5.605   2.348  16.464  1.1100  1.0851 -0.6401
12805TIP3    H259831   5.703   2.416  16.557 -0.0546  3.4753 -1.1055
12806TIP3   OH259832   2.265   3.597  12.094  0.3843  0.3380 -0.4410
12806TIP3    H159833   2.296   3.514  12.058  1.5591  0.9991 -0.9800
12806TIP3    H259834   2.201   3.629  12.030 -0.6206 -0.4677  0.1180
12807TIP3   OH259835   0.342   5.230  15.209 -0.5414  0.0515 -0.7569
12807TIP3    H159836   0.399   5.298  15.246  0.2391  0.1751 -2.0950
12807TIP3    H259837   0.257   5.244  15.250 -0.1469  1.2485 -0.3042
12808TIP3   OH259838   5.755   4.125   2.738  0.2085 -0.2798 -1.0848
12808TIP3    H159839   5.740   4.069   2.814 -0.1856  1.1304 -0.0823
12808TIP3    H259840   5.668   4.145   2.705 -0.3814  4.5151  2.2292
12809TIP3   OH259841   2.844   6.385   3.042  0.4153 -0.6252  0.3795
12809TIP3    H159842   2.840   6.445   3.116 -1.1595 -1.7367  1.2461
12809TIP3    H259843   2.909   6.320   3.067  1.7585  0.3814 -0.3497
12810TIP3   OH259844   2.828   3.409  11.526  0.2521  0.5586  0.3210
12810TIP3    H159845   2.882   3.488  11.522  1.3272 -0.1213  1.2033
12810TIP3    H259846   2.745   3.440  11.563 -0.5904  1.8932 -2.3568
12811TIP3   OH259847   2.576   1.301   2.591 -0.5565 -0.5654 -0.3082
12811TIP3    H159848   2.495   1.294   2.642 -1.4182  0.5107 -1.4619
12811TIP3    H259849   2.551   1.351   2.514  1.0156 -1.0383 -1.1593
12812TIP3   OH259850   3.051   5.680  12.117  0.5087 -0.0341 -0.0543
12812TIP3    H159851   2.959   5.665  12.136  0.5680 -0.6360 -0.2228
12812TIP3    H259852   3.051   5.738  12.041  0.2727 -0.5811 -0.4690
12813TIP3   OH259853   2.571   5.056  14.309 -0.2028  0.1548 -0.4332
12813TIP3    H159854   2.642   5.061  14.246 -0.5456 -0.3441 -0.8743
12813TIP3    H259855   2.553   5.147  14.333  0.1438  0.3242 -0.8104
12814TIP3   OH259856   2.607   2.649  15.045  0.0010 -0.1980 -0.1322
12814TIP3    H159857   2.652   2.564  15.055  2.7437  1.1672  0.2001
12814TIP3    H259858   2.574   2.670  15.132  1.8178  0.2879  0.4940
12815TIP3   OH259859   4.081   3.619   5.956 -0.0646  0.6006 -0.1660
12815TIP3    H159860   4.045   3.659   6.036  0.7641  1.1144 -0.0413
12815TIP3    H259861   4.023   3.648   5.886 -0.4601  0.6174  0.1647
12816TIP3   OH259862   5.737   1.017   5.545  0.3032 -0.5497 -0.0120
12816TIP3    H159863   5.642   1.022   5.553  0.4535  0.1026  1.7478
12816TIP3    H259864   5.754   0.926   5.521 -0.8230 -0.3196 -1.8571
12817TIP3   OH259865   4.198   0.394   4.173  0.1879 -0.9680 -0.0456
12817TIP3    H159866   4.164   0.415   4.260 -2.0123 -2.1610 -0.5534
12817TIP3    H259867   4.213   0.300   4.175  1.8613 -0.7324 -0.4214
12818TIP3   OH259868   4.393   4.695   5.550 -0.5381 -0.0447  0.0825
12818TIP3    H159869   4.405   4.703   5.644  1.3942 -0.5248 -0.0627
12818TIP3    H259870   4.350   4.611   5.538  0.2961 -0.5497  0.5100
12819TIP3   OH259871   2.077   5.645  14.313  0.7706 -0.2275 -0.2224
12819TIP3    H159872   2.030   5.715  14.358  1.3372 -1.0335  1.7378
12819TIP3    H259873   2.090   5.578  14.380  3.4721 -0.6374 -1.0178
12820TIP3   OH259874   2.269   5.292   4.845  0.9124 -0.5836 -0.4994
12820TIP3    H159875   2.285   5.216   4.902  0.5387 -0.4490 -0.2083
12820TIP3    H259876   2.174   5.298   4.840  0.8790  1.0123  1.0393
12821TIP3   OH259877   6.640   5.090  16.232  0.3674 -0.2543 -0.2098
12821TIP3    H159878   6.588   5.103  16.153 -1.4466  1.1945  1.1701
12821TIP3    H259879   6.603   5.011  16.272  1.4525 -1.1379 -0.8548
12822TIP3   OH259880   3.448   3.494  14.037  0.2604  0.3080  0.2198
12822TIP3    H159881   3.381   3.427  14.024  0.1413  0.4598  0.0503
12822TIP3    H259882   3.452   3.541  13.953  1.6023 -0.6171 -0.2734
12823TIP3   OH259883   6.732   6.491   1.024  0.3274  0.3759  0.4724
12823TIP3    H159884   6.820   6.494   0.984  1.2279  0.0149  2.3200
12823TIP3    H259885   6.749   6.497   1.118 -1.5345 -1.4451  0.9752
12824TIP3   OH259886   3.017   5.619  16.166 -0.1754  0.0522  0.1658
12824TIP3    H159887   3.066   5.539  16.148 -0.4908  0.0503 -0.7466
12824TIP3    H259888   3.083   5.680  16.201  0.4683  0.0060 -0.9057
12825TIP3   OH259889   6.094   4.425  12.613  0.5905 -0.2267  0.4799
12825TIP3    H159890   6.064   4.405  12.702  1.1527 -1.1409  0.4853
12825TIP3    H259891   6.166   4.363  12.598  0.5911  0.0086 -0.5629
12826TIP3   OH259892   2.636   3.631  12.734 -0.4826  0.8223 -0.0170
12826TIP3    H159893   2.607   3.587  12.654 -1.9467  3.1320 -0.8730
12826TIP3    H259894   2.566   3.616  12.797  0.3387 -0.3900  0.6423
12827TIP3   OH259895   6.166   0.574  13.143  0.1382 -0.1195  0.4856
12827TIP3    H159896   6.194   0.507  13.081 -0.6148  0.1811 -0.1899
12827TIP3    H259897   6.071   0.563  13.149 -0.2059  1.7819 -0.7275
12828TIP3   OH259898   5.440   2.382   2.456  0.2666  0.1887 -0.0865
12828TIP3    H159899   5.382   2.361   2.383  0.7990 -0.6344 -0.2887
12828TIP3    H259900   5.482   2.299   2.478  0.6762  0.5818  0.6641
12829TIP3   OH259901   5.374   0.981  14.891 -0.1378  0.0980 -0.1976
12829TIP3    H159902   5.381   1.000  14.797 -0.2275 -0.9618 -0.4323
12829TIP3    H259903   5.288   0.940  14.901 -0.1173  0.1828  0.3434
12830TIP3   OH259904   4.046   5.402  15.872  0.1501 -0.0396 -0.0111
12830TIP3    H159905   4.087   5.482  15.906  1.3594 -0.5551 -0.1844
12830TIP3    H259906   4.061   5.405  15.778  1.4360 -1.0796  0.1092
12831TIP3   OH259907   4.382   3.462  14.746  0.2370  0.5740 -0.1684
12831TIP3    H159908   4.338   3.382  14.775  0.4084  0.6506  0.3030
12831TIP3    H259909   4.311   3.524  14.729  0.1264  0.4655 -0.0997
12832TIP3   OH259910   1.032   0.012  14.317  0.4839 -0.0248  0.1674
12832TIP3    H159911   1.103   0.061  14.359  1.3040  0.4021 -1.6337
12832TIP3    H259912   1.051   0.018  14.223 -1.4669 -0.6451 -0.3073
12833TIP3   OH259913   3.113   0.637  15.835  0.2903  0.4931  0.1314
12833TIP3    H159914   3.118   0.679  15.921 -0.7404  1.4042 -0.2339
12833TIP3    H259915   3.115   0.544  15.854  3.7372  0.5832  0.9059
12834TIP3   OH259916   0.111   4.260  14.217 -0.3275  0.0767 -0.4295
12834TIP3    H159917   0.171   4.206  14.167 -0.2167  1.3651 -1.7524
12834TIP3    H259918   0.137   4.248  14.308  0.4993 -1.0759 -0.8036
12835TIP3   OH259919   5.671   6.696  13.910 -0.1520 -0.0795 -0.5832
12835TIP3    H159920   5.622   6.749  13.848  0.6483 -0.0087 -1.1634
12835TIP3    H259921   5.658   6.606  13.881 -0.6661 -0.1312 -0.2060
12836TIP3   OH259922   0.236   6.571  11.824  0.5131 -0.2826  0.3170
12836TIP3    H159923   0.266   6.647  11.774  0.5510 -1.3171 -1.3115
12836TIP3    H259924   0.149   6.595  11.855  0.3284  0.2691 -0.5804
12837TIP3   OH259925   3.498   2.022  10.473 -0.4649  1.0511 -0.4513
12837TIP3    H159926   3.494   1.983  10.560  3.2110  0.6923 -0.2827
12837TIP3    H259927   3.457   1.956  10.416  0.6225 -0.5397  0.5319
12838TIP3   OH259928   3.828   1.886   4.551  0.4119  0.4449  0.2152
12838TIP3    H159929   3.771   1.819   4.589  0.2487 -1.2431 -2.6605
12838TIP3    H259930   3.916   1.863   4.580  0.0865  0.6299  1.4001
12839TIP3   OH259931   3.771   0.897   2.752 -0.5728 -0.3386  0.1658
12839TIP3    H159932   3.744   0.806   2.742 -1.2991 -0.0826 -0.3170
12839TIP3    H259933   3.697   0.948   2.718  1.5274  0.3605 -4.0304
12840TIP3   OH259934   5.104   4.011   3.071  0.0235 -0.3205  0.3466
12840TIP3    H159935   5.016   4.036   3.101 -0.3285 -0.5613 -0.4582
12840TIP3    H259936   5.132   3.943   3.132  0.1470  0.5953  1.3291
12841TIP3   OH259937   1.820   1.656   2.346 -0.4836 -0.0615  0.1171
12841TIP3    H159938   1.740   1.603   2.335 -0.5716  0.2116 -0.5927
12841TIP3    H259939   1.844   1.681   2.257 -0.1454  0.6621  0.4106
12842TIP3   OH259940   2.019   3.520  12.959 -0.3054  0.3964  0.3905
12842TIP3    H159941   1.936   3.498  13.000 -0.9281  1.2626 -0.3614
12842TIP3    H259942   2.049   3.598  13.006  0.2954 -0.1498  0.9303
12843TIP3   OH259943   3.681   4.314  16.096  0.3565  0.6685  0.1403
12843TIP3    H159944   3.733   4.245  16.055  0.7135 -0.3476  2.1581
12843TIP3    H259945   3.733   4.341  16.172 -1.1097  1.1013  1.0316
12844TIP3   OH259946   1.997   0.711  15.335 -0.0827  0.1478  0.6662
12844TIP3    H159947   2.047   0.718  15.254  0.4522 -0.7197  0.9123
12844TIP3    H259948   2.057   0.743  15.403 -0.2560  0.1486  0.8200
12845TIP3   OH259949   4.141   6.090   2.964  0.0496 -0.6123 -0.2915
12845TIP3    H159950   4.235   6.077   2.980  0.4760  0.6521 -1.5827
12845TIP3    H259951   4.125   6.181   2.989 -1.4957 -1.5498  2.5700
12846TIP3   OH259952   5.699   4.950  12.452 -0.4425 -0.5334 -1.0524
12846TIP3    H159953   5.622   4.949  12.509 -1.1500  1.3657 -1.9039
12846TIP3    H259954   5.664   4.960  12.364  0.7674  1.1319 -1.3951
12847TIP3   OH259955   5.158   5.680  12.163 -0.2580 -0.0724  0.1311
12847TIP3    H159956   5.081   5.629  12.188 -0.0378 -0.0404  0.8976
12847TIP3    H259957   5.125   5.747  12.103 -0.7420 -0.3757  0.0589
12848TIP3   OH259958   6.471   4.369  11.599 -0.2066 -0.6218  0.7565
12848TIP3    H159959   6.451   4.412  11.682 -0.3645 -0.2565  0.5273
12848TIP3    H259960   6.395   4.312  11.583 -0.7011  0.1461  0.3035
12849TIP3   OH259961   5.667   0.495   5.283  0.4987  0.0092  0.3323
12849TIP3    H159962   5.716   0.442   5.345  0.0227 -1.3886 -0.4503
12849TIP3    H259963   5.728   0.564   5.257  1.0663 -0.0238  1.5182
12850TIP3   OH259964   1.320   6.471   1.027 -0.0450 -0.5906  0.0897
12850TIP3    H159965   1.274   6.392   0.998 -0.9721  0.4375 -1.3494
12850TIP3    H259966   1.400   6.437   1.068  0.0440 -2.2684 -1.2978
12851TIP3   OH259967   0.666   4.334   0.229 -0.2609  0.1454 -0.1721
12851TIP3    H159968   0.715   4.275   0.173  1.4087  0.0483  1.3223
12851TIP3    H259969   0.727   4.405   0.250 -0.8531  0.2530  1.3746
12852TIP3   OH259970   2.834   6.160  13.729 -0.1553 -0.3201  0.1073
12852TIP3    H159971   2.745   6.169  13.763 -0.4493 -1.9922 -0.1512
12852TIP3    H259972   2.857   6.248  13.698 -0.8117  0.6909  2.2924
12853TIP3   OH259973   3.789   1.992   6.034 -0.4405  0.4552 -0.1578
12853TIP3    H159974   3.694   1.982   6.027 -0.3813 -1.2160  0.9657
12853TIP3    H259975   3.812   1.954   6.119  1.1324  1.7344  0.0509
12854TIP3   OH259976   5.642   5.006  15.449  0.2246 -0.0618  0.2235
12854TIP3    H159977   5.659   4.924  15.403 -0.4357  0.1660 -0.4403
12854TIP3    H259978   5.550   5.001  15.474  0.2846  0.3072  0.5314
12855TIP3   OH259979   1.715   2.334  15.315  0.6251 -0.0110 -0.3712
12855TIP3    H159980   1.715   2.316  15.409  3.2670 -0.2013 -0.3266
12855TIP3    H259981   1.700   2.428  15.308  0.1682 -0.0388  0.2159
12856TIP3   OH259982   4.077   2.716  10.887  0.0994 -0.0852 -0.0978
12856TIP3    H159983   4.111   2.793  10.932 -0.0289 -1.0396  1.7698
12856TIP3    H259984   3.997   2.747  10.844 -0.1258  0.7788  0.8800
12857TIP3   OH259985   1.598   5.129  10.604  0.0911  0.8057  0.3636
12857TIP3    H159986   1.648   5.101  10.680 -1.9058  0.8246  1.7488
12857TIP3    H259987   1.637   5.213  10.579  0.8592  0.7360  1.2727
12858TIP3   OH259988   6.305   1.684   1.322  0.3590 -0.7624 -0.2524
12858TIP3    H159989   6.258   1.751   1.372 -0.6572 -0.9409 -0.9425
12858TIP3    H259990   6.259   1.680   1.238  2.3956 -0.0430 -1.4637
12859TIP3   OH259991   1.006   0.494  16.354  0.0752 -0.1682 -0.2647
12859TIP3    H159992   1.064   0.446  16.412  1.5320  1.2258 -0.4995
12859TIP3    H259993   0.950   0.544  16.413 -0.9775 -1.5598 -0.0353
12860TIP3   OH259994   3.593   1.781  12.314 -0.2020 -0.2828 -0.1002
12860TIP3    H159995   3.582   1.686  12.323 -0.3488 -0.3402 -0.8719
12860TIP3    H259996   3.685   1.797  12.335  0.1883 -0.7791 -1.3644
12861TIP3   OH259997   4.342   3.588  11.460  0.2315 -0.1079 -0.2263
12861TIP3    H159998   4.287   3.648  11.511 -0.3769 -0.8596  0.0137
12861TIP3    H259999   4.421   3.577  11.513  0.0808 -0.0008  0.0209
12862TIP3   OH260000   3.961   1.313  11.900 -0.9250 -0.0373 -0.3333
12862TIP3    H160001   3.971   1.353  11.987  0.4784 -0.5696 -0.2281
12862TIP3    H260002   3.997   1.225  11.910  1.6335  0.7054 -2.0387
12863TIP3   OH260003   1.974   0.245  13.803 -0.3418  0.0516 -1.0636
12863TIP3    H160004   1.943   0.336  13.805 -1.5819 -0.3555 -0.5813
12863TIP3    H260005   1.989   0.227  13.711  0.9257  1.0580 -1.0837
12864TIP3   OH260006   4.494   4.625   2.571  0.5017  0.3210 -0.4425
12864TIP3    H160007   4.524   4.535   2.583  0.8114  0.4769 -0.0235
12864TIP3    H260008   4.452   4.625   2.485  0.9808 -0.0958 -0.6813
12865TIP3   OH260009   5.605   0.214  14.603 -0.2599  0.2417  0.1400
12865TIP3    H160010   5.587   0.133  14.554  1.0004 -0.6539  1.0800
12865TIP3    H260011   5.569   0.198  14.690 -0.4676  0.9149  0.1813
12866TIP3   OH260012   5.063   5.867   3.126 -0.4767 -0.1749 -0.1628
12866TIP3    H160013   5.065   5.958   3.094  0.0313 -0.7055 -1.7437
12866TIP3    H260014   5.113   5.870   3.207  1.7073  0.5634 -1.4308
12867TIP3   OH260015   3.487   5.873  13.486 -0.1106  0.4981  0.0051
12867TIP3    H160016   3.497   5.945  13.548 -0.3590  0.0816  0.5393
12867TIP3    H260017   3.425   5.813  13.529  2.3065 -1.5091  0.9580
12868TIP3   OH260018   1.115   1.154   2.342  0.5579 -0.4644 -0.4403
12868TIP3    H160019   1.035   1.206   2.335 -1.2229 -2.8804  0.6029
12868TIP3    H260020   1.145   1.142   2.252 -0.3016  0.3705 -0.8481
12869TIP3   OH260021   2.472   4.991   5.274 -0.0036 -0.6327  0.2649
12869TIP3    H160022   2.538   5.047   5.233  0.7042 -2.1442 -0.7777
12869TIP3    H260023   2.508   4.971   5.361  0.7118 -1.0767 -0.1265
12870TIP3   OH260024   0.397   2.036  15.428  0.5431  0.3434  0.0018
12870TIP3    H160025   0.319   2.047  15.482  0.8453 -2.1941  1.1291
12870TIP3    H260026   0.363   2.006  15.343  0.2617 -1.0038  0.5690
12871TIP3   OH260027   1.225   4.890   0.368  0.6937 -0.1888 -0.7117
12871TIP3    H160028   1.226   4.982   0.342  0.4853 -0.3484 -1.2895
12871TIP3    H260029   1.140   4.877   0.409  1.1203  0.1260  0.3065
12872TIP3   OH260030   4.890   1.758  15.237  0.5834  0.4828 -0.4770
12872TIP3    H160031   4.812   1.809  15.214  1.0725  0.9820 -1.0718
12872TIP3    H260032   4.856   1.676  15.271 -0.2050  0.7276 -0.6527
12873TIP3   OH260033   5.994   5.992   2.724  0.1260  0.2305 -0.2826
12873TIP3    H160034   5.912   6.013   2.679  0.4995  0.4359 -0.8843
12873TIP3    H260035   5.967   5.942   2.801 -0.9796  4.0047  2.0230
12874TIP3   OH260036   3.040   1.624  14.728  0.3338  0.0817 -0.1090
12874TIP3    H160037   3.126   1.597  14.760  0.5195  1.6620  0.8722
12874TIP3    H260038   2.992   1.650  14.807 -0.7257  0.0729 -0.7257
12875TIP3   OH260039   3.204   6.584   4.917  0.0540  0.5873 -0.0580
12875TIP3    H160040   3.232   6.670   4.946 -1.7599  0.5762  1.9200
12875TIP3    H260041   3.153   6.600   4.838 -0.6787  1.4118  0.5644
12876TIP3   OH260042   6.638   0.120  16.012 -0.5449  0.0851  0.4599
12876TIP3    H160043   6.626   0.187  16.079 -1.8598  1.0686 -0.7030
12876TIP3    H260044   6.692   0.162  15.945 -1.1629 -0.0852 -0.1604
12877TIP3   OH260045   4.876   3.196   0.191 -0.3470  0.3716 -0.3309
12877TIP3    H160046   4.811   3.148   0.140 -3.1075  1.6051  1.8061
12877TIP3    H260047   4.878   3.151   0.276  2.1653 -0.0401 -0.5328
12878TIP3   OH260048   5.466   6.560   2.658  0.2124 -0.1063 -0.5669
12878TIP3    H160049   5.398   6.603   2.606 -0.8555  0.8082  1.4869
12878TIP3    H260050   5.433   6.471   2.672 -1.7651  0.9056  2.1971
12879TIP3   OH260051   1.837   1.688  16.798 -0.3365 -0.1480 -0.7522
12879TIP3    H160052   1.883   1.607  16.776  0.2251 -0.4317  1.2896
12879TIP3    H260053   1.800   1.673  16.885 -1.2149  1.3764 -0.8204
12880TIP3   OH260054   0.121   3.769   4.558 -0.4939  0.3677  0.3508
12880TIP3    H160055   0.100   3.803   4.645 -0.8538 -1.2554  0.9455
12880TIP3    H260056   0.143   3.677   4.574 -1.3938 -0.1789 -1.3884
12881TIP3   OH260057   0.910   0.955   4.736  0.3533 -0.2893 -0.7230
12881TIP3    H160058   0.896   0.873   4.782 -0.2941 -0.2916 -0.9186
12881TIP3    H260059   0.841   0.957   4.669 -0.5783  1.1008  0.2327
12882TIP3   OH260060   4.361   0.847  15.125 -0.1689 -0.0559  0.3676
12882TIP3    H160061   4.304   0.918  15.098 -0.2109 -0.9010 -1.9966
12882TIP3    H260062   4.446   0.888  15.139 -0.7157  0.7913  1.3443
12883TIP3   OH260063   0.745   3.904   2.529 -0.3578 -0.0910 -0.0543
12883TIP3    H160064   0.736   3.966   2.456  1.0092  0.6035  0.3165
12883TIP3    H260065   0.754   3.819   2.488  2.8319  0.5352 -0.9173
12884TIP3   OH260066   2.071   4.547  15.073  0.0996 -0.3123 -0.1812
12884TIP3    H160067   2.032   4.632  15.053  1.1172  0.0914 -0.5326
12884TIP3    H260068   2.029   4.520  15.154 -0.2494  0.5249 -0.0697
12885TIP3   OH260069   4.260   0.088   3.390  0.4737  0.0926  0.1842
12885TIP3    H160070   4.274   0.174   3.429 -0.4673  0.9595 -1.2808
12885TIP3    H260071   4.348   0.058   3.367  0.7045  2.5753 -3.0168
12886TIP3   OH260072   0.391   2.206   0.686  0.3008  0.1455  0.4048
12886TIP3    H160073   0.347   2.268   0.744  0.6806  1.0201 -0.2160
12886TIP3    H260074   0.484   2.221   0.701  0.5749  2.8147 -2.7504
12887TIP3   OH260075   1.152   4.865   5.413  0.1286  0.3709 -0.2277
12887TIP3    H160076   1.216   4.820   5.468 -0.4302 -0.2460 -0.0681
12887TIP3    H260077   1.171   4.958   5.424  0.9092  0.2003 -0.0792
12888TIP3   OH260078   3.586   2.554  12.422 -0.1216  0.3153  0.0985
12888TIP3    H160079   3.611   2.545  12.514  0.4580  3.1071  0.2930
12888TIP3    H260080   3.503   2.601  12.424  0.4939  1.4900 -0.8021
12889TIP3   OH260081   6.507   3.190  12.168  0.5961 -0.3664  0.1601
12889TIP3    H160082   6.458   3.110  12.149  1.3652 -0.9050  0.3858
12889TIP3    H260083   6.590   3.178  12.121  1.7260 -0.8151  2.1741
12890TIP3   OH260084   0.794   6.735  16.387  0.4297  0.6876 -0.0891
12890TIP3    H160085   0.740   6.698  16.457  0.5947 -0.2220 -0.4265
12890TIP3    H260086   0.733   6.791  16.338 -0.3100 -0.5715 -0.6572
12891TIP3   OH260087   4.893   6.046   5.063  0.0932  0.1637 -0.2472
12891TIP3    H160088   4.846   6.065   4.981  3.3813 -0.8905 -2.5701
12891TIP3    H260089   4.858   5.962   5.091 -0.2622 -0.0307 -1.2284
12892TIP3   OH260090   0.909   0.261  11.323 -0.1719  0.1865 -0.2403
12892TIP3    H160091   0.931   0.312  11.401 -0.9260  0.0180  0.0886
12892TIP3    H260092   0.944   0.313  11.250 -0.7776  1.1011  0.0961
12893TIP3   OH260093   1.758   5.348   1.194  0.2495  0.2982  0.4071
12893TIP3    H160094   1.757   5.286   1.121  0.7190 -0.7603  1.2744
12893TIP3    H260095   1.691   5.316   1.254  1.2403 -0.0371  1.3745
12894TIP3   OH260096   4.375   5.458   1.645 -0.1857 -0.4467 -0.4284
12894TIP3    H160097   4.391   5.547   1.679 -0.7242  0.3596 -2.1875
12894TIP3    H260098   4.413   5.401   1.711 -1.5257  1.0012  1.7577
12895TIP3   OH260099   5.739   2.111  15.593  0.0780  0.7490 -0.4364
12895TIP3    H160100   5.651   2.078  15.608  0.5001  0.1200  0.7988
12895TIP3    H260101   5.767   2.070  15.511  1.1764 -3.4107  1.7396
12896TIP3   OH260102   4.572   4.530   5.411 -0.0394 -0.1983 -0.1904
12896TIP3    H160103   4.505   4.517   5.344  1.0713 -1.6624 -1.0858
12896TIP3    H260104   4.526   4.575   5.482 -1.4767  0.5951 -1.5406
12897TIP3   OH260105   3.234   1.396   3.575  0.3587  0.7910 -0.0339
12897TIP3    H160106   3.163   1.452   3.543 -0.9230 -1.1716 -0.8334
12897TIP3    H260107   3.307   1.415   3.516 -0.9803 -0.4457 -2.2375
12898TIP3   OH260108   1.377   2.642   6.588  0.6138  0.0341 -0.0942
12898TIP3    H160109   1.368   2.597   6.672  2.2321 -2.4574 -1.1330
12898TIP3    H260110   1.287   2.652   6.556  0.0479  0.0191  1.4207
12899TIP3   OH260111   2.419   3.610  16.452  0.1488  0.8841 -0.1941
12899TIP3    H160112   2.429   3.669  16.526 -1.1933  0.4748  0.3448
12899TIP3    H260113   2.500   3.560  16.449 -0.2255  0.0883  1.7536
12900TIP3   OH260114   1.034   0.414  17.057  0.0040 -0.0102 -0.0875
12900TIP3    H160115   0.985   0.459  16.988 -0.4847 -0.1076  0.1896
12900TIP3    H260116   1.117   0.392  17.016 -0.9263 -1.6479 -1.2157
12901TIP3   OH260117   1.313   5.837  14.077  0.7415  0.3127 -0.2482
12901TIP3    H160118   1.346   5.823  14.166  1.2232  0.4045 -0.4071
12901TIP3    H260119   1.219   5.853  14.088  0.1199 -2.9154 -0.0354
12902TIP3   OH260120   3.831   4.619   6.287 -0.0210 -0.1680 -0.1436
12902TIP3    H160121   3.772   4.559   6.242 -1.4255 -0.1554  1.5312
12902TIP3    H260122   3.838   4.694   6.228 -2.0373 -0.0150 -0.2839
12903TIP3   OH260123   3.399   0.310   3.806  0.2803 -0.2898 -0.4779
12903TIP3    H160124   3.424   0.258   3.882 -0.9735 -0.8984 -0.4605
12903TIP3    H260125   3.463   0.286   3.738 -0.1807 -1.7502 -0.4185
12904TIP3   OH260126   4.084   0.392   3.791 -0.3276 -0.2338  0.1724
12904TIP3    H160127   4.103   0.307   3.829 -0.5108 -0.5534 -0.4491
12904TIP3    H260128   4.075   0.376   3.697  1.2044  0.7340 -0.1773
12905TIP3   OH260129   6.062   6.394   4.535  0.2348  0.8212  0.3106
12905TIP3    H160130   6.145   6.387   4.581  0.3611  1.4564  0.1834
12905TIP3    H260131   6.011   6.319   4.566  1.4021 -0.4852 -0.7671
12906TIP3   OH260132   5.957   2.237  13.161  0.0657 -0.2887  0.0658
12906TIP3    H160133   5.986   2.318  13.202 -0.2365 -0.0661 -0.1602
12906TIP3    H260134   6.026   2.174  13.182  1.9509  0.7794 -2.4340
12907TIP3   OH260135   2.969   1.877  12.909 -0.4461  0.0744 -0.4488
12907TIP3    H160136   2.883   1.835  12.912 -0.5151  0.0489 -1.8924
12907TIP3    H260137   2.985   1.891  12.815  0.5618  1.2495 -0.1234
12908TIP3   OH260138   0.031   1.050  11.945  0.0908  0.1640  0.1073
12908TIP3    H160139  -0.054   1.016  11.975  0.3453  0.9995  1.9186
12908TIP3    H260140   0.095   0.991  11.986  0.5041  2.2015  2.6382
12909TIP3   OH260141   0.406   1.527   1.840  0.0154 -0.2174 -1.0611
12909TIP3    H160142   0.367   1.536   1.927 -0.2434 -0.2850 -1.1701
12909TIP3    H260143   0.342   1.478   1.790 -0.3702  0.8477 -1.6371
12910TIP3   OH260144   3.425   3.135   0.165  0.0859  0.1171 -0.7383
12910TIP3    H160145   3.514   3.137   0.128  0.8405  0.7423  0.9844
12910TIP3    H260146   3.403   3.042   0.168  0.9830 -0.1067 -0.5848
12911TIP3   OH260147   3.008   4.193   5.288  0.3415 -0.3946 -1.0175
12911TIP3    H160148   3.057   4.177   5.207  0.0340 -1.8626 -0.9436
12911TIP3    H260149   2.916   4.189   5.262  0.2466  0.1270 -0.7695
12912TIP3   OH260150   1.390   0.913  15.383 -0.2606  0.1637 -0.4808
12912TIP3    H160151   1.423   0.829  15.414 -2.3016 -0.4373  0.2640
12912TIP3    H260152   1.457   0.976  15.409 -0.0487 -0.8550  1.6652
12913TIP3   OH260153   3.184   3.410   4.286 -0.8406  0.6118  0.1618
12913TIP3    H160154   3.187   3.498   4.247  0.8600  0.2188 -0.6967
12913TIP3    H260155   3.140   3.357   4.219 -0.3931  0.4914 -0.0409
12914TIP3   OH260156   5.020   0.618  16.344  0.3564 -0.5080  0.3094
12914TIP3    H160157   5.059   0.545  16.294  1.1646  1.2166 -1.7396
12914TIP3    H260158   4.946   0.647  16.290  0.4892  0.6494  0.7243
12915TIP3   OH260159   1.193   1.589   0.336  0.2655  0.5611 -0.3378
12915TIP3    H160160   1.132   1.578   0.408 -0.1448  0.8393 -0.6403
12915TIP3    H260161   1.265   1.528   0.356 -0.5276 -0.4335 -0.4372
12916TIP3   OH260162   1.857   0.076   3.663 -0.1218  0.0731 -0.6572
12916TIP3    H160163   1.950   0.099   3.653 -0.5841  1.5683 -2.0157
12916TIP3    H260164   1.856   0.009   3.730  1.8463  0.8064  0.1899
12917TIP3   OH260165   3.560   4.352  13.652  0.2386 -0.2365 -0.1299
12917TIP3    H160166   3.618   4.282  13.682 -0.5726 -0.7576  0.2669
12917TIP3    H260167   3.592   4.375  13.566  1.5311  0.0455  0.4115
12918TIP3   OH260168   2.045   6.080   3.266 -0.1416 -0.2752  0.5012
12918TIP3    H160169   2.008   6.149   3.321 -0.9453 -0.4188  0.1630
12918TIP3    H260170   2.014   5.999   3.306 -0.6204 -0.3844 -0.0780
12919TIP3   OH260171   3.308   1.691   1.990  0.0056 -0.5663 -1.1183
12919TIP3    H160172   3.301   1.683   2.085 -0.4436  2.1542 -0.8518
12919TIP3    H260173   3.266   1.612   1.957 -0.9226 -1.0090  0.9323
12920TIP3   OH260174   4.124   3.007   2.765  0.1397 -0.4411 -0.3654
12920TIP3    H160175   4.143   3.009   2.671  4.8439 -0.9521  0.3175
12920TIP3    H260176   4.088   2.919   2.780  0.4965 -0.8081 -1.5568
12921TIP3   OH260177   6.404   2.350   6.417 -0.1164  0.2693  0.3509
12921TIP3    H160178   6.394   2.420   6.481  2.2115 -0.1015  1.2256
12921TIP3    H260179   6.482   2.374   6.367 -0.4533 -0.7010 -0.6815
12922TIP3   OH260180   3.250   3.488  11.095  0.1459  0.3566  0.0481
12922TIP3    H160181   3.210   3.489  11.008 -1.3416 -0.1310  0.7023
12922TIP3    H260182   3.238   3.576  11.128 -0.2679  0.2474  0.1891
12923TIP3   OH260183   1.950   6.197  15.221  0.0057  0.2421  0.3954
12923TIP3    H160184   2.000   6.264  15.176  1.5591 -1.0774  0.0672
12923TIP3    H260185   1.902   6.244  15.290  1.6888  1.5572  0.7289
12924TIP3   OH260186   2.823   6.001   4.481 -0.4089 -0.0070 -0.0353
12924TIP3    H160187   2.747   6.018   4.537  0.7201  1.4694  1.1633
12924TIP3    H260188   2.883   5.952   4.537  0.4790  0.9186 -0.1514
12925TIP3   OH260189   3.566   2.563   0.001  0.0632 -0.4937  0.5436
12925TIP3    H160190   3.579   2.468   0.010 -0.6195 -0.5970  0.5258
12925TIP3    H260191   3.653   2.598  -0.015  0.4321 -1.0391  1.2929
12926TIP3   OH260192   1.443   6.286  14.242  0.2100 -0.2292  0.4907
12926TIP3    H160193   1.467   6.356  14.302 -1.7595  0.5397  0.4706
12926TIP3    H260194   1.507   6.291  14.171  1.8862 -0.4164  1.9383
12927TIP3   OH260195   1.978   3.414   1.415  0.1934 -0.3282  0.3114
12927TIP3    H160196   2.044   3.472   1.375  0.4393 -2.2736 -2.3700
12927TIP3    H260197   2.026   3.333   1.433 -1.4317 -1.9776 -2.1849
12928TIP3   OH260198   5.737   5.685   5.559  0.0642 -0.1949  0.5107
12928TIP3    H160199   5.691   5.692   5.475 -0.1147 -0.7651  0.5578
12928TIP3    H260200   5.798   5.613   5.548  1.7910  1.2687  0.0782
12929TIP3   OH260201   1.576   2.183   5.414  0.7137  0.2515  0.1281
12929TIP3    H160202   1.592   2.099   5.372  1.3144 -0.9401  2.5541
12929TIP3    H260203   1.505   2.223   5.363  1.9353 -0.6423 -2.4648
12930TIP3   OH260204   6.442   4.434  11.904  0.0828  0.0289  0.0103
12930TIP3    H160205   6.533   4.446  11.877  0.8972 -0.3666  2.3128
12930TIP3    H260206   6.446   4.437  12.000 -2.0412 -1.8481  0.2251
12931TIP3   OH260207   0.849   5.267  14.740  0.4031  0.2450 -0.6809
12931TIP3    H160208   0.766   5.298  14.705 -0.2217  0.8786  1.2504
12931TIP3    H260209   0.825   5.206  14.810  1.5695 -0.2136 -0.6562
12932TIP3   OH260210   2.128   3.266  11.300  0.1506 -0.2697 -0.0956
12932TIP3    H160211   2.122   3.355  11.333  0.1810  0.2891 -1.5310
12932TIP3    H260212   2.189   3.272  11.226  1.6903 -1.8470  0.9728
12933TIP3   OH260213   0.955   1.278  12.798  0.4034  0.1997 -0.0163
12933TIP3    H160214   0.892   1.277  12.870 -0.2343 -0.9075 -0.5530
12933TIP3    H260215   1.039   1.261  12.839  0.4317  1.9663  0.7527
12934TIP3   OH260216   2.184   2.488   3.222  0.0271 -0.0546  0.0005
12934TIP3    H160217   2.140   2.572   3.234  0.5256  0.0172  1.5127
12934TIP3    H260218   2.115   2.429   3.192 -0.6503  0.5379  0.3617
12935TIP3   OH260219   6.267   2.657  17.146  0.2186 -0.4076  0.2107
12935TIP3    H160220   6.198   2.675  17.083 -0.3492  0.5622  1.0915
12935TIP3    H260221   6.221   2.629  17.225  0.8352 -0.0132  0.7221
12936TIP3   OH260222   0.416   4.740  10.637 -0.1562 -0.2830 -0.1248
12936TIP3    H160223   0.393   4.710  10.549 -0.1573 -1.5547  0.2848
12936TIP3    H260224   0.371   4.679  10.696  0.2178  0.2656  0.7606
12937TIP3   OH260225   1.340   2.006   6.066  0.2389  0.1860 -0.4403
12937TIP3    H160226   1.398   2.017   6.141  2.2575  0.0318 -1.8857
12937TIP3    H260227   1.298   1.921   6.080  0.8024  0.0297  0.3666
12938TIP3   OH260228   3.194   3.662   0.656 -0.0470 -0.4415 -0.3911
12938TIP3    H160229   3.253   3.612   0.599  1.3585 -1.9701  2.2322
12938TIP3    H260230   3.231   3.750   0.658  1.9457 -1.2458  0.7884
12939TIP3   OH260231   2.284   4.921  12.633  0.5391 -0.0186 -0.0079
12939TIP3    H160232   2.255   4.991  12.574 -0.8235 -1.7258 -1.5194
12939TIP3    H260233   2.374   4.903  12.607  0.7833  0.9321  0.1639
12940TIP3   OH260234   1.798   6.310   3.728 -0.6048  0.1217  0.3712
12940TIP3    H160235   1.812   6.403   3.746 -0.2223  0.3168 -0.8528
12940TIP3    H260236   1.703   6.300   3.721 -0.6665  0.3436  0.8251
12941TIP3   OH260237   4.150   2.090  15.477  0.3074 -0.6846  0.2560
12941TIP3    H160238   4.128   2.030  15.405  2.2435 -1.1479 -0.0162
12941TIP3    H260239   4.110   2.051  15.554  0.6120 -1.7514 -0.1047
12942TIP3   OH260240   5.589   6.413  11.104 -0.3606  0.1646 -0.7695
12942TIP3    H160241   5.651   6.485  11.114  0.6140 -0.9368  1.8826
12942TIP3    H260242   5.517   6.450  11.054  0.7165  2.5666 -0.6552
12943TIP3   OH260243   1.724   4.672   3.453 -0.0362 -0.6140 -0.4218
12943TIP3    H160244   1.774   4.754   3.453  0.0347 -0.6321 -1.7660
12943TIP3    H260245   1.693   4.662   3.363 -1.1905 -1.3901  0.0314
12944TIP3   OH260246   5.891   2.029   1.178  0.1467 -0.1444  0.4084
12944TIP3    H160247   5.855   2.017   1.266 -0.6827  0.6149  0.1933
12944TIP3    H260248   5.956   2.099   1.188 -0.9258  0.9139  0.1930
12945TIP3   OH260249   3.985   2.970  13.170  0.2990  0.5748  0.0171
12945TIP3    H160250   3.937   2.910  13.227  0.1651  1.5974  1.0101
12945TIP3    H260251   4.066   2.923  13.149 -0.6276 -0.7114 -0.7817
12946TIP3   OH260252   5.320   5.246  14.081 -0.4835 -0.2552  0.3949
12946TIP3    H160253   5.301   5.339  14.093  0.1973  0.2192 -1.6889
12946TIP3    H260254   5.233   5.205  14.075 -0.8117  0.4714 -0.0327
12947TIP3   OH260255   3.986   6.776   1.536 -0.5039  0.6992  0.0153
12947TIP3    H160256   4.021   6.863   1.556 -0.7463  0.7164  0.3911
12947TIP3    H260257   3.948   6.747   1.619  1.2479 -0.5713  0.4270
12948TIP3   OH260258   5.087   0.031  16.033  0.2608 -0.5412  0.1038
12948TIP3    H160259   5.078  -0.050  16.084 -1.0459 -1.1627 -1.0336
12948TIP3    H260260   5.079   0.002  15.942  1.1312  0.7167 -0.3991
12949TIP3   OH260261   0.213   0.968  13.920 -0.0957  0.1246  0.3367
12949TIP3    H160262   0.294   0.991  13.874 -0.4929  0.3180 -0.2748
12949TIP3    H260263   0.235   0.887  13.967 -0.1345 -1.0505 -1.5387
12950TIP3   OH260264   3.456   5.965   1.765 -0.1546  0.2907 -0.3722
12950TIP3    H160265   3.457   6.049   1.810  2.0252  1.4898 -2.4071
12950TIP3    H260266   3.533   5.919   1.797 -0.0675  0.0409 -0.9283
12951TIP3   OH260267   4.584   6.148  16.333 -0.0732 -0.1577 -0.4259
12951TIP3    H160268   4.491   6.126  16.336 -0.3655  1.0352 -0.0801
12951TIP3    H260269   4.617   6.120  16.419 -0.7982  2.1180  0.6688
12952TIP3   OH260270   0.777   0.437  16.132  0.1564  0.1751 -0.3038
12952TIP3    H160271   0.747   0.518  16.091 -0.2008  0.4161  0.4280
12952TIP3    H260272   0.872   0.439  16.123  0.1362  0.6007 -0.4255
12953TIP3   OH260273   5.192   4.813   5.100 -0.0599  0.0908 -0.2315
12953TIP3    H160274   5.173   4.871   5.174  0.5746 -0.0704  0.0599
12953TIP3    H260275   5.222   4.732   5.140  0.3566  0.0250 -0.6696
12954TIP3   OH260276   5.005   4.540  15.660 -0.0181  0.3476 -0.3095
12954TIP3    H160277   5.096   4.535  15.686 -0.1713 -0.6598  0.0766
12954TIP3    H260278   4.977   4.629  15.685  0.3503  0.0476  1.2870
12955TIP3   OH260279   4.419   5.726  15.094  0.2416  0.0203 -0.0785
12955TIP3    H160280   4.359   5.775  15.038  0.8858  0.6293 -0.2514
12955TIP3    H260281   4.396   5.754  15.183 -2.0733 -2.3667  0.1912
12956TIP3   OH260282   5.370   6.763  16.313 -0.6230 -0.2301 -0.1135
12956TIP3    H160283   5.439   6.830  16.307 -2.1092  1.2638 -1.4681
12956TIP3    H260284   5.303   6.803  16.368 -1.6416 -0.4971 -1.1425
12957TIP3   OH260285   3.595   5.783   1.927  0.4334 -0.4150 -0.2788
12957TIP3    H160286   3.538   5.771   2.003  0.7823 -0.1400  0.0311
12957TIP3    H260287   3.670   5.726   1.945 -1.1037 -3.2727 -2.1483
12958TIP3   OH260288   4.885   1.241  10.573  0.2389 -0.2667 -0.1923
12958TIP3    H160289   4.913   1.315  10.519 -0.4304  0.4127  0.3750
12958TIP3    H260290   4.815   1.276  10.628 -0.4698 -1.4617 -0.2938
12959TIP3   OH260291   5.864   5.019  11.091 -0.4174  0.3522  0.6556
12959TIP3    H160292   5.910   5.015  11.007 -2.5980  1.2613 -0.6848
12959TIP3    H260293   5.882   4.935  11.133  0.7204 -0.1306 -0.7124
12960TIP3   OH260294   6.765   1.407  15.601  0.6017 -0.2129  0.8300
12960TIP3    H160295   6.670   1.412  15.611  0.7815 -0.2073  2.9382
12960TIP3    H260296   6.800   1.458  15.673  2.2235 -0.7524  0.4768
12961TIP3   OH260297   0.386   3.232  10.401  0.2906 -0.3979 -0.4332
12961TIP3    H160298   0.325   3.158  10.399  0.1669 -0.3741  1.1020
12961TIP3    H260299   0.471   3.191  10.417  0.6498 -0.3893 -2.0989
12962TIP3   OH260300   1.863   6.407  10.974 -0.7252  0.1653  0.5318
12962TIP3    H160301   1.909   6.436  11.053  1.1645 -0.1337 -0.3952
12962TIP3    H260302   1.914   6.445  10.902 -0.7428 -1.8153 -0.6069
12963TIP3   OH260303   0.562   3.253  11.376 -0.3676  0.6620 -0.2257
12963TIP3    H160304   0.563   3.335  11.425 -1.0445  0.1617  0.6478
12963TIP3    H260305   0.539   3.187  11.440  1.3069 -0.4079 -0.6624
12964TIP3   OH260306   6.219   2.273  14.416  0.1792  0.0340  0.0938
12964TIP3    H160307   6.268   2.332  14.359 -2.0536  1.8517 -0.0910
12964TIP3    H260308   6.137   2.258  14.370 -1.1263  0.4134  2.1757
12965TIP3   OH260309   3.531   5.915  16.615  0.7947  0.6982 -0.1674
12965TIP3    H160310   3.521   5.826  16.649  0.6333  0.4599 -0.8176
12965TIP3    H260311   3.525   5.971  16.692  0.5367  0.1661  0.2056
12966TIP3   OH260312   2.802   0.291   4.439  0.0053 -0.3211  0.0072
12966TIP3    H160313   2.794   0.198   4.420 -1.0338 -0.1146 -0.6729
12966TIP3    H260314   2.771   0.335   4.359 -0.5066  0.5999  0.6887
12967TIP3   OH260315   6.413   0.447   2.737  1.0500  0.1289  0.1126
12967TIP3    H160316   6.321   0.440   2.763  1.2695  0.7977  1.1525
12967TIP3    H260317   6.436   0.359   2.706 -0.4838  0.4565 -2.1769
12968TIP3   OH260318   2.735   1.049  16.345 -0.8407  0.3247 -0.6653
12968TIP3    H160319   2.672   1.121  16.335 -0.4959  1.2900  2.7495
12968TIP3    H260320   2.788   1.074  16.420  1.9948 -1.6876 -1.8247
12969TIP3   OH260321   1.642   3.667  12.335  0.0698  0.5072  0.4446
12969TIP3    H160322   1.727   3.664  12.379  0.5941 -1.4305 -0.5823
12969TIP3    H260323   1.661   3.694  12.246 -0.1556 -1.2368 -0.1737
12970TIP3   OH260324   2.738   6.222   6.185 -0.2826 -0.3300 -0.6470
12970TIP3    H160325   2.765   6.172   6.262  1.5565  2.3301  0.6032
12970TIP3    H260326   2.677   6.287   6.218 -1.0445 -0.3895 -1.8585
12971TIP3   OH260327   4.071   0.014  16.644  0.9379 -0.3796  0.5196
12971TIP3    H160328   4.000   0.012  16.709  0.5008 -0.5146  0.0478
12971TIP3    H260329   4.027   0.031  16.561  1.2864 -1.8560  0.0018
12972TIP3   OH260330   5.047   6.555   3.478 -0.0791 -0.0638  0.2209
12972TIP3    H160331   5.048   6.547   3.383 -1.7388 -0.3611  0.1895
12972TIP3    H260332   5.049   6.464   3.510 -1.0338 -0.0336  0.4035
12973TIP3   OH260333   1.892   6.293   0.522 -0.8259 -0.1192  0.0079
12973TIP3    H160334   1.878   6.220   0.582 -1.1591  0.0865  0.1803
12973TIP3    H260335   1.884   6.371   0.577 -0.7457  0.0573 -0.2304
12974TIP3   OH260336   6.104   1.520   5.434 -0.1596 -0.1513 -0.3588
12974TIP3    H160337   6.126   1.459   5.505 -1.2954 -1.9229 -1.4551
12974TIP3    H260338   6.127   1.606   5.469 -2.4953 -0.6686  2.9808
12975TIP3   OH260339   4.577   1.284  13.339 -0.1134  0.1564  0.2122
12975TIP3    H160340   4.563   1.249  13.251  1.6937 -0.2330  0.0282
12975TIP3    H260341   4.558   1.378  13.332  0.7413  0.2664 -0.8031
12976TIP3   OH260342   5.323   1.823   1.437 -0.4270 -0.3476  0.3923
12976TIP3    H160343   5.315   1.917   1.419 -0.6306 -0.4458 -0.0546
12976TIP3    H260344   5.353   1.786   1.354  0.9451 -0.5081  0.9347
12977TIP3   OH260345   6.450   1.819  14.900  0.9315  0.0521 -0.4296
12977TIP3    H160346   6.488   1.731  14.900 -0.0545 -0.3839 -1.3400
12977TIP3    H260347   6.522   1.876  14.870  2.2803 -0.0701  2.2507
12978TIP3   OH260348   5.869   3.971  14.701 -0.0831 -0.2093 -0.2792
12978TIP3    H160349   5.878   4.015  14.616  0.0164 -0.1665 -0.2467
12978TIP3    H260350   5.792   3.915  14.691  1.3617 -2.1604 -1.2512
12979TIP3   OH260351   5.332   1.225  14.368 -0.2823 -0.4432 -0.3785
12979TIP3    H160352   5.258   1.165  14.360 -0.6278 -0.1429  0.4712
12979TIP3    H260353   5.293   1.306  14.403 -0.1933  1.0040 -3.2978
12980TIP3   OH260354   4.565   5.926  15.493  0.2079  0.3870  0.0549
12980TIP3    H160355   4.597   5.848  15.539 -1.1767 -0.0103  0.4029
12980TIP3    H260356   4.628   5.939  15.422  1.6868  0.2657  1.2909
12981TIP3   OH260357   4.936   2.540   5.068  0.1032 -0.6589 -0.4809
12981TIP3    H160358   4.852   2.584   5.055 -0.1194 -0.6987  0.6846
12981TIP3    H260359   4.978   2.590   5.139  0.6683 -1.1874 -0.4382
12982TIP3   OH260360   3.564   1.415  14.234  0.0566  0.1514 -0.1420
12982TIP3    H160361   3.477   1.409  14.195 -0.2293 -1.6688  0.6960
12982TIP3    H260362   3.562   1.498  14.282 -1.5225 -0.2430  0.5338
12983TIP3   OH260363   3.228   2.437   4.207 -0.0598 -0.5058 -0.0526
12983TIP3    H160364   3.245   2.360   4.153  0.1467  0.1788 -0.9921
12983TIP3    H260365   3.305   2.493   4.194  0.4870 -0.7803  1.8064
12984TIP3   OH260366   5.997   6.535  15.750  0.8704 -0.0964  0.4778
12984TIP3    H160367   5.994   6.615  15.699 -3.7360  0.6738  1.5135
12984TIP3    H260368   6.017   6.466  15.686 -0.6719  1.2817 -1.6054
12985TIP3   OH260369   5.755   1.267   3.363  0.0901 -0.6054  0.3244
12985TIP3    H160370   5.717   1.255   3.450  0.4290 -2.2408  0.2793
12985TIP3    H260371   5.849   1.252   3.376  0.1893 -0.5058 -0.2672
12986TIP3   OH260372   5.722   1.792   0.360 -0.3511 -0.1065 -0.0685
12986TIP3    H160373   5.800   1.737   0.363 -0.5655 -0.4561 -0.6797
12986TIP3    H260374   5.665   1.757   0.428 -0.3070 -0.3652 -0.1647
12987TIP3   OH260375   6.774   3.554  13.197  0.5306  0.0583 -0.2621
12987TIP3    H160376   6.787   3.644  13.227 -1.5673  0.0674  0.7860
12987TIP3    H260377   6.789   3.500  13.275 -1.0957 -0.2299 -0.1133
12988TIP3   OH260378   6.246   3.533   1.512  0.3053  0.4918 -0.0535
12988TIP3    H160379   6.221   3.535   1.604  0.5556  0.8247  0.0065
12988TIP3    H260380   6.323   3.475   1.509 -0.7427 -0.9563 -0.3110
12989TIP3   OH260381   1.210   5.634   1.994  0.2834 -0.3786  0.3278
12989TIP3    H160382   1.154   5.557   2.002  0.8226 -0.7083  1.0897
12989TIP3    H260383   1.227   5.661   2.084  1.1931 -0.1872  0.1094
12990TIP3   OH260384   5.620   3.663   0.534  0.5714  0.1774 -0.1340
12990TIP3    H160385   5.626   3.734   0.598  2.2804  0.8229 -0.9446
12990TIP3    H260386   5.677   3.690   0.462  0.4302 -1.5390 -0.9471
12991TIP3   OH260387   3.534   1.730   2.525 -0.0291 -0.2575 -0.5720
12991TIP3    H160388   3.557   1.780   2.603 -1.3862  0.4666 -0.5957
12991TIP3    H260389   3.590   1.766   2.456 -1.0659  1.3764 -0.6177
12992TIP3   OH260390   4.375   5.946  11.922 -0.1858  0.0181 -0.9692
12992TIP3    H160391   4.365   5.866  11.870 -2.1615 -1.0184  0.8275
12992TIP3    H260392   4.396   6.014  11.858  0.0309 -1.6316 -2.7629
12993TIP3   OH260393   5.988   0.769  12.305  0.0667 -0.4091  0.5411
12993TIP3    H160394   5.898   0.743  12.328  0.1669 -0.3805  0.9803
12993TIP3    H260395   6.044   0.708  12.353  0.2803 -0.6250  0.0176
12994TIP3   OH260396   3.210   3.826  15.756 -0.6532 -0.1378  0.2841
12994TIP3    H160397   3.149   3.759  15.788  1.0960 -2.2699 -0.5365
12994TIP3    H260398   3.188   3.836  15.664 -2.4800  2.3337  0.8954
12995TIP3   OH260399   5.036   1.424  15.009 -0.5670  0.0086 -0.3096
12995TIP3    H160400   5.066   1.488  14.944 -3.0787  0.4907 -1.1325
12995TIP3    H260401   5.081   1.343  14.986  1.3632  1.0189 -0.3201
12996TIP3   OH260402   2.317   2.645  13.592 -0.6590 -0.0836  0.4502
12996TIP3    H160403   2.371   2.720  13.571 -1.1110 -0.1015 -0.8853
12996TIP3    H260404   2.335   2.626  13.684  0.5453  0.7495  0.3934
12997TIP3   OH260405   5.809   1.941   0.721  0.2749 -0.0991 -0.3329
12997TIP3    H160406   5.777   1.951   0.811  0.6177  1.5407 -0.3645
12997TIP3    H260407   5.862   1.861   0.724  2.0669  1.0437  1.5033
12998TIP3   OH260408   3.508   2.103   4.835  0.6033 -0.3643 -0.4820
12998TIP3    H160409   3.564   2.027   4.855  0.2312 -0.8144 -1.1248
12998TIP3    H260410   3.537   2.132   4.749  0.7172  0.2072 -0.2534
12999TIP3   OH260411   1.534   5.778   2.916  0.3570  0.1294 -0.3158
12999TIP3    H160412   1.584   5.780   2.835  0.9614  0.8487  0.0659
12999TIP3    H260413   1.570   5.704   2.965 -0.7491 -0.9943 -1.1499
13000TIP3   OH260414   0.711   5.165   1.161 -0.3258 -0.2083  0.9207
13000TIP3    H160415   0.726   5.203   1.074 -0.0193 -3.4703 -0.5962
13000TIP3    H260416   0.732   5.236   1.222  0.3171  1.9436 -1.6026
13001TIP3   OH260417   4.601   5.625  13.103 -0.2327  0.3959  0.1159
13001TIP3    H160418   4.591   5.670  13.187 -0.3858  0.3246  0.1368
13001TIP3    H260419   4.679   5.664  13.063  0.1334  0.0799  0.5123
13002TIP3   OH260420   3.167   6.151  12.232 -0.3986  0.4904 -0.5829
13002TIP3    H160421   3.102   6.083  12.214 -0.6233  0.6116 -0.2394
13002TIP3    H260422   3.125   6.232  12.204  0.2705  0.3909 -2.0040
13003TIP3   OH260423   6.444   4.631   0.383 -0.6308 -0.7845  0.3275
13003TIP3    H160424   6.470   4.540   0.397 -0.3637 -0.5262  1.6312
13003TIP3    H260425   6.462   4.674   0.466 -0.5182  0.5247 -0.3525
13004TIP3   OH260426   4.272   6.346   2.292  0.1542  0.5578 -0.3084
13004TIP3    H160427   4.329   6.277   2.325 -0.4921 -0.5027 -1.3605
13004TIP3    H260428   4.331   6.411   2.255  0.7018 -0.2708 -0.9056
13005TIP3   OH260429   6.016   1.012   3.149 -0.0671 -0.5954  0.2750
13005TIP3    H160430   6.009   1.069   3.072 -0.5787 -0.9547  0.0510
13005TIP3    H260431   5.996   0.924   3.116  0.4986 -0.8767  0.6629
13006TIP3   OH260432   5.471   4.994  11.222 -0.3218  0.1605 -0.4463
13006TIP3    H160433   5.511   4.942  11.292  1.2327  2.8944  0.8564
13006TIP3    H260434   5.545   5.036  11.178 -1.5165  1.6977 -1.0813
13007TIP3   OH260435   5.173   1.297   5.562  0.4414  0.4316 -0.0767
13007TIP3    H160436   5.156   1.373   5.617 -0.4517  0.3889 -0.2846
13007TIP3    H260437   5.156   1.221   5.618 -2.1217  0.3615 -0.8205
13008TIP3   OH260438   0.063   0.174  15.871 -0.2946  0.2353  0.4764
13008TIP3    H160439   0.143   0.219  15.898  0.2161  0.4607 -1.2821
13008TIP3    H260440   0.088   0.081  15.868 -0.3706  0.2029  0.8311
13009TIP3   OH260441   4.704   6.599   4.019 -0.0522 -0.2904  0.3077
13009TIP3    H160442   4.656   6.675   3.986 -0.3423 -1.0111 -1.0129
13009TIP3    H260443   4.741   6.629   4.102 -0.6010  1.1172  0.0880
13010TIP3   OH260444   5.956   3.013  10.893  0.5226  0.1560 -0.3044
13010TIP3    H160445   5.976   3.050  10.807 -2.2364  2.9775  0.0907
13010TIP3    H260446   5.983   3.081  10.955  0.8927 -1.1157  0.9769
13011TIP3   OH260447   2.688   1.545  17.120 -0.1631  0.1562  0.8638
13011TIP3    H160448   2.678   1.467  17.175 -0.8560  0.2440  0.8706
13011TIP3    H260449   2.775   1.537  17.083 -1.1238 -1.9810 -1.2086
13012TIP3   OH260450   1.875   2.936  14.369  0.5781  0.3502  0.0069
13012TIP3    H160451   1.932   2.987  14.312  0.0565  1.9369  0.8354
13012TIP3    H260452   1.808   2.998  14.397  0.8719 -0.3192  2.4340
13013TIP3   OH260453   5.470   6.055  14.747 -0.8049  0.8983  0.5698
13013TIP3    H160454   5.390   6.040  14.696  0.4452  1.4485 -1.7024
13013TIP3    H260455   5.451   6.017  14.833 -2.4668 -1.6124 -0.7663
13014TIP3   OH260456   2.785   5.621  12.178 -0.5294 -0.3933  0.4006
13014TIP3    H160457   2.775   5.607  12.084  0.7214 -0.0178  0.1946
13014TIP3    H260458   2.696   5.638  12.209 -0.8908  0.0100 -0.8027
13015TIP3   OH260459   0.697   0.318   4.978 -0.3350  0.0159  0.0500
13015TIP3    H160460   0.659   0.399   4.946 -2.2195 -1.0738 -0.6410
13015TIP3    H260461   0.752   0.287   4.907 -0.5664  0.0929 -0.1626
13016TIP3   OH260462   5.719   5.059   2.968  0.0257  0.4156 -0.0620
13016TIP3    H160463   5.789   5.124   2.969  1.1727 -0.7707 -0.0223
13016TIP3    H260464   5.681   5.067   2.881 -1.0671  2.3405  0.5352
13017TIP3   OH260465   2.837   1.965  15.015  0.1348  0.1541 -0.2083
13017TIP3    H160466   2.770   1.944  15.081 -1.7165 -1.7369 -2.4831
13017TIP3    H260467   2.814   1.910  14.940  2.2923  1.9532 -2.3539
13018TIP3   OH260468   3.512   0.394   1.606 -0.1557 -0.3381 -0.8191
13018TIP3    H160469   3.417   0.387   1.617 -0.1978  0.0128 -0.9436
13018TIP3    H260470   3.530   0.348   1.525 -0.1911 -0.5973 -0.6810
13019TIP3   OH260471   6.227   4.353   1.127 -0.1895  0.1936  0.1069
13019TIP3    H160472   6.190   4.357   1.039 -2.9621 -0.7674  1.1024
13019TIP3    H260473   6.309   4.305   1.117  0.6327  1.9060 -2.1939
13020TIP3   OH260474   1.368   1.425  14.936  0.4837 -0.0221 -0.3835
13020TIP3    H160475   1.454   1.467  14.932  1.5842 -2.2011 -1.8200
13020TIP3    H260476   1.387   1.333  14.951 -1.7046 -0.3750  0.5838
13021TIP3   OH260477   0.036   5.964  15.946  0.7431 -0.3776  0.3975
13021TIP3    H160478  -0.015   5.917  15.880 -0.3385  2.3734 -0.9028
13021TIP3    H260479   0.115   5.992  15.901 -0.3871  2.2568 -0.1368
13022TIP3   OH260480   2.086   0.356  16.957  0.2505 -0.1443 -0.4043
13022TIP3    H160481   2.029   0.397  16.892  1.1680  1.3569 -0.3204
13022TIP3    H260482   2.138   0.428  16.992  0.4663 -1.0715  1.3145
13023TIP3   OH260483   3.102   3.972  14.484 -0.2842  0.1540  0.6971
13023TIP3    H160484   3.116   3.975  14.579 -2.4709  1.2608  1.0515
13023TIP3    H260485   3.077   4.061  14.461  0.4306 -0.0442 -0.9913
13024TIP3   OH260486   4.754   0.317   2.664 -0.4572  0.4582  0.6677
13024TIP3    H160487   4.676   0.285   2.618 -0.2315  0.2310  0.4361
13024TIP3    H260488   4.726   0.399   2.704 -0.6698  0.6579  0.1298
13025TIP3   OH260489   3.185   0.477   0.936  0.5798 -0.3064 -0.5032
13025TIP3    H160490   3.182   0.572   0.945  0.6143 -0.3292 -0.2212
13025TIP3    H260491   3.278   0.456   0.928  0.5595 -0.3006 -0.7655
13026TIP3   OH260492   3.308   3.218   5.725  0.2637 -0.6315 -0.2595
13026TIP3    H160493   3.362   3.151   5.768  0.1705 -1.2127 -1.0213
13026TIP3    H260494   3.360   3.245   5.650 -0.3383 -0.9237 -0.7846
13027TIP3   OH260495   1.981   2.627   1.711 -0.3217 -0.3995  0.1192
13027TIP3    H160496   1.924   2.555   1.685 -0.7609 -0.0761  0.1806
13027TIP3    H260497   2.011   2.604   1.799  0.8293 -1.2904 -0.4802
13028TIP3   OH260498   3.626   0.745   6.059 -0.0662  0.1559 -0.2994
13028TIP3    H160499   3.541   0.740   6.015 -0.7140  1.3104  0.7487
13028TIP3    H260500   3.609   0.794   6.140  1.9975  2.4132 -1.1053
13029TIP3   OH260501   0.128   5.024   1.322  0.1308 -0.4650 -0.3010
13029TIP3    H160502   0.171   4.994   1.402 -1.4368 -0.3887  0.6178
13029TIP3    H260503   0.058   5.082   1.353  1.6016  2.3921 -1.9019
13030TIP3   OH260504   0.368   2.453   1.075 -0.3691 -0.4319 -0.4113
13030TIP3    H160505   0.342   2.389   1.141 -1.6135  1.4947  1.0872
13030TIP3    H260506   0.435   2.506   1.117 -1.3132  0.9473 -0.5627
13031TIP3   OH260507   6.101   4.724   3.760 -0.4144 -0.1267 -0.3627
13031TIP3    H160508   6.030   4.731   3.696  0.2156  0.7058 -1.0007
13031TIP3    H260509   6.173   4.683   3.711 -0.4909 -1.1442  0.3288
13032TIP3   OH260510   1.844   3.378  11.846 -0.6708  0.3621  0.2806
13032TIP3    H160511   1.807   3.336  11.923 -0.7516  0.5379  0.3383
13032TIP3    H260512   1.895   3.309  11.803 -0.5276  0.2959  0.5542
13033TIP3   OH260513   1.196   0.920   4.673 -0.3955  0.2692 -0.4967
13033TIP3    H160514   1.102   0.933   4.684 -0.4679  0.6024 -1.4581
13033TIP3    H260515   1.220   0.859   4.743 -1.4684 -0.4743 -0.7659
13034TIP3   OH260516   4.336   4.077  16.267  0.3629  0.5179 -0.7530
13034TIP3    H160517   4.350   4.102  16.358 -0.9659  1.8015 -0.8699
13034TIP3    H260518   4.265   4.013  16.270  1.1630 -0.3974 -0.8020
13035TIP3   OH260519   2.625   0.638   5.610  0.6933 -0.1197  0.0772
13035TIP3    H160520   2.709   0.675   5.584  0.2976  0.2692 -0.6605
13035TIP3    H260521   2.577   0.712   5.647  0.0860  0.0121 -0.9485
13036TIP3   OH260522   6.232   2.045  13.752  0.4783 -0.1107  0.0084
13036TIP3    H160523   6.291   1.975  13.781  0.4209 -0.7004 -1.2342
13036TIP3    H260524   6.183   2.069  13.831  1.5123 -0.4627  0.7829
13037TIP3   OH260525   6.648   5.946   4.541  0.1545  0.0935 -0.3737
13037TIP3    H160526   6.696   6.011   4.489 -0.1928  1.2214  0.6798
13037TIP3    H260527   6.706   5.928   4.615 -0.6700  0.8425  0.4720
13038TIP3   OH260528   6.533   0.503   5.241  0.0788 -0.2484 -0.0360
13038TIP3    H160529   6.586   0.477   5.316 -0.8312 -0.6604  0.4767
13038TIP3    H260530   6.458   0.443   5.242  0.3020 -0.5841 -1.5690
13039TIP3   OH260531   2.820   3.140  15.103 -0.0562  0.0429 -0.2613
13039TIP3    H160532   2.851   3.229  15.086 -0.2911  0.0172 -0.8171
13039TIP3    H260533   2.765   3.118  15.028 -0.5256 -0.3303  0.1849
13040TIP3   OH260534   2.056   1.509   2.658 -0.3202  0.1765  0.2911
13040TIP3    H160535   2.073   1.452   2.732 -0.8710  1.3083  1.3329
13040TIP3    H260536   1.962   1.499   2.641  0.2218 -2.0523 -2.0041
13041TIP3   OH260537   4.709   1.449  10.705  0.3098  0.5488  0.1028
13041TIP3    H160538   4.748   1.536  10.697 -0.3492  0.8962  0.5218
13041TIP3    H260539   4.628   1.464  10.754 -0.3735 -0.1351 -0.7757
13042TIP3   OH260540   6.695   2.248   5.490  0.8733  0.5614 -0.4652
13042TIP3    H160541   6.711   2.342   5.505 -0.1561  0.6714  0.0735
13042TIP3    H260542   6.685   2.240   5.395  0.0163  1.1727 -0.4376
13043TIP3   OH260543   2.191   3.236  13.914  0.0108 -0.0057 -0.3890
13043TIP3    H160544   2.249   3.230  13.989 -1.3806  1.5149  0.8926
13043TIP3    H260545   2.246   3.268  13.843  1.0743 -0.2242  0.3191
13044TIP3   OH260546   3.657   0.278   4.907 -0.7224 -0.3966 -0.5936
13044TIP3    H160547   3.711   0.353   4.933  0.0340 -1.8037  2.3361
13044TIP3    H260548   3.708   0.235   4.838  0.5039 -0.0619  0.0660
13045TIP3   OH260549   1.154   5.299  13.170 -0.2003  0.2496 -0.1752
13045TIP3    H160550   1.089   5.271  13.106  0.5711  1.1432 -1.4032
13045TIP3    H260551   1.148   5.236  13.242 -2.3423  0.2753 -0.2967
13046TIP3   OH260552   2.828   5.504  16.767  0.2260 -0.0565  0.0827
13046TIP3    H160553   2.853   5.515  16.859 -0.9948 -1.6325  0.6495
13046TIP3    H260554   2.785   5.586  16.744  0.1192  0.1737  1.0656
13047TIP3   OH260555   3.873   1.718   5.588  0.6002  0.0355 -0.0352
13047TIP3    H160556   3.791   1.671   5.573  0.1828  1.0368 -1.0178
13047TIP3    H260557   3.853   1.780   5.657  0.0317  1.4096 -1.3882
13048TIP3   OH260558   2.916   1.481  10.687 -0.1846  0.4636  0.2166
13048TIP3    H160559   2.873   1.537  10.622 -0.0850  0.4369  0.1283
13048TIP3    H260560   2.876   1.506  10.770  1.5504  2.3552  0.5435
13049TIP3   OH260561   5.434   3.517   5.414  0.5187 -0.0699  0.4593
13049TIP3    H160562   5.502   3.567   5.460 -0.2214  1.8670 -0.4270
13049TIP3    H260563   5.416   3.443   5.471  2.7552 -0.1711  1.1239
13050TIP3   OH260564   5.174   1.988   1.770 -0.4683  0.1674  0.0328
13050TIP3    H160565   5.181   1.893   1.762 -2.3323  0.0738 -1.1756
13050TIP3    H260566   5.245   2.013   1.830  0.7884 -1.8250 -0.5287
13051TIP3   OH260567   3.294   6.413  13.526  0.1522 -0.2611 -0.1656
13051TIP3    H160568   3.249   6.343  13.573  1.1249 -0.0289  1.1882
13051TIP3    H260569   3.238   6.490  13.539  0.5597 -0.1282  0.9326
13052TIP3   OH260570   2.759   6.040   2.851 -0.4845 -0.0621  0.3247
13052TIP3    H160571   2.842   6.007   2.816 -0.8841  0.3344 -1.0556
13052TIP3    H260572   2.781   6.071   2.939  0.6144 -0.8613  0.3470
13053TIP3   OH260573   2.269   5.673  12.297 -0.3283  0.4557 -0.3831
13053TIP3    H160574   2.309   5.691  12.212 -2.6736  2.7110 -1.1191
13053TIP3    H260575   2.193   5.619  12.277 -2.3531  3.0620 -0.1318
13054TIP3   OH260576   4.053   5.840   4.454  0.2232 -0.4277  0.4482
13054TIP3    H160577   4.071   5.746   4.459  0.7008 -0.4008 -0.5062
13054TIP3    H260578   3.958   5.845   4.442  0.3727 -0.9010 -1.2649
13055TIP3   OH260579   1.600   1.446  16.095  0.2819 -0.2852  0.3850
13055TIP3    H160580   1.511   1.424  16.065  1.6097 -1.6416 -3.1302
13055TIP3    H260581   1.625   1.371  16.150 -0.5386 -0.1498  0.9644
13056TIP3   OH260582   0.885   4.806  13.715  0.0238 -0.4459  0.0484
13056TIP3    H160583   0.923   4.794  13.802  0.5884  0.5331 -0.0514
13056TIP3    H260584   0.945   4.865  13.671 -0.3254 -0.8401 -0.9729
13057TIP3   OH260585   5.334   5.172  11.860 -0.2872 -0.0310 -0.3622
13057TIP3    H160586   5.295   5.213  11.783 -2.5356 -2.4230 -0.6215
13057TIP3    H260587   5.334   5.241  11.926 -0.7589  1.3300 -1.7197
13058TIP3   OH260588   4.441   6.221  14.737  0.1066  0.3330  0.1492
13058TIP3    H160589   4.436   6.289  14.803  1.9417 -1.8033  2.7344
13058TIP3    H260590   4.535   6.215  14.716  0.0637 -1.5797  0.2990
13059TIP3   OH260591   3.033   6.312  14.806  0.2724 -0.1069  0.0086
13059TIP3    H160592   3.032   6.268  14.721  0.9961  0.4988 -0.3170
13059TIP3    H260593   3.018   6.242  14.869 -2.7074 -0.2838 -0.7106
13060TIP3   OH260594   4.453   2.893  15.146  0.2489  0.2988 -0.8377
13060TIP3    H160595   4.360   2.873  15.139 -0.1653  1.9817 -0.4762
13060TIP3    H260596   4.463   2.935  15.232  1.1390  1.1331 -1.3274
13061TIP3   OH260597   4.093   4.656  16.044 -0.0921 -0.2850 -0.2984
13061TIP3    H160598   4.089   4.659  16.139 -0.6352  1.3270 -0.3357
13061TIP3    H260599   4.180   4.619  16.024  0.8177  1.1327  0.8385
13062TIP3   OH260600   5.380   6.385   5.284 -0.1495 -0.8045  0.0840
13062TIP3    H160601   5.427   6.395   5.367  0.0418  0.4150 -0.1457
13062TIP3    H260602   5.369   6.475   5.252 -2.7956 -1.0075  0.2054
13063TIP3   OH260603   4.298   1.272  11.949 -0.1321  0.3743 -0.3472
13063TIP3    H160604   4.266   1.345  11.895  0.6612  1.4604  0.5861
13063TIP3    H260605   4.260   1.194  11.909 -1.2311  1.3184 -1.2329
13064TIP3   OH260606   2.653   1.052  14.645  0.2617  0.1154 -0.1209
13064TIP3    H160607   2.726   1.042  14.583 -0.1010 -0.4960 -0.4524
13064TIP3    H260608   2.694   1.086  14.725  1.0138 -0.8834 -0.0717
13065TIP3   OH260609   5.250   6.149   6.134 -0.4211  0.9575 -0.4036
13065TIP3    H160610   5.210   6.179   6.053  0.6337 -1.5130 -1.9568
13065TIP3    H260611   5.178   6.115   6.186 -1.0330  1.9916 -0.5577
13066TIP3   OH260612   4.359   1.767   3.672  0.1538  0.3080 -0.5436
13066TIP3    H160613   4.337   1.691   3.726 -2.7322  0.2475 -1.6512
13066TIP3    H260614   4.384   1.834   3.735 -1.1102 -0.3901  0.7611
13067TIP3   OH260615   0.831   5.530  11.567 -0.4950 -0.4297  0.6010
13067TIP3    H160616   0.790   5.455  11.611  0.1705 -0.7028  0.7720
13067TIP3    H260617   0.815   5.515  11.474  0.2539 -1.1651  0.5846
13068TIP3   OH260618   4.664   5.834  12.768 -0.4071 -0.4706  0.6651
13068TIP3    H160619   4.757   5.846  12.747 -0.6343  0.9105  0.3173
13068TIP3    H260620   4.656   5.742  12.792  0.8151 -0.9345 -0.5740
13069TIP3   OH260621   4.720   3.380   2.281 -0.0091  0.3348 -0.2377
13069TIP3    H160622   4.799   3.434   2.277 -1.0723  2.0240  0.6768
13069TIP3    H260623   4.746   3.304   2.334  0.9238  1.0130  0.3009
13070TIP3   OH260624   4.341   6.647  10.924  0.3322 -0.1429 -0.0628
13070TIP3    H160625   4.323   6.613  11.011  1.1278 -2.1609 -0.6381
13070TIP3    H260626   4.293   6.590  10.864  2.0502 -0.5744 -1.0985
13071TIP3   OH260627   0.081   5.390  12.900  0.4600  0.0018 -0.0030
13071TIP3    H160628   0.121   5.470  12.934 -1.0435  0.6212  0.3935
13071TIP3    H260629   0.151   5.347  12.851  1.4085  1.3618  0.1057
13072TIP3   OH260630   3.766   1.729   5.908  0.1635  0.1219  0.0802
13072TIP3    H160631   3.805   1.813   5.884 -0.8025  0.2721 -1.0948
13072TIP3    H260632   3.840   1.670   5.920  0.8135  0.3161 -2.3737
13073TIP3   OH260633   0.066   5.226   5.665 -0.6484  0.2193  0.1121
13073TIP3    H160634   0.100   5.270   5.743  0.9280  0.2463 -0.5515
13073TIP3    H260635   0.014   5.153   5.699  1.9760 -1.2610  1.2494
13074TIP3   OH260636   6.070   4.380  15.973  0.6235 -0.1546  0.0191
13074TIP3    H160637   6.089   4.288  15.955 -1.9397 -0.8328  0.4249
13074TIP3    H260638   6.020   4.409  15.897  0.2400  0.5034  0.5119
13075TIP3   OH260639   1.799   3.308   1.751 -0.1313 -0.4925 -0.1697
13075TIP3    H160640   1.784   3.344   1.663 -0.1273  0.2789  0.1444
13075TIP3    H260641   1.745   3.228   1.753  1.4946 -1.7111 -1.6218
13076TIP3   OH260642   1.517   1.649   6.053  0.6925  0.2939 -0.7483
13076TIP3    H160643   1.555   1.714   5.994  2.3664 -0.7617 -0.9221
13076TIP3    H260644   1.588   1.628   6.115  0.6239 -2.0968 -1.3514
13077TIP3   OH260645   0.848   0.503  14.992  0.3067  0.5304 -0.3337
13077TIP3    H160646   0.837   0.493  14.898  1.8519  1.9948 -0.7256
13077TIP3    H260647   0.759   0.518  15.026 -0.2161  0.3819 -1.6033
13078TIP3   OH260648   5.300   2.548   2.688  0.3561 -0.5472  0.7631
13078TIP3    H160649   5.296   2.616   2.621 -0.1551  0.3120  1.6544
13078TIP3    H260650   5.276   2.467   2.641  3.1399 -0.5859 -0.8481
13079TIP3   OH260651   1.156   3.313  11.728  0.0036  0.0113  0.4753
13079TIP3    H160652   1.131   3.251  11.797 -2.1579 -1.5558 -1.5374
13079TIP3    H260653   1.075   3.360  11.707  0.6733  0.6788 -0.7602
13080TIP3   OH260654   2.439   2.479   3.917 -0.0752  0.3293 -0.5222
13080TIP3    H160655   2.368   2.451   3.975  1.8501 -1.0508  1.3447
13080TIP3    H260656   2.430   2.423   3.840  0.1539 -1.2724  0.5739
13081TIP3   OH260657   2.110   1.033  13.199  0.2962 -0.0960  0.6571
13081TIP3    H160658   2.067   0.953  13.229  0.2843  0.1684  1.3617
13081TIP3    H260659   2.038   1.094  13.183  0.2286 -0.5513 -0.9115
13082TIP3   OH260660   0.613   1.309  15.986 -0.1986  0.3335  0.1862
13082TIP3    H160661   0.537   1.348  15.943 -0.8736  0.1276  1.1696
13082TIP3    H260662   0.604   1.215  15.971 -0.8435  0.1828  1.3675
13083TIP3   OH260663   1.737   2.055   4.601 -0.0709  0.1291  0.4812
13083TIP3    H160664   1.811   2.044   4.542  1.4486  0.3626  2.2446
13083TIP3    H260665   1.660   2.048   4.545  1.2141 -1.6172 -1.2097
13084TIP3   OH260666   4.583   2.261   3.029  0.4566 -0.0205 -0.4422
13084TIP3    H160667   4.495   2.298   3.022  0.2496 -0.6052 -0.9995
13084TIP3    H260668   4.581   2.184   2.972  0.8719 -0.9261  0.7428
13085TIP3   OH260669   0.640   3.687  12.370 -0.3805  0.1242  0.7642
13085TIP3    H160670   0.645   3.723  12.458  0.3221 -1.0506  1.2237
13085TIP3    H260671   0.719   3.635  12.360  0.2393  1.3151 -1.0818
13086TIP3   OH260672   6.462   3.250   3.435  0.1059  0.6018 -0.3187
13086TIP3    H160673   6.550   3.263   3.472  0.3353  1.7362 -1.1834
13086TIP3    H260674   6.437   3.337   3.403 -0.6604 -0.0322 -1.5285
13087TIP3   OH260675   5.470   0.452  16.264  0.3835 -0.0788  0.4740
13087TIP3    H160676   5.535   0.498  16.317  0.2544  1.2080 -0.4438
13087TIP3    H260677   5.393   0.446  16.320  0.7058 -0.0446  0.9321
13088TIP3   OH260678   1.999   3.938   1.640  0.3678 -0.0063  0.2242
13088TIP3    H160679   1.940   3.956   1.713 -0.6616  0.9180 -0.8028
13088TIP3    H260680   2.086   3.961   1.673 -0.2808  2.0988  0.6450
13089TIP3   OH260681   1.504   1.678  14.984 -0.1295 -0.2393 -0.5163
13089TIP3    H160682   1.456   1.755  15.015  0.0735  0.2222 -1.3089
13089TIP3    H260683   1.536   1.704  14.898  1.5557 -0.5368 -0.0066
13090TIP3   OH260684   1.004   5.123  14.139  0.0352  0.5978  0.8891
13090TIP3    H160685   0.943   5.065  14.093  0.6457  1.1618 -0.7009
13090TIP3    H260686   1.060   5.159  14.070  0.6970  1.8559  2.0267
13091TIP3   OH260687   2.960   4.667   0.453  0.1019 -0.3823  0.0580
13091TIP3    H160688   2.925   4.756   0.448 -1.7676 -1.1400 -2.3142
13091TIP3    H260689   3.054   4.678   0.444 -0.1360  1.3382 -0.7807
13092TIP3   OH260690   4.791   6.128   5.306  0.5738  0.0134 -0.6934
13092TIP3    H160691   4.821   6.132   5.215  0.5214  1.3542 -0.6820
13092TIP3    H260692   4.871   6.113   5.356  0.5570 -1.0692 -0.9717
13093TIP3   OH260693   1.389   0.993  11.539  0.1422  0.3441  0.1939
13093TIP3    H160694   1.299   1.025  11.546  0.2978  0.8120  0.0556
13093TIP3    H260695   1.442   1.072  11.533  0.6276  0.0795  0.9728
13094TIP3   OH260696   1.472   3.059   1.058 -0.3508 -0.4956  0.4785
13094TIP3    H160697   1.546   3.053   1.118  0.6388 -0.4119 -0.6827
13094TIP3    H260698   1.476   2.978   1.008  0.2698  0.3985 -1.0124
13095TIP3   OH260699   2.490   1.319  12.683  0.2091  0.2029 -0.6174
13095TIP3    H160700   2.535   1.236  12.666 -2.5275 -1.1822 -1.6982
13095TIP3    H260701   2.397   1.298  12.675 -0.7003  2.9489  1.1855
13096TIP3   OH260702   6.654   2.993  16.437  0.4941  0.2497  0.3605
13096TIP3    H160703   6.622   2.909  16.406  0.4862  0.4981 -0.3318
13096TIP3    H260704   6.602   3.012  16.515  0.4603 -0.3528  0.4896
13097TIP3   OH260705   2.253   1.387   5.521  0.0533 -0.1802 -0.2077
13097TIP3    H160706   2.277   1.414   5.432 -0.9532 -2.1546 -1.1284
13097TIP3    H260707   2.173   1.436   5.540 -1.0944 -1.5478 -1.3826
13098TIP3   OH260708   1.027   1.817  17.034  0.5428  0.2807 -0.7271
13098TIP3    H160709   1.088   1.761  17.080  0.8819  0.5505 -0.8467
13098TIP3    H260710   0.968   1.756  16.988  1.0840  0.0265 -1.0879
13099TIP3   OH260711   5.455   6.224   4.820 -0.3441 -0.3140 -0.7479
13099TIP3    H160712   5.473   6.247   4.729 -1.7919 -0.7889 -1.1906
13099TIP3    H260713   5.434   6.307   4.862 -0.8616 -0.2288 -1.1617
13100TIP3   OH260714   3.556   6.593   5.072  0.3348 -0.1111 -0.2800
13100TIP3    H160715   3.535   6.653   5.000  0.3824  0.0462 -0.1622
13100TIP3    H260716   3.562   6.507   5.030 -1.7070 -0.3725 -0.1540
13101TIP3   OH260717   6.487   2.525  11.997 -0.0643 -0.3673 -0.0470
13101TIP3    H160718   6.395   2.504  12.014 -0.2973  0.8827  0.3219
13101TIP3    H260719   6.500   2.611  12.037  1.0293 -0.1214 -0.8912
13102TIP3   OH260720   3.783   6.384   0.683 -0.2458 -0.3021 -0.7576
13102TIP3    H160721   3.721   6.312   0.694 -1.1082  0.3954 -0.8814
13102TIP3    H260722   3.740   6.459   0.724  0.3891  0.2709 -1.1157
13103TIP3   OH260723   5.298   6.476  12.193 -0.0481  0.1439 -0.4631
13103TIP3    H160724   5.366   6.411  12.209  0.3467  0.8066  0.6230
13103TIP3    H260725   5.217   6.434  12.223  0.2592  0.2845  0.5835
13104TIP3   OH260726   1.391   3.493  15.260  0.4627 -0.6387 -0.3016
13104TIP3    H160727   1.485   3.489  15.238  1.0291  1.3383  1.4395
13104TIP3    H260728   1.381   3.576  15.306 -1.6947 -1.8911  1.6812
13105TIP3   OH260729   0.309   4.805   3.479  0.4068  0.0232  0.4133
13105TIP3    H160730   0.258   4.885   3.473 -0.5456 -0.5750  0.3288
13105TIP3    H260731   0.365   4.807   3.401  1.2122  1.1280  0.9874
13106TIP3   OH260732   4.272   5.010   4.702 -0.1743 -0.6223 -0.2283
13106TIP3    H160733   4.204   4.943   4.708  0.0341 -0.7413  1.2601
13106TIP3    H260734   4.224   5.093   4.707 -0.3574 -0.6540 -1.2046
13107TIP3   OH260735   0.305   0.480   2.883 -0.1976  0.6163 -0.0189
13107TIP3    H160736   0.304   0.443   2.972 -0.9372  0.2266 -0.1793
13107TIP3    H260737   0.372   0.430   2.837  0.0345  0.6691  0.2567
13108TIP3   OH260738   4.176   3.722  15.110 -0.1118 -0.3275 -0.5599
13108TIP3    H160739   4.114   3.654  15.083 -1.5865  1.5332 -2.1783
13108TIP3    H260740   4.161   3.794  15.049  0.4557  1.9693  1.8099
13109TIP3   OH260741   1.736   0.102   6.425 -0.1636  0.3465 -0.5031
13109TIP3    H160742   1.729   0.197   6.426 -0.1913  0.3672 -1.4102
13109TIP3    H260743   1.778   0.080   6.508  2.1885  1.3725 -1.3263
13110TIP3   OH260744   4.503   3.243  15.580 -0.0862  0.5948  0.3940
13110TIP3    H160745   4.539   3.155  15.589  0.9256  1.0079  0.4520
13110TIP3    H260746   4.467   3.264  15.667 -1.3754 -0.1897  0.0816
13111TIP3   OH260747   3.099   2.352  12.975 -0.2310 -0.3594  0.8615
13111TIP3    H160748   3.133   2.274  12.931  2.8993  0.5036  1.4846
13111TIP3    H260749   3.119   2.424  12.915 -1.0132  0.2161  1.2788
13112TIP3   OH260750   6.754   3.977  13.967 -0.5826 -0.1228 -0.5231
13112TIP3    H160751   6.706   3.965  14.049 -1.4572  0.1999 -0.9707
13112TIP3    H260752   6.822   4.041  13.988 -1.0475  0.2544 -0.1473
13113TIP3   OH260753   6.483   6.670   3.433  0.1136  0.2079  0.0163
13113TIP3    H160754   6.418   6.628   3.491 -2.2673  0.5761 -2.2154
13113TIP3    H260755   6.445   6.755   3.411  2.5260  1.5054  0.4549
13114TIP3   OH260756   6.544   3.694  11.583 -0.1434  0.4179 -0.2578
13114TIP3    H160757   6.503   3.655  11.506 -0.1062  1.4289 -0.8055
13114TIP3    H260758   6.474   3.746  11.624  0.9009  3.6539 -2.2035
13115TIP3   OH260759   5.536   3.110   0.297  0.1460 -0.1797 -0.6226
13115TIP3    H160760   5.449   3.077   0.272  0.4678  0.1628 -2.3288
13115TIP3    H260761   5.546   3.190   0.245  0.9530  0.4992  0.5481
13116TIP3   OH260762   4.213   2.641  11.249 -0.0301  0.5380 -0.2329
13116TIP3    H160763   4.210   2.666  11.341 -1.4034  1.7735 -0.5824
13116TIP3    H260764   4.182   2.718  11.201  0.7512 -0.0311 -1.7533
13117TIP3   OH260765   2.503   6.639  16.289 -0.5901 -0.2214 -0.2976
13117TIP3    H160766   2.511   6.551  16.325 -1.8210 -0.1477  0.1876
13117TIP3    H260767   2.525   6.697  16.362 -2.4459 -0.0878  0.2110
13118TIP3   OH260768   1.280   1.090   4.879 -0.0547 -0.4778 -0.1124
13118TIP3    H160769   1.230   1.062   4.801 -0.3215 -0.9722  0.2273
13118TIP3    H260770   1.215   1.133   4.934  0.6212  2.2313 -1.2635
13119TIP3   OH260771   6.121   4.166   4.237  0.2831  0.1843  0.3131
13119TIP3    H160772   6.206   4.191   4.275 -0.3894 -2.0256  3.7300
13119TIP3    H260773   6.058   4.224   4.280 -0.2451 -0.4282  0.3752
13120TIP3   OH260774   2.945   0.545  15.556 -0.2069  0.2712  0.8946
13120TIP3    H160775   3.014   0.601  15.591  0.0538  1.1497 -0.8852
13120TIP3    H260776   2.868   0.565  15.610  0.0560  1.9047  0.7222
13121TIP3   OH260777   3.730   2.221  14.543  0.3067  0.1191  0.1758
13121TIP3    H160778   3.802   2.214  14.480  1.2867  0.3512  1.2359
13121TIP3    H260779   3.667   2.279  14.500  1.2912  0.8753 -0.3055
13122TIP3   OH260780   2.674   3.036  15.312  0.2036 -0.0286 -0.4332
13122TIP3    H160781   2.686   3.106  15.376 -1.9543  0.4373 -0.4640
13122TIP3    H260782   2.729   3.062  15.238  1.6033  0.1574  0.6293
13123TIP3   OH260783   3.028   3.605  12.337 -0.2060 -0.7030 -0.1367
13123TIP3    H160784   3.111   3.650  12.323  0.4834 -0.6256  3.4689
13123TIP3    H260785   2.961   3.672  12.319  0.6935  0.6904  1.5058
13124TIP3   OH260786   5.560   6.164  16.524 -0.0927  0.1713 -0.0662
13124TIP3    H160787   5.499   6.176  16.598 -0.6962 -0.1374 -0.5005
13124TIP3    H260788   5.595   6.251  16.507 -0.5950  0.3977  0.0455
13125TIP3   OH260789   5.198   1.599  11.976  0.0992  0.1445  0.0181
13125TIP3    H160790   5.248   1.576  12.055  0.1456 -1.5845 -0.4976
13125TIP3    H260791   5.236   1.683  11.948 -0.5911  1.3421  2.3649
13126TIP3   OH260792   4.559   1.711  15.011 -0.1845 -0.4164  0.2652
13126TIP3    H160793   4.604   1.669  14.938  0.5981  0.0889  0.4410
13126TIP3    H260794   4.467   1.689  14.999 -0.3662  1.2510 -1.9792
13127TIP3   OH260795   4.364   0.933  14.333 -0.6257 -0.0650 -0.1395
13127TIP3    H160796   4.431   0.868  14.354  1.0186  1.7587  0.5226
13127TIP3    H260797   4.282   0.895  14.366  0.5447 -1.0641  1.7655
13128TIP3   OH260798   4.789   5.457  13.365  0.2870  0.8575 -0.3839
13128TIP3    H160799   4.831   5.475  13.281 -0.8989  1.8586 -0.7968
13128TIP3    H260800   4.798   5.362  13.376  1.1292  0.8138 -1.2647
13129TIP3   OH260801   2.019   6.388   5.295  0.6155  0.3088  0.2932
13129TIP3    H160802   2.108   6.411   5.322  0.6399 -1.8800  2.4572
13129TIP3    H260803   1.991   6.460   5.239  3.5390  1.3149 -0.0223
13130TIP3   OH260804   1.096   1.493   1.439  0.1983 -0.1509  0.6130
13130TIP3    H160805   1.043   1.573   1.435  1.4282  0.6530 -1.0945
13130TIP3    H260806   1.048   1.430   1.386  0.4254  0.2651 -0.1091
13131TIP3   OH260807   3.978   1.696  14.321 -0.2524  0.0551  0.0164
13131TIP3    H160808   3.950   1.612  14.284 -0.4694 -0.4047  1.1784
13131TIP3    H260809   3.902   1.753  14.310 -0.6174 -0.3239  0.4938
13132TIP3   OH260810   3.931   2.019   5.044 -0.2218  0.7496 -0.3992
13132TIP3    H160811   4.013   2.060   5.014 -0.1880  0.0381 -1.3114
13132TIP3    H260812   3.950   1.925   5.044 -1.4877  0.4525 -2.0598
13133TIP3   OH260813   3.956   6.617  15.219  0.2837 -0.0777  0.2144
13133TIP3    H160814   3.974   6.663  15.137  0.7180 -0.4056  0.1202
13133TIP3    H260815   3.884   6.665  15.259  0.1351  0.1429 -0.3151
13134TIP3   OH260816   6.318   6.497   1.511  0.1964 -0.0342 -0.2282
13134TIP3    H160817   6.254   6.473   1.444  2.3053 -2.3542 -1.5864
13134TIP3    H260818   6.318   6.593   1.511 -1.5780  0.0242 -1.8038
13135TIP3   OH260819   3.734   2.943  11.750  0.5200 -0.8677  0.1079
13135TIP3    H160820   3.723   3.023  11.700 -1.2337 -0.4825  0.9986
13135TIP3    H260821   3.826   2.919  11.740  0.7767  0.5670 -1.1780
13136TIP3   OH260822   2.731   4.434   3.480 -0.1705  0.2797  0.3419
13136TIP3    H160823   2.668   4.449   3.410 -0.4632  3.5020  1.1254
13136TIP3    H260824   2.695   4.360   3.530 -1.4520 -0.1866 -1.2102
13137TIP3   OH260825   0.526   2.022   1.836  0.0177  0.0791  0.3270
13137TIP3    H160826   0.550   2.087   1.770 -0.3495 -0.5432 -0.4360
13137TIP3    H260827   0.479   1.954   1.787 -1.0136  0.0148  1.3647
13138TIP3   OH260828   4.154   1.211   1.117 -0.3041 -0.5297 -0.5017
13138TIP3    H160829   4.082   1.156   1.147 -0.1634 -1.4279 -1.7690
13138TIP3    H260830   4.228   1.152   1.109  0.3980  0.2471  0.0735
13139TIP3   OH260831   3.753   6.107  12.094  1.3371  0.1329 -0.4593
13139TIP3    H160832   3.822   6.056  12.136  1.6639  1.1334  0.2659
13139TIP3    H260833   3.800   6.177  12.048  0.8045  1.0031  0.2922
13140TIP3   OH260834   6.552   3.629   4.784 -0.3183  0.6439 -0.1799
13140TIP3    H160835   6.506   3.673   4.713  1.1240  3.5891  0.5426
13140TIP3    H260836   6.536   3.683   4.861  1.0928 -0.4529  0.9528
13141TIP3   OH260837   4.855   3.908  12.711 -0.5385 -0.2761  0.0121
13141TIP3    H160838   4.872   3.908  12.806 -0.3461 -1.5097 -0.0140
13141TIP3    H260839   4.882   3.822  12.682  1.4543  0.8010 -1.5562
13142TIP3   OH260840   2.346   3.215  15.482 -0.9246  0.2284  0.0058
13142TIP3    H160841   2.273   3.218  15.421 -0.8883  0.4662 -0.0252
13142TIP3    H260842   2.324   3.143  15.542  0.1235 -1.5432 -1.6321
13143TIP3   OH260843   0.399   0.282  13.389  0.6844  0.0048  0.3175
13143TIP3    H160844   0.373   0.370  13.415 -1.3652 -0.5211  0.2169
13143TIP3    H260845   0.317   0.239  13.365  1.7754 -1.5458 -0.8399
13144TIP3   OH260846   4.226   6.470   0.482 -0.5662 -0.3837 -0.5545
13144TIP3    H160847   4.155   6.470   0.547 -1.9140  2.3174 -1.8434
13144TIP3    H260848   4.274   6.551   0.500 -0.3471 -0.1087 -2.2480
13145TIP3   OH260849   0.200   1.249   4.458 -0.1083 -0.1665  0.6509
13145TIP3    H160850   0.157   1.333   4.444  1.5073  0.6661  0.4794
13145TIP3    H260851   0.256   1.238   4.381 -0.3461 -1.4352  0.6469
13146TIP3   OH260852   4.586   0.494   0.305 -0.0009 -0.2772  0.1552
13146TIP3    H160853   4.537   0.571   0.333 -1.1507 -1.6034  2.1280
13146TIP3    H260854   4.519   0.436   0.267  0.9323 -0.1080 -1.8594
13147TIP3   OH260855   4.574   1.057   2.609  0.1554 -0.1959 -0.3633
13147TIP3    H160856   4.575   0.974   2.657 -0.9759  0.2384  0.4580
13147TIP3    H260857   4.482   1.074   2.591  0.3671  0.8902 -0.5186
13148TIP3   OH260858   2.815   0.067   5.877  0.1770 -0.6145 -0.0890
13148TIP3    H160859   2.769   0.089   5.958 -0.8272  2.3478 -1.3492
13148TIP3    H260860   2.793  -0.025   5.861 -0.0348 -1.1213  2.6538
13149TIP3   OH260861   3.131   6.076  14.547  0.0690  0.1181  0.3249
13149TIP3    H160862   3.154   6.130  14.471  1.7424 -2.3981 -1.0907
13149TIP3    H260863   3.212   6.072  14.598 -0.3970 -0.0729  1.0543
13150TIP3   OH260864   2.919   5.804  16.537  0.3576  0.7046 -0.2654
13150TIP3    H160865   3.006   5.766  16.546 -0.0580  0.0873  1.5715
13150TIP3    H260866   2.931   5.897  16.556  0.5226  0.4991  0.6792
13151TIP3   OH260867   0.748   4.062  11.484  0.2948 -0.2998  0.6543
13151TIP3    H160868   0.747   4.003  11.408 -0.0943  0.2446  0.2255
13151TIP3    H260869   0.786   4.010  11.554  2.0628 -0.3836 -0.2788
13152TIP3   OH260870   4.525   0.855  12.962  0.7961 -0.4132 -0.0904
13152TIP3    H160871   4.527   0.896  13.048 -0.4378  0.4052 -0.4173
13152TIP3    H260872   4.461   0.785  12.970  0.2101  0.0604 -0.4839
13153TIP3   OH260873   6.422   0.005  12.358 -0.0594  0.2755  0.3209
13153TIP3    H160874   6.484   0.065  12.400 -1.0161  1.3865  0.1752
13153TIP3    H260875   6.361  -0.018  12.428 -1.4069  1.7936 -0.3093
13154TIP3   OH260876   2.775   2.146   2.232 -0.2222  0.2458 -0.2513
13154TIP3    H160877   2.750   2.059   2.200  1.7622 -0.3642 -0.2837
13154TIP3    H260878   2.693   2.196   2.233 -1.0145 -0.8927 -2.4667
13155TIP3   OH260879   1.655   5.244   0.638 -0.2305 -0.0882  0.1207
13155TIP3    H160880   1.728   5.269   0.695  1.0620 -1.1044 -1.0040
13155TIP3    H260881   1.674   5.153   0.614 -0.9804  0.1559 -1.5377
13156TIP3   OH260882   3.610   3.864   3.907  0.0683 -0.3017  0.0184
13156TIP3    H160883   3.650   3.920   3.974  2.3443  0.4940 -1.8645
13156TIP3    H260884   3.657   3.781   3.914  0.1113 -0.3138 -0.4063
13157TIP3   OH260885   1.838   0.011   3.410  0.2310  0.0598 -0.1364
13157TIP3    H160886   1.832   0.022   3.505  0.4215 -0.4361 -0.0671
13157TIP3    H260887   1.894  -0.065   3.397  1.4753  1.0197 -0.6756
13158TIP3   OH260888   0.614   2.241  15.803 -0.2014  0.4397 -0.9639
13158TIP3    H160889   0.642   2.170  15.860 -0.6877  0.1414 -1.0935
13158TIP3    H260890   0.586   2.198  15.722 -0.4757  0.7746 -1.0525
13159TIP3   OH260891   2.321   0.914   1.793 -0.1436  0.0683  0.2651
13159TIP3    H160892   2.245   0.859   1.774 -1.2563  2.3428 -2.6753
13159TIP3    H260893   2.317   0.929   1.888 -2.9235 -0.5622  0.3209
13160TIP3   OH260894   6.454   6.276   3.650 -0.0381 -0.0876  0.0645
13160TIP3    H160895   6.375   6.321   3.622 -0.9874 -0.4757  1.9417
13160TIP3    H260896   6.426   6.186   3.668  1.0604 -0.5048 -0.1994
13161TIP3   OH260897   2.541   4.147   1.714 -0.6505 -0.2560 -0.3939
13161TIP3    H160898   2.626   4.132   1.757 -1.3650  0.7543  1.4634
13161TIP3    H260899   2.562   4.150   1.621  1.4809  0.6795  0.0529
13162TIP3   OH260900   1.922   6.181  11.374 -0.6248  0.1838 -0.1445
13162TIP3    H160901   1.881   6.095  11.381 -1.4908  0.6730  1.1829
13162TIP3    H260902   1.849   6.243  11.374 -0.0591  0.9147 -1.8572
13163TIP3   OH260903   5.796   1.984  15.315 -0.4164  0.2884 -0.2330
13163TIP3    H160904   5.805   1.908  15.373  0.5818  1.3255  1.0243
13163TIP3    H260905   5.738   1.954  15.245 -0.9561 -1.2747  0.8357
13164TIP3   OH260906   2.888   3.326   1.339 -0.1131 -0.1034  0.3133
13164TIP3    H160907   2.862   3.235   1.347 -1.3226  0.2536  0.6238
13164TIP3    H260908   2.813   3.370   1.299  1.2340  0.3982 -1.8510
13165TIP3   OH260909   3.461   3.646   2.460  0.6897 -0.1561  0.1512
13165TIP3    H160910   3.437   3.650   2.368 -1.2802  0.3280  0.6569
13165TIP3    H260911   3.489   3.735   2.482 -0.5654  0.1876  0.4355
13166TIP3   OH260912   6.439   4.167  15.768 -0.0577  0.2712 -0.1844
13166TIP3    H160913   6.509   4.140  15.828 -2.7553 -0.8579  2.8061
13166TIP3    H260914   6.429   4.093  15.708 -0.0698 -0.5468  0.7900
13167TIP3   OH260915   5.697   4.185   4.981  0.4210 -0.9136  0.3402
13167TIP3    H160916   5.726   4.173   4.890  0.9463 -2.9313  0.7316
13167TIP3    H260917   5.625   4.122   4.992 -1.0470  0.7428  0.7727
13168TIP3   OH260918   2.908   2.642   1.315  0.5206  0.6744  0.0030
13168TIP3    H160919   2.874   2.731   1.313 -1.2684  0.1361  1.9814
13168TIP3    H260920   2.993   2.649   1.358  1.8011  1.7205 -2.5154
13169TIP3   OH260921   0.629   3.134  10.900 -0.3742  0.1423  0.0414
13169TIP3    H160922   0.684   3.177  10.835 -2.0794  1.6249 -0.5105
13169TIP3    H260923   0.635   3.190  10.977 -0.1808 -0.3458  0.3870
13170TIP3   OH260924   1.896   4.468   3.540  0.0320 -0.5464 -0.1175
13170TIP3    H160925   1.865   4.378   3.531 -1.8828  0.1437 -0.9226
13170TIP3    H260926   1.829   4.521   3.497  0.9604  1.2955  0.5933
13171TIP3   OH260927   5.781   2.872  12.315 -0.5659 -0.1552 -0.6806
13171TIP3    H160928   5.834   2.798  12.282 -0.5031 -0.6994  0.5950
13171TIP3    H260929   5.691   2.838  12.316 -0.3085 -0.9845  1.8136
13172TIP3   OH260930   0.665   0.902  16.474 -0.0308  0.3497 -0.9897
13172TIP3    H160931   0.701   0.929  16.389 -1.5980  0.6314 -1.6078
13172TIP3    H260932   0.703   0.963  16.537  2.0990 -0.6087 -1.2668
13173TIP3   OH260933   2.423   3.382   2.038  0.3079 -0.3678 -0.0946
13173TIP3    H160934   2.350   3.444   2.050  0.9303  0.3578  0.0014
13173TIP3    H260935   2.385   3.312   1.984 -0.7683 -0.5701  0.8808
13174TIP3   OH260936   0.137   2.533   2.713 -0.3532 -0.0137  0.0840
13174TIP3    H160937   0.089   2.538   2.630 -0.2348 -3.8702 -0.3967
13174TIP3    H260938   0.196   2.458   2.702  4.0634  2.8630  1.6132
13175TIP3   OH260939   6.637   5.638   5.484  0.4158  0.1345 -0.1029
13175TIP3    H160940   6.641   5.733   5.494 -0.0769  0.1533 -0.0930
13175TIP3    H260941   6.599   5.606   5.566 -0.0749 -0.0130 -0.3828
13176TIP3   OH260942   0.205   4.291  14.493  0.0804  0.0407 -0.2492
13176TIP3    H160943   0.257   4.247  14.561 -0.8558  1.4314  1.4724
13176TIP3    H260944   0.199   4.382  14.523 -2.6362  0.1057 -0.7472
13177TIP3   OH260945   4.126   2.894  14.191 -0.0707 -0.1164 -0.2792
13177TIP3    H160946   4.042   2.876  14.150  0.4977 -0.7919 -1.2060
13177TIP3    H260947   4.173   2.948  14.127  0.9688 -1.4897 -0.7236
13178TIP3   OH260948   3.932   0.418   2.217  0.4767 -0.5669 -0.8323
13178TIP3    H160949   3.846   0.460   2.218  0.0904 -1.3552 -0.7517
13178TIP3    H260950   3.978   0.456   2.292 -1.1108 -2.8114  1.4420
13179TIP3   OH260951   3.703   0.877  16.945  0.1008 -0.6400  0.2447
13179TIP3    H160952   3.789   0.918  16.948 -0.3001  0.4245 -1.3022
13179TIP3    H260953   3.718   0.793  16.900  0.5449 -1.1673  1.3383
13180TIP3   OH260954   1.798   3.334  14.139 -0.0237 -0.4832 -0.2025
13180TIP3    H160955   1.793   3.289  14.055 -0.5679 -0.8604  0.0240
13180TIP3    H260956   1.809   3.426  14.117  0.4710 -0.6515 -0.6753
13181TIP3   OH260957   3.921   0.259  14.336  0.1497 -0.4895  0.6249
13181TIP3    H160958   3.877   0.337  14.302  2.5095  1.0810  0.9210
13181TIP3    H260959   3.854   0.191  14.337 -1.8683  1.4050 -0.1298
13182TIP3   OH260960   4.906   2.441  12.962  0.2087 -0.1090 -0.6786
13182TIP3    H160961   4.877   2.358  12.923  0.8504 -0.7669  0.2074
13182TIP3    H260962   4.958   2.415  13.038  1.3447  1.0798 -1.0092
13183TIP3   OH260963   6.569   6.577  15.494 -0.2952 -0.3467  0.0128
13183TIP3    H160964   6.544   6.657  15.446  0.6283 -0.2147 -0.2711
13183TIP3    H260965   6.594   6.608  15.581  0.5408 -0.2518 -0.2521
13184TIP3   OH260966   2.447   6.568  13.586  0.0165 -0.1945 -0.4486
13184TIP3    H160967   2.508   6.587  13.657  0.6945 -1.1194 -0.7622
13184TIP3    H260968   2.455   6.473  13.573 -0.8724 -0.1977 -1.0587
13185TIP3   OH260969   1.567   3.212   6.268  0.3543 -0.5108  0.0630
13185TIP3    H160970   1.499   3.267   6.307 -0.4830 -1.5765  0.1438
13185TIP3    H260971   1.600   3.158   6.341  3.3303  1.8925  0.7153
13186TIP3   OH260972   3.563   2.603  13.834 -0.0483  0.3954 -0.0772
13186TIP3    H160973   3.537   2.657  13.759  1.5807  1.9697  0.4255
13186TIP3    H260974   3.577   2.516  13.798 -3.6348 -0.0339 -0.7678
13187TIP3   OH260975   5.685   4.950  10.783 -0.3913  0.1679 -0.4654
13187TIP3    H160976   5.742   4.882  10.749  1.5938  0.9681  1.0522
13187TIP3    H260977   5.693   4.943  10.878 -1.4374  1.4649 -0.2379
13188TIP3   OH260978   5.270   0.107  16.934  0.1693 -0.0212 -0.2643
13188TIP3    H160979   5.275   0.017  16.964 -0.3324  0.4665  1.3709
13188TIP3    H260980   5.257   0.159  17.013  1.2867  1.5790 -1.0650
13189TIP3   OH260981   1.487   1.586   5.654 -0.1945 -0.3962 -0.3679
13189TIP3    H160982   1.435   1.599   5.734  0.1329 -0.5068 -0.1346
13189TIP3    H260983   1.569   1.547   5.685  1.2690  2.4274 -0.3466
13190TIP3   OH260984   2.063   2.515  12.690  0.3735 -0.1378  0.1039
13190TIP3    H160985   2.110   2.485  12.612 -0.1757 -0.9905  0.0968
13190TIP3    H260986   2.098   2.461  12.761  0.7413  0.5148  0.4285
13191TIP3   OH260987   3.966   6.082   5.058  0.1820  0.2157  0.1552
13191TIP3    H160988   3.926   6.033   4.986 -1.1235  0.6256  0.5584
13191TIP3    H260989   4.053   6.106   5.027 -0.4617  0.6348 -1.3901
13192TIP3   OH260990   4.273   4.525   2.032 -0.5366 -0.2862 -0.9503
13192TIP3    H160991   4.258   4.433   2.055 -0.4996  0.3521  2.0574
13192TIP3    H260992   4.364   4.540   2.056 -0.5071  0.5144 -1.5475
13193TIP3   OH260993   2.351   4.099   4.209  0.3984  0.2090 -0.1971
13193TIP3    H160994   2.435   4.100   4.254  0.9058  0.0205 -1.1057
13193TIP3    H260995   2.291   4.055   4.269  0.5587  1.7029  1.1161
13194TIP3   OH260996   3.590   2.177   4.166 -0.4107 -0.1263 -0.3007
13194TIP3    H160997   3.648   2.247   4.135 -0.2556 -0.6870 -1.3074
13194TIP3    H260998   3.648   2.104   4.185 -0.3891  0.4516  2.2188
13195TIP3   OH260999   6.425   4.901  15.402  0.0394  0.0692 -0.2565
13195TIP3    H161000   6.473   4.901  15.319 -1.2350 -1.8594 -1.0758
13195TIP3    H261001   6.453   4.981  15.447  2.7659 -0.1745 -1.3662
13196TIP3   OH261002   4.633   3.092  14.689  0.4593  0.3998  0.5675
13196TIP3    H161003   4.540   3.091  14.666  0.1956  0.3307  1.5635
13196TIP3    H261004   4.667   3.009  14.654  0.0957  0.3223  0.3853
13197TIP3   OH261005   3.241   6.002  15.273  0.2050  0.3246  0.1822
13197TIP3    H161006   3.179   6.006  15.347 -1.9115  0.4290 -1.4995
13197TIP3    H261007   3.238   5.910  15.245 -0.1358  0.5804 -0.6480
13198TIP3   OH261008   3.208   0.916   3.639 -0.6007  0.3395  0.8368
13198TIP3    H161009   3.238   0.997   3.598 -3.1895  0.7445 -0.4766
13198TIP3    H261010   3.186   0.942   3.729  1.2519  0.3959  1.3022
13199TIP3   OH261011   2.557   0.423  12.510 -0.0413  0.5613  0.5143
13199TIP3    H161012   2.566   0.339  12.556 -2.3450 -0.2527 -0.3300
13199TIP3    H261013   2.610   0.412  12.431 -0.0246  0.0144  0.5921
13200TIP3   OH261014   5.239   6.368  15.671 -0.6752  0.7439 -0.0497
13200TIP3    H161015   5.314   6.427  15.683  0.8097 -0.8261 -1.1752
13200TIP3    H261016   5.224   6.331  15.758  0.9195 -0.0895 -0.0826
13201TIP3   OH261017   5.028   1.170   4.585  1.0898  0.3143  0.1925
13201TIP3    H161018   5.119   1.157   4.610  1.4599  0.6971 -0.8765
13201TIP3    H261019   4.985   1.201   4.665  1.9940  0.5540  0.5999
13202TIP3   OH261020   3.336   2.282   6.341  0.3414 -0.1795 -0.1323
13202TIP3    H161021   3.333   2.358   6.283 -0.1679  0.0513  0.1976
13202TIP3    H261022   3.405   2.302   6.404 -0.7650  0.6601  0.8475
13203TIP3   OH261023   6.473   1.751   3.803  0.1563  0.4398 -0.4070
13203TIP3    H161024   6.451   1.831   3.755  1.1777 -0.1207 -1.9348
13203TIP3    H261025   6.463   1.681   3.738  0.4896 -0.5186  0.5411
13204TIP3   OH261026   6.686   0.254   3.788 -0.0274  0.2906  0.2577
13204TIP3    H161027   6.683   0.336   3.838 -0.2971 -0.2311  1.1064
13204TIP3    H261028   6.779   0.233   3.784  0.0658  0.7590 -0.1727
13205TIP3   OH261029   0.340   6.274   5.938 -0.1958 -0.1802 -0.6189
13205TIP3    H161030   0.300   6.340   5.880 -1.4638 -0.0649  0.3558
13205TIP3    H261031   0.271   6.250   5.999  1.6403  1.1661  2.1723
13206TIP3   OH261032   2.890   0.533  12.914  0.1934  0.5569  0.1355
13206TIP3    H161033   2.811   0.583  12.892  0.1339  0.0531 -0.8653
13206TIP3    H261034   2.859   0.464  12.973 -0.0296  0.6876  0.1734
13207TIP3   OH261035   3.365   1.784   1.358 -0.2166  0.3424  0.2257
13207TIP3    H161036   3.458   1.776   1.337 -0.4566  0.3074 -0.8412
13207TIP3    H261037   3.323   1.712   1.311 -0.6510 -0.3829  1.6576
13208TIP3   OH261038   6.704   4.815   5.163  0.1451 -0.3614 -0.1167
13208TIP3    H161039   6.770   4.883   5.178  0.7882 -0.7726 -0.9944
13208TIP3    H261040   6.741   4.761   5.093 -1.0235 -0.7449 -0.4532
13209TIP3   OH261041   5.578   6.278   1.682 -0.3252  0.4246 -0.2093
13209TIP3    H161042   5.630   6.212   1.728 -1.1422  0.0473  0.1963
13209TIP3    H261043   5.576   6.353   1.742 -0.1466  0.4796 -0.2741
13210TIP3   OH261044   0.120   2.742  16.296  0.0477 -0.7785  0.0279
13210TIP3    H161045   0.094   2.769  16.384 -1.1706 -0.3013 -0.4556
13210TIP3    H261046   0.105   2.819  16.241  0.2200 -1.2528 -0.7084
13211TIP3   OH261047   4.537   2.918   3.456  0.2334 -0.2651 -1.0614
13211TIP3    H161048   4.605   2.851   3.448  1.4271  0.8712 -0.8152
13211TIP3    H261049   4.571   2.992   3.405 -1.0323  0.1818 -1.2831
13212TIP3   OH261050   0.797   3.376   0.363 -1.0269  0.7658 -0.5571
13212TIP3    H161051   0.733   3.318   0.321 -1.0668  0.9910 -0.8032
13212TIP3    H261052   0.744   3.430   0.422 -0.8489 -0.2686  0.5867
13213TIP3   OH261053   2.144   0.365  16.541 -0.0982 -0.0138  0.3163
13213TIP3    H161054   2.064   0.320  16.569  0.9009 -1.5158  0.8382
13213TIP3    H261055   2.125   0.458  16.556 -1.2746 -0.4300  1.6639
13214TIP3   OH261056   2.225   3.014  11.805 -0.6256  0.0335 -0.4590
13214TIP3    H161057   2.238   2.920  11.791  1.2247 -0.0341  1.1906
13214TIP3    H261058   2.172   3.018  11.885  0.9089  0.3570  0.5746
13215TIP3   OH261059   3.428   3.489   1.905  0.0722 -0.2288 -0.1164
13215TIP3    H161060   3.496   3.500   1.839  1.7777  0.2045  1.6578
13215TIP3    H261061   3.469   3.438   1.975 -1.3605  0.1983  1.1013
13216TIP3   OH261062   1.524   3.707  14.646 -0.3337 -0.2242  0.0142
13216TIP3    H161063   1.505   3.615  14.663 -0.0640 -0.3163 -0.1834
13216TIP3    H261064   1.490   3.753  14.723  0.1938 -0.5574  0.4521
13217TIP3   OH261065   3.789   3.610   3.924 -0.3317  0.1009 -0.1571
13217TIP3    H161066   3.873   3.625   3.968  0.1440 -0.6604 -0.7700
13217TIP3    H261067   3.800   3.526   3.880 -0.8995  0.6709 -1.4565
13218TIP3   OH261068   0.330   5.109   1.970 -0.0299 -0.0369 -0.4019
13218TIP3    H161069   0.268   5.105   2.043  1.9001  2.1361  1.5127
13218TIP3    H261070   0.378   5.026   1.974 -1.9862 -1.2847 -1.2503
13219TIP3   OH261071   2.697   5.448  12.522  0.2966  0.0712 -0.3104
13219TIP3    H161072   2.719   5.446  12.615 -0.4732 -3.1255 -0.0880
13219TIP3    H261073   2.781   5.464  12.478  1.0408 -0.4198  0.8762
13220TIP3   OH261074   4.854   0.570   4.741  0.0625  0.0385  0.4317
13220TIP3    H161075   4.834   0.566   4.648  0.5917  0.8777  0.2661
13220TIP3    H261076   4.949   0.557   4.747 -0.0549 -0.6335  0.9089
13221TIP3   OH261077   2.466   0.619  12.181 -0.3371 -0.0033 -0.3676
13221TIP3    H161078   2.377   0.640  12.207 -0.4479  0.0136 -0.7579
13221TIP3    H261079   2.462   0.529  12.149 -0.5039  0.4652 -1.7254
13222TIP3   OH261080   0.556   2.100  13.019  0.6466  0.2090 -0.0820
13222TIP3    H161081   0.625   2.054  13.068  0.2802 -0.8190 -0.4916
13222TIP3    H261082   0.553   2.054  12.935  1.7927  2.3948 -1.4180
13223TIP3   OH261083   5.491   5.227   0.574 -0.0116 -0.1841 -0.0989
13223TIP3    H161084   5.513   5.280   0.650  0.6929 -0.9230  0.2397
13223TIP3    H261085   5.432   5.160   0.608  0.6034 -0.7430 -0.1061
13224TIP3   OH261086   6.309   4.012  13.623 -0.0199 -0.2231 -0.3179
13224TIP3    H161087   6.329   3.963  13.544 -1.4214  0.0526 -0.8658
13224TIP3    H261088   6.358   3.967  13.692 -0.1428 -1.5134 -1.0428
13225TIP3   OH261089   3.984   4.106  15.939  0.5826  0.4363 -0.1270
13225TIP3    H161090   3.980   4.182  15.881  0.2923  0.3767 -0.1889
13225TIP3    H261091   4.027   4.138  16.018  0.6906  0.5995 -0.2532
13226TIP3   OH261092   4.925   6.272  13.244  0.2383 -0.4647 -0.1237
13226TIP3    H161093   4.833   6.301  13.237  0.6104  0.3034 -2.6884
13226TIP3    H261094   4.973   6.331  13.186  1.9557 -2.5474 -0.9281
13227TIP3   OH261095   0.981   3.795   2.642  0.7249 -0.1680  0.3326
13227TIP3    H161096   0.992   3.765   2.733  0.3488 -0.9985  0.1074
13227TIP3    H261097   0.898   3.843   2.643 -0.9234 -2.8258 -0.2080
13228TIP3   OH261098   0.804   2.689  12.576 -0.2045 -0.1780 -0.2042
13228TIP3    H161099   0.846   2.664  12.494  1.0563  1.7472 -0.2292
13228TIP3    H261100   0.866   2.661  12.644 -1.3549 -1.9863  0.1558
13229TIP3   OH261101   0.400   5.019   3.149 -0.6539 -0.2944  0.2107
13229TIP3    H161102   0.339   5.035   3.078  2.2744  0.3652 -2.3952
13229TIP3    H261103   0.440   5.105   3.166  0.9849 -1.0238  0.2953
13230TIP3   OH261104   3.154   0.338  17.133 -0.3171 -0.2279 -0.1844
13230TIP3    H161105   3.248   0.320  17.136 -0.3922 -0.5712  0.6050
13230TIP3    H261106   3.126   0.331  17.225 -1.1923 -0.6045 -0.4673
13231TIP3   OH261107   5.258   5.026   4.811  0.3097  0.3768  0.0853
13231TIP3    H161108   5.307   4.974   4.748 -1.4200 -1.7636  0.3464
13231TIP3    H261109   5.296   5.004   4.896 -1.5249 -2.0411  0.3940
13232TIP3   OH261110   3.413   6.071   0.645  0.4406 -0.4263  0.2290
13232TIP3    H161111   3.429   5.978   0.661 -2.0745 -0.9152  0.2366
13232TIP3    H261112   3.482   6.116   0.694  2.7905 -2.2672 -1.1903
13233TIP3   OH261113   4.512   4.860  17.080  0.3913  0.1908 -0.5882
13233TIP3    H161114   4.493   4.851  17.173  1.0735 -0.7581 -0.5295
13233TIP3    H261115   4.575   4.932  17.076  1.3100 -0.5658 -0.1689
13234TIP3   OH261116   2.681   1.650   4.245  0.1413 -0.0170 -0.1061
13234TIP3    H161117   2.709   1.681   4.331 -0.8589  0.3632  0.0884
13234TIP3    H261118   2.633   1.723   4.207 -1.5114 -0.9836  0.0077
13235TIP3   OH261119   6.395   0.826   2.246  0.1798 -0.3161 -0.0567
13235TIP3    H161120   6.429   0.836   2.334  0.3774 -2.1434  0.1272
13235TIP3    H261121   6.471   0.801   2.193  0.2110  1.5092 -0.9303
13236TIP3   OH261122   2.549   1.178  15.967 -0.4151  0.3419 -0.3892
13236TIP3    H161123   2.632   1.140  15.998 -1.3174 -0.1039  1.6579
13236TIP3    H261124   2.557   1.271  15.988  0.2955  0.6716 -1.9707
13237TIP3   OH261125   0.438   5.638  16.610  0.1268 -0.1715 -0.6877
13237TIP3    H161126   0.424   5.731  16.592  1.9737  0.1925 -0.4619
13237TIP3    H261127   0.351   5.604  16.632 -0.3216  1.9292  1.1318
13238TIP3   OH261128   5.297   2.620  17.119  0.0536 -0.9187  0.1394
13238TIP3    H161129   5.304   2.585  17.207  1.5111  0.6319  0.6817
13238TIP3    H261130   5.382   2.601  17.079 -0.0346 -0.2292 -0.3901
13239TIP3   OH261131   4.914   3.172  11.539 -0.2020 -0.6239  0.0449
13239TIP3    H161132   4.854   3.120  11.486  0.0413  0.2085 -1.0599
13239TIP3    H261133   4.876   3.170  11.627 -1.2862 -0.9650 -0.4210
13240TIP3   OH261134   2.640   6.607   4.761 -0.5659  0.1992  0.0782
13240TIP3    H161135   2.600   6.593   4.846 -1.1014 -0.1304 -0.2233
13240TIP3    H261136   2.633   6.523   4.716  1.9191 -0.3738  0.5949
13241TIP3   OH261137   6.145   6.297  15.872  0.4839 -0.3511  0.8497
13241TIP3    H161138   6.084   6.371  15.870  0.8214 -0.0322  1.8268
13241TIP3    H261139   6.231   6.336  15.854  0.6397 -0.5194  1.2083
13242TIP3   OH261140   2.020   2.710   5.109 -0.0026 -0.3689  0.0453
13242TIP3    H161141   1.974   2.644   5.162 -2.8271 -0.5260 -2.3342
13242TIP3    H261142   1.961   2.786   5.110  1.5350  0.8679 -0.1072
13243TIP3   OH261143   3.072   5.200   1.195  0.5599 -0.5233 -0.2101
13243TIP3    H161144   3.074   5.105   1.186 -0.7995 -0.4581 -1.5523
13243TIP3    H261145   3.032   5.231   1.114 -1.0206  1.0546  1.0920
13244TIP3   OH261146   1.242   0.280   4.226 -0.1778 -0.5491 -0.3539
13244TIP3    H161147   1.250   0.347   4.294  1.3204  0.3718 -1.3865
13244TIP3    H261148   1.154   0.244   4.238 -0.0366 -0.2489  1.8951
13245TIP3   OH261149   3.410   4.150  16.619  0.5520 -0.4896  0.4052
13245TIP3    H161150   3.407   4.239  16.583 -0.3851 -0.5053  0.4160
13245TIP3    H261151   3.448   4.097  16.549 -1.8350 -0.6429 -0.9007
13246TIP3   OH261152   5.950   4.865  12.535 -0.5039 -0.2449  0.3312
13246TIP3    H161153   6.015   4.856  12.466  0.1241  0.6232  0.7900
13246TIP3    H261154   5.875   4.908  12.492  0.2083  1.0742  0.3586
13247TIP3   OH261155   2.656   2.719   2.453  0.6311  0.3425  0.0285
13247TIP3    H161156   2.616   2.735   2.368  1.1143  2.4105  0.1486
13247TIP3    H261157   2.621   2.787   2.510  2.3690  0.6876  0.7690
13248TIP3   OH261158   0.618   6.782  12.684  0.8724  1.0354 -0.3031
13248TIP3    H161159   0.701   6.751  12.721  1.6824  1.4700 -1.6834
13248TIP3    H261160   0.563   6.704  12.680  0.2814  1.1602  2.8649
13249TIP3   OH261161   2.405   4.561   5.313  0.0139  0.0997 -0.1293
13249TIP3    H161162   2.315   4.552   5.283 -0.6113  0.1291  1.6512
13249TIP3    H261163   2.398   4.589   5.404  1.8183 -0.4425  0.2256
13250TIP3   OH261164   4.141   3.708  12.112  0.0335  0.2929 -0.1998
13250TIP3    H161165   4.194   3.737  12.186  0.7945  2.5587 -1.5290
13250TIP3    H261166   4.155   3.614  12.108  1.7138  0.4314  1.1986
13251TIP3   OH261167   4.332   6.193  14.113 -0.1564  0.2158 -0.5287
13251TIP3    H161168   4.334   6.248  14.191 -0.2417 -0.6993  0.1241
13251TIP3    H261169   4.299   6.109  14.143 -1.0888  0.1246 -1.7255
13252TIP3   OH261170   3.168   1.731   1.110 -0.2808  0.6718  0.3214
13252TIP3    H161171   3.105   1.798   1.137 -0.3335  0.9725 -0.5085
13252TIP3    H261172   3.193   1.757   1.021  0.4840  0.1613  0.3825
13253TIP3   OH261173   5.052   3.219   1.527 -0.2075  0.2944 -0.4563
13253TIP3    H161174   5.121   3.283   1.507 -1.3331  1.3162 -1.2107
13253TIP3    H261175   4.978   3.245   1.472 -1.4620 -0.3307  0.8706
13254TIP3   OH261176   0.973   3.393  14.878 -0.2840  0.2289  0.2872
13254TIP3    H161177   1.020   3.316  14.910  0.6159 -0.0569 -1.5913
13254TIP3    H261178   0.884   3.381  14.910 -0.7166 -2.7151 -1.6103
13255TIP3   OH261179   3.983   0.399  13.548 -0.3211  0.0197  0.4374
13255TIP3    H161180   4.042   0.352  13.489 -0.5195 -1.9672  1.7382
13255TIP3    H261181   4.040   0.434  13.616 -0.5572 -1.8155  1.6399
13256TIP3   OH261182   3.418   4.797   2.285 -0.0029  0.4069  0.1551
13256TIP3    H161183   3.336   4.754   2.311  0.1688 -0.2181 -0.3178
13256TIP3    H261184   3.390   4.873   2.234 -0.2976 -0.4343 -0.9954
13257TIP3   OH261185   6.678   4.892   6.232  0.1754  0.2900  0.1017
13257TIP3    H161186   6.586   4.881   6.206  0.2072 -1.2680  0.5097
13257TIP3    H261187   6.706   4.804   6.257  2.3276  0.3389 -1.7726
13258TIP3   OH261188   3.330   2.993   4.287  0.4115 -0.1613  0.2207
13258TIP3    H161189   3.338   2.945   4.370  1.2015 -0.1904  0.1366
13258TIP3    H261190   3.323   3.085   4.313 -0.3244 -0.2476  0.3520
13259TIP3   OH261191   6.691   5.880  10.938 -0.4989  0.0110  0.2744
13259TIP3    H161192   6.777   5.902  10.975 -0.2756  0.8226 -0.6608
13259TIP3    H261193   6.635   5.953  10.963 -0.3435  0.5710 -0.9399
13260TIP3   OH261194   4.526   2.491  12.712  0.2360  0.4636 -0.0891
13260TIP3    H161195   4.586   2.565  12.713  1.5072 -0.5307  1.6233
13260TIP3    H261196   4.575   2.420  12.670 -0.7524  0.3963 -1.1769
13261TIP3   OH261197   1.566   3.245  15.927  0.3935 -0.3912  0.3106
13261TIP3    H161198   1.648   3.199  15.908  0.1730 -0.2621 -1.0922
13261TIP3    H261199   1.517   3.186  15.983  0.2799 -1.7379 -1.1458
13262TIP3   OH261200   0.082   3.947  15.880  0.4015 -0.2932  0.9034
13262TIP3    H161201   0.127   4.004  15.818 -2.3960 -1.3020 -2.4616
13262TIP3    H261202   0.049   4.005  15.948  0.1249  1.6720 -0.8114
13263TIP3   OH261203   4.844   3.277   1.388  0.4550 -0.2489  0.4892
13263TIP3    H161204   4.805   3.363   1.408  1.1330  0.8017 -2.2007
13263TIP3    H261205   4.770   3.218   1.382 -0.1395  0.3907  1.3599
13264TIP3   OH261206   2.333   3.653   3.552 -0.3125  0.3969  0.1018
13264TIP3    H161207   2.404   3.707   3.586 -0.3838 -1.4080  3.6125
13264TIP3    H261208   2.255   3.686   3.596 -0.6923 -1.0778  0.6141
13265TIP3   OH261209   2.200   4.042   1.086  0.1617  0.3804 -0.3686
13265TIP3    H161210   2.238   4.081   1.008  2.5259  0.8289  0.9138
13265TIP3    H261211   2.126   4.100   1.108 -0.0532  0.6750 -1.8138
13266TIP3   OH261212   5.572   1.131  13.864 -0.5016  0.6656  0.2484
13266TIP3    H161213   5.594   1.050  13.910 -2.0603 -1.1157 -1.8911
13266TIP3    H261214   5.533   1.188  13.930  0.1803 -0.4969  1.7039
13267TIP3   OH261215   0.027   3.728  14.602 -0.6904 -0.3674 -0.3707
13267TIP3    H161216   0.044   3.663  14.670 -1.1389 -1.4285 -1.2409
13267TIP3    H261217   0.105   3.726  14.547 -0.5366  0.1323 -0.1782
13268TIP3   OH261218   1.798   2.410   1.177 -0.0216 -0.4192 -0.5516
13268TIP3    H161219   1.834   2.353   1.245  0.1202 -0.3299 -0.5504
13268TIP3    H261220   1.721   2.450   1.217  1.3213  1.3771  0.3585
13269TIP3   OH261221   2.473   4.803   6.327  0.1697  0.0104 -0.7620
13269TIP3    H161222   2.478   4.893   6.293  0.5302  0.0756 -0.5333
13269TIP3    H261223   2.516   4.807   6.412 -1.3116 -0.0112  0.0181
13270TIP3   OH261224   6.026   2.838   5.457 -0.2677  0.4153  0.5115
13270TIP3    H161225   5.990   2.784   5.387  0.0029  0.6430  0.1971
13270TIP3    H261226   6.009   2.788   5.537 -2.0654  0.8840  0.4720
13271TIP3   OH261227   2.718   4.580  12.736 -0.4708  0.1338 -0.3489
13271TIP3    H161228   2.719   4.629  12.818 -0.8210 -2.9550  1.6492
13271TIP3    H261229   2.628   4.549  12.727  0.0609 -1.4073 -0.6940
13272TIP3   OH261230   2.139   0.932   0.976  0.2842 -0.0567 -0.5321
13272TIP3    H161231   2.054   0.909   0.940  0.3717 -0.3483 -0.5593
13272TIP3    H261232   2.159   0.861   1.037  0.2961  0.2503 -0.1723
13273TIP3   OH261233   5.207   3.057  15.577  0.2801 -0.2677 -0.3241
13273TIP3    H161234   5.191   2.987  15.640 -0.8485  0.2257 -0.0273
13273TIP3    H261235   5.219   3.135  15.631  1.5148 -0.2047 -0.6519
13274TIP3   OH261236   1.950   0.353   3.260  0.5294  0.0137  0.7136
13274TIP3    H161237   1.855   0.363   3.259  0.5822  0.5233 -0.2743
13274TIP3    H261238   1.980   0.412   3.329  0.2889  1.5038 -0.4281
13275TIP3   OH261239   2.390   1.215   3.943  0.6692  0.3644 -0.0294
13275TIP3    H161240   2.332   1.161   3.996 -0.1077  0.3631 -0.8509
13275TIP3    H261241   2.380   1.303   3.978  0.5747  0.2728  0.1734
13276TIP3   OH261242   2.784   5.577   5.563  0.0510  0.1779  0.2579
13276TIP3    H161243   2.775   5.615   5.650 -0.2710 -0.0569  0.3293
13276TIP3    H261244   2.695   5.557   5.536  0.1843 -0.1768  0.0661
13277TIP3   OH261245   0.653   3.161   0.208 -0.4827 -0.2435 -0.0949
13277TIP3    H161246   0.574   3.118   0.240 -0.9759 -0.0663 -1.0514
13277TIP3    H261247   0.621   3.239   0.163  0.2186 -0.3066 -0.7178
13278TIP3   OH261248   3.060   6.570   2.688 -0.1169  0.3143  0.2042
13278TIP3    H161249   3.001   6.507   2.647  0.0018  0.7216 -0.5973
13278TIP3    H261250   3.076   6.636   2.621  0.1740  0.9265  0.8682
13279TIP3   OH261251   4.664   6.340   0.761  0.4674  0.0494  0.6195
13279TIP3    H161252   4.738   6.287   0.731  0.5306  0.9192 -0.8630
13279TIP3    H261253   4.662   6.414   0.701 -2.4921 -0.6581 -0.3268
13280TIP3   OH261254   3.157   1.434  10.582 -0.2026 -0.0124 -0.1702
13280TIP3    H161255   3.075   1.450  10.628 -0.7380 -0.2469 -1.0288
13280TIP3    H261256   3.224   1.474  10.638 -0.9298  0.4653  0.3756
13281TIP3   OH261257   2.570   6.038   4.712 -0.2333  0.2944  0.1079
13281TIP3    H161258   2.577   5.960   4.767 -0.2699  0.4823  0.3823
13281TIP3    H261259   2.596   6.110   4.769 -0.8341  0.5632  0.0577
13282TIP3   OH261260   3.984   3.308   4.412  0.4382 -0.2671  0.1921
13282TIP3    H161261   3.919   3.378   4.419 -0.8909 -1.5125  0.8186
13282TIP3    H261262   3.933   3.231   4.388  1.8121 -1.1200 -0.0389
13283TIP3   OH261263   5.915   5.585   0.705 -0.3895  0.1908  0.1548
13283TIP3    H161264   5.860   5.606   0.780 -0.9251  4.1763 -1.0967
13283TIP3    H261265   6.003   5.581   0.740 -0.6672  1.6826  1.1332
13284TIP3   OH261266   5.813   6.575   6.001  0.2002 -0.2809  0.4088
13284TIP3    H161267   5.767   6.504   5.957  0.5909  0.5085 -1.4024
13284TIP3    H261268   5.851   6.536   6.079 -0.3119 -1.8480 -0.0998
13285TIP3   OH261269   2.924   4.278  13.840  0.2698 -0.4146  0.6044
13285TIP3    H161270   2.988   4.224  13.886 -1.4711 -2.5490  0.6934
13285TIP3    H261271   2.935   4.255  13.747  0.3016 -0.0344  0.5134
13286TIP3   OH261272   5.599   0.539  14.613 -0.7590 -0.0343  0.4926
13286TIP3    H161273   5.645   0.558  14.695 -0.2599  1.7647 -0.1735
13286TIP3    H261274   5.596   0.443  14.610  0.2778 -0.1572  2.0213
13287TIP3   OH261275   2.375   2.753  14.118 -0.1307  0.7358  0.3971
13287TIP3    H161276   2.391   2.716  14.031  0.9364  0.2909  0.7737
13287TIP3    H261277   2.429   2.701  14.177 -1.6987  0.2811  1.5078
13288TIP3   OH261278   1.319   0.106  14.168  0.3588  0.0949  0.2619
13288TIP3    H161279   1.367   0.189  14.179 -0.4988  0.6276  0.1092
13288TIP3    H261280   1.275   0.116  14.084 -0.1451 -0.3151  0.4748
13289TIP3   OH261281   6.369   0.519  11.426  0.3061  0.1700 -0.1976
13289TIP3    H161282   6.358   0.612  11.404 -1.1341 -0.0384 -0.4143
13289TIP3    H261283   6.291   0.497  11.476  1.2944 -0.5928  1.0621
13290TIP3   OH261284   3.888   3.121  14.186 -1.0423  0.0974  0.3783
13290TIP3    H161285   3.820   3.117  14.119 -0.5368  2.6240 -0.3784
13290TIP3    H261286   3.948   3.051  14.163 -2.7798 -1.4944  0.4310
13291TIP3   OH261287   4.271   6.638   0.104  0.3158 -0.2870 -0.0179
13291TIP3    H161288   4.350   6.629   0.157  0.1174 -2.2658  0.0220
13291TIP3    H261289   4.276   6.565   0.042 -0.2857  1.0035 -1.6430
13292TIP3   OH261290   4.300   3.306  13.009  0.1641  0.2579  0.3391
13292TIP3    H161291   4.394   3.290  13.016 -0.2740 -2.2581  1.5478
13292TIP3    H261292   4.283   3.379  13.069  1.1247 -0.3188  1.3361
13293TIP3   OH261293   0.173   2.933   2.850 -0.6618 -0.2697 -0.1515
13293TIP3    H161294   0.192   3.026   2.865 -0.8426 -0.4051  1.0173
13293TIP3    H261295   0.102   2.933   2.786  0.1872  0.3535 -1.1284
13294TIP3   OH261296   5.464   3.770   4.695 -0.2423 -0.2786  0.0863
13294TIP3    H161297   5.407   3.847   4.692 -0.4299 -0.4229 -0.0561
13294TIP3    H261298   5.465   3.745   4.788  2.2060  1.6725  0.6951
13295TIP3   OH261299   1.373   2.833   3.062 -0.1755  0.5994  0.3104
13295TIP3    H161300   1.309   2.840   2.991  1.7122  1.8450 -1.4165
13295TIP3    H261301   1.424   2.754   3.040  0.4346  1.0055  0.2282
13296TIP3   OH261302   4.605   2.469  10.755  0.1739  0.0704 -0.4111
13296TIP3    H161303   4.586   2.407  10.685  0.3013 -0.0673 -0.3268
13296TIP3    H261304   4.520   2.490  10.794  0.0497  0.5249 -0.9203
13297TIP3   OH261305   0.570   2.712   1.013 -0.5517  0.0966 -0.7981
13297TIP3    H161306   0.497   2.741   1.069 -0.2974  1.1721 -1.0085
13297TIP3    H261307   0.527   2.668   0.939 -1.0098  0.9984 -1.0800
13298TIP3   OH261308   0.149   6.191  12.555  0.2288  0.1264  0.1057
13298TIP3    H161309   0.188   6.265  12.509  0.5933 -0.2448 -0.1850
13298TIP3    H261310   0.165   6.209  12.648  0.2112  0.4673  0.0428
13299TIP3   OH261311   2.288   1.441   3.714 -0.5420  0.4778 -0.4550
13299TIP3    H161312   2.261   1.438   3.806  1.5501  0.8677  0.2148
13299TIP3    H261313   2.344   1.364   3.703  0.5163  1.2917 -0.9416
13300TIP3   OH261314   0.414   5.345   5.353  0.3998  0.5074 -0.0123
13300TIP3    H161315   0.343   5.395   5.393  0.9305  2.8467 -1.8128
13300TIP3    H261316   0.371   5.296   5.282  0.3943  1.1142 -0.4373
13301TIP3   OH261317   0.089   6.106  16.387  0.4239 -0.4991  0.0588
13301TIP3    H161318   0.148   6.180  16.406  0.5776 -1.1517  2.3760
13301TIP3    H261319   0.026   6.142  16.324  0.4686  1.6361  1.1295
13302TIP3   OH261320   4.024   3.814  16.032  1.1308  0.2087  0.1021
13302TIP3    H161321   4.109   3.857  16.027  1.8280 -1.1765 -0.3624
13302TIP3    H261322   4.002   3.792  15.942  0.6152 -0.0959  0.2929
13303TIP3   OH261323   1.838   3.206  17.015  0.0361  0.2401  0.5783
13303TIP3    H161324   1.841   3.277  16.951 -0.8354  0.2718  0.5619
13303TIP3    H261325   1.748   3.173  17.010  0.6942 -1.6046 -0.2341
13304TIP3   OH261326   1.266   0.845  12.377 -0.7141 -0.4916  0.1956
13304TIP3    H161327   1.260   0.755  12.343 -0.5857 -1.4103  2.3953
13304TIP3    H261328   1.181   0.860  12.418  0.1905 -0.7499  2.3004
13305TIP3   OH261329   2.484   3.594  13.416 -0.4760  0.1797 -0.9569
13305TIP3    H161330   2.549   3.528  13.438 -0.0566  0.7763 -0.3668
13305TIP3    H261331   2.470   3.583  13.322  0.4967  0.0463 -1.1030
13306TIP3   OH261332   5.787   2.762  13.793 -0.4889  0.3680  0.3407
13306TIP3    H161333   5.858   2.788  13.735 -1.8719 -0.0913 -1.6342
13306TIP3    H261334   5.823   2.773  13.881  1.1758  2.5497 -0.5354
13307TIP3   OH261335   1.762   3.264   2.302 -0.0274 -0.3421 -0.1100
13307TIP3    H161336   1.677   3.248   2.260 -0.3867 -1.6300  1.0366
13307TIP3    H261337   1.773   3.191   2.363  2.4252 -0.8152 -0.9954
13308TIP3   OH261338   2.394   4.820  11.600  0.1545 -0.1313  0.3835
13308TIP3    H161339   2.365   4.798  11.688 -0.8292  0.2254  0.1583
13308TIP3    H261340   2.481   4.858  11.612 -0.9577  2.2153  1.4535
13309TIP3   OH261341   3.805   1.026  11.498 -0.0344  0.5249 -0.2259
13309TIP3    H161342   3.791   0.933  11.483 -0.3772  0.5816 -0.2594
13309TIP3    H261343   3.726   1.069  11.465  0.6746  0.9520 -1.4430
13310TIP3   OH261344   5.182   1.737  15.958  0.0482 -0.0427 -0.0982
13310TIP3    H161345   5.135   1.718  15.877  1.7884 -2.1877 -0.6798
13310TIP3    H261346   5.117   1.721  16.027 -1.4406  1.7692 -0.9703
13311TIP3   OH261347   3.692   1.200   1.162  0.0553  0.2556 -0.1587
13311TIP3    H161348   3.643   1.170   1.085  1.5976 -0.5059 -0.8918
13311TIP3    H261349   3.699   1.294   1.150 -2.5106  0.6486  0.7750
13312TIP3   OH261350   5.118   6.573   3.901 -0.2058 -0.2783  0.1754
13312TIP3    H161351   5.073   6.599   3.821 -1.4304 -2.5431  0.0453
13312TIP3    H261352   5.177   6.646   3.921 -0.5697  0.7457 -2.2332
13313TIP3   OH261353   6.767   1.832  14.571  0.0085 -0.5575  0.0726
13313TIP3    H161354   6.821   1.845  14.493 -0.1740  0.8149  0.1428
13313TIP3    H261355   6.829   1.814  14.641  0.3565  0.3827  0.0248
13314TIP3   OH261356   5.433   5.102   4.420  0.3545  0.4858  0.3527
13314TIP3    H161357   5.351   5.122   4.466 -0.2592  3.1178 -1.6676
13314TIP3    H261358   5.421   5.012   4.389 -2.6001  1.3072 -1.3264
13315TIP3   OH261359   0.253   2.801  13.735  0.1449 -0.4355  0.2690
13315TIP3    H161360   0.185   2.754  13.688 -0.0949 -0.2949  0.4729
13315TIP3    H261361   0.246   2.770  13.825 -3.1156  3.2428  1.5716
13316TIP3   OH261362   5.752   6.583  10.854  0.0255 -0.3932  0.7620
13316TIP3    H161363   5.768   6.489  10.844 -1.3871 -0.8116  1.9769
13316TIP3    H261364   5.838   6.621  10.871  0.6712 -1.3875 -0.1497
13317TIP3   OH261365   4.683   1.794   6.449  0.6518  0.2105  0.0565
13317TIP3    H161366   4.602   1.787   6.399 -0.0826  2.1894  0.8515
13317TIP3    H261367   4.678   1.881   6.490  3.8338  1.0528 -1.0296
13318TIP3   OH261368   0.084   1.699   0.932  0.8226 -0.2319 -0.6108
13318TIP3    H161369   0.168   1.674   0.894  0.1895  0.1874 -2.3902
13318TIP3    H261370   0.105   1.734   1.018  2.3613 -1.0493 -0.6389
13319TIP3   OH261371   1.733   3.903  16.935 -0.3376  0.0770  0.1031
13319TIP3    H161372   1.726   3.970  17.003 -1.0551  0.5024 -0.3703
13319TIP3    H261373   1.688   3.941  16.860  1.2163 -0.0113 -0.9063
13320TIP3   OH261374   4.056   5.100   0.457  0.3910 -0.1430 -0.4448
13320TIP3    H161375   4.107   5.136   0.385  1.4164  0.0740  0.3601
13320TIP3    H261376   4.109   5.118   0.535 -1.6177  1.4436  0.6213
13321TIP3   OH261377   0.667   3.311  17.097 -0.1798 -0.3001  0.3102
13321TIP3    H161378   0.673   3.216  17.110 -1.9997 -0.3418  1.2017
13321TIP3    H261379   0.644   3.321  17.004  2.0620 -0.5707 -0.3456
13322TIP3   OH261380   0.362   4.203  16.500  0.3617  0.1801  0.6377
13322TIP3    H161381   0.333   4.147  16.428 -0.1248  0.1971  0.8159
13322TIP3    H261382   0.387   4.142  16.569 -1.9071  0.1739  1.5129
13323TIP3   OH261383   0.465   5.026  10.642  0.4959 -0.3275  0.2137
13323TIP3    H161384   0.470   4.946  10.590 -4.4354 -1.3168  0.7599
13323TIP3    H261385   0.458   4.995  10.732 -1.2133  0.5899  0.4526
13324TIP3   OH261386   5.339   4.513   1.791 -0.0133 -0.0088  0.7785
13324TIP3    H161387   5.279   4.465   1.848 -0.8333 -1.6735 -1.3213
13324TIP3    H261388   5.282   4.552   1.724  1.1047 -1.1308 -0.9189
13325TIP3   OH261389   2.306   4.209  12.355  0.2811 -0.0221 -0.2357
13325TIP3    H161390   2.333   4.292  12.316 -0.7568 -0.1182 -1.2101
13325TIP3    H261391   2.388   4.164  12.375  0.8499  0.8309 -0.5953
13326TIP3   OH261392   0.516   0.439  11.662  0.0501 -0.0519 -0.1150
13326TIP3    H161393   0.567   0.497  11.605  1.0231  0.3066  1.0805
13326TIP3    H261394   0.426   0.447  11.630 -0.0220  2.8780  0.5699
13327TIP3   OH261395   2.214   3.235   1.821  0.4567  0.0743 -0.2798
13327TIP3    H161396   2.147   3.220   1.888 -0.2747  0.6199 -0.8763
13327TIP3    H261397   2.192   3.320   1.784  2.7569  1.3063  0.9732
13328TIP3   OH261398   5.293   0.051  13.350 -0.3513  1.1632 -0.4061
13328TIP3    H161399   5.322  -0.016  13.287 -0.2099  1.2780 -0.4651
13328TIP3    H261400   5.210   0.082  13.315 -0.7909  0.4882  0.0222
13329TIP3   OH261401   6.199   3.039   1.901 -0.0191  0.5675 -0.9892
13329TIP3    H161402   6.175   3.066   1.990 -1.9227 -1.7004 -0.7047
13329TIP3    H261403   6.288   3.005   1.910 -0.3510 -0.0753  0.1921
13330TIP3   OH261404   2.394   0.899  11.346  0.1973  0.2701 -0.0785
13330TIP3    H161405   2.372   0.815  11.385 -1.8347  0.3149 -1.0005
13330TIP3    H261406   2.377   0.887  11.252  0.5089  1.5136 -0.3134
13331TIP3   OH261407   5.798   5.843   4.661  0.0132  0.2365 -0.5256
13331TIP3    H161408   5.718   5.877   4.621 -0.0789 -1.0893 -1.5259
13331TIP3    H261409   5.782   5.749   4.673  0.8449  0.2192  0.7058
13332TIP3   OH261410   2.810   2.607  14.806 -0.1270 -0.1634  0.1756
13332TIP3    H161411   2.838   2.537  14.747  0.7112 -0.1150  0.4981
13332TIP3    H261412   2.715   2.609  14.799 -0.1589 -1.3484  0.1706
13333TIP3   OH261413   0.199   5.677  15.253 -0.6573  0.0867  0.3950
13333TIP3    H161414   0.225   5.701  15.164  0.1174  2.1425  1.1080
13333TIP3    H261415   0.259   5.606  15.277  1.7038  1.9582  0.5099
13334TIP3   OH261416   0.743   4.664   2.786  0.1131 -0.1912  0.1260
13334TIP3    H161417   0.709   4.622   2.707 -1.1103 -0.3625  0.7071
13334TIP3    H261418   0.801   4.733   2.754  0.3524 -0.8374 -0.8885
13335TIP3   OH261419   6.131   1.284  16.168 -0.5028  0.0982 -0.5270
13335TIP3    H161420   6.199   1.249  16.110  0.1758 -0.4221  0.5441
13335TIP3    H261421   6.109   1.370  16.131 -1.5831 -1.0344 -2.7178
13336TIP3   OH261422   2.641   2.998  16.530 -0.3382 -0.1854  0.3067
13336TIP3    H161423   2.577   2.926  16.524 -0.8075  0.2589 -0.1245
13336TIP3    H261424   2.623   3.052  16.453  0.9635 -0.3760 -0.1564
13337TIP3   OH261425   3.986   0.994   1.868  0.2914 -0.3549  0.2094
13337TIP3    H161426   3.995   0.941   1.947 -1.7434 -0.4034  0.4722
13337TIP3    H261427   3.892   0.992   1.849  0.2643  2.3534 -0.3248
13338TIP3   OH261428   4.314   1.559  14.313 -0.1836 -0.4675 -0.1500
13338TIP3    H161429   4.341   1.650  14.298 -1.4953  0.4026  2.2412
13338TIP3    H261430   4.333   1.515  14.230  0.9703  1.8427 -1.2243
13339TIP3   OH261431   1.322   1.977  11.947  0.1916  0.1698 -0.8446
13339TIP3    H161432   1.230   1.984  11.973  0.5677  0.3504  0.4647
13339TIP3    H261433   1.335   2.051  11.887  0.5305  2.7569  2.1997
13340TIP3   OH261434   3.869   2.004   0.461  0.1239  0.6569 -0.3660
13340TIP3    H161435   3.786   1.963   0.437  0.6595 -1.1844  0.7003
13340TIP3    H261436   3.865   2.010   0.557  1.3138  0.2747 -0.2770
13341TIP3   OH261437   1.471   4.251   0.221  0.1706 -0.0362  0.4069
13341TIP3    H161438   1.531   4.323   0.201  0.1550 -0.1841 -0.1802
13341TIP3    H261439   1.389   4.294   0.244 -0.1623  0.1242 -0.9879
13342TIP3   OH261440   0.686   4.785  11.886  0.2018  0.0775  0.9073
13342TIP3    H161441   0.652   4.874  11.894 -1.0161  0.0659 -2.5271
13342TIP3    H261442   0.765   4.794  11.833 -0.4869 -0.9430 -0.3397
13343TIP3   OH261443   1.412   6.538   5.233 -0.1456  0.1004 -0.2396
13343TIP3    H161444   1.427   6.446   5.253  1.5326  0.8848  2.9232
13343TIP3    H261445   1.388   6.577   5.318 -2.1604  2.3678 -1.7151
13344TIP3   OH261446   5.573   5.528  14.542  0.5180  0.0876  0.2736
13344TIP3    H161447   5.606   5.494  14.459  0.8263  0.7776  0.1018
13344TIP3    H261448   5.573   5.623  14.531  1.6556  0.2706  1.4511
13345TIP3   OH261449   3.458   4.699  13.808  0.3193  0.8505  0.3312
13345TIP3    H161450   3.366   4.684  13.788  0.2753  3.3790 -1.8748
13345TIP3    H261451   3.504   4.629  13.761 -0.3822 -0.2151  1.1580
13346TIP3   OH261452   1.496   1.579   4.053  0.0668  0.0491 -0.3867
13346TIP3    H161453   1.575   1.592   4.001  1.9346  1.4178  2.4840
13346TIP3    H261454   1.481   1.485   4.053  1.2518 -0.1597 -1.6083
13347TIP3   OH261455   3.502   1.932  12.767 -0.3928 -0.3770 -0.4587
13347TIP3    H161456   3.502   1.843  12.732  1.3398 -1.3253  1.6886
13347TIP3    H261457   3.570   1.977  12.717 -0.1583 -0.7660 -0.5024
13348TIP3   OH261458   0.284   3.283  11.575  0.2399  0.8128  0.6882
13348TIP3    H161459   0.243   3.280  11.661 -2.5191 -0.6958 -0.5629
13348TIP3    H261460   0.319   3.195  11.561  1.6460  1.3462  0.6408
13349TIP3   OH261461   0.585   1.137   4.729  0.2790  0.2901  0.2864
13349TIP3    H161462   0.534   1.077   4.783 -1.1719  0.1795 -1.1409
13349TIP3    H261463   0.601   1.089   4.648 -0.2593  1.5355 -0.5871
13350TIP3   OH261464   4.634   4.465  12.230  0.1224  0.2845 -0.2034
13350TIP3    H161465   4.683   4.418  12.297 -0.7851 -0.9018 -0.3379
13350TIP3    H261466   4.691   4.538  12.204  1.1046 -0.1208  0.7752
13351TIP3   OH261467   5.524   2.755  10.857  0.0565 -0.0666 -0.3653
13351TIP3    H161468   5.564   2.751  10.944 -0.5254  0.5535 -0.0651
13351TIP3    H261469   5.509   2.663  10.834 -0.9472 -0.2056  0.7379
13352TIP3   OH261470   1.656   5.300   5.906 -0.3297  0.1538 -0.0585
13352TIP3    H161471   1.596   5.280   5.977  0.3478 -1.1946  0.1650
13352TIP3    H261472   1.688   5.388   5.925 -0.4936 -0.0207  1.0693
13353TIP3   OH261473   5.485   4.297  16.546  0.7239 -0.1053  0.4780
13353TIP3    H161474   5.445   4.289  16.632 -1.0991 -0.2305 -0.3374
13353TIP3    H261475   5.429   4.246  16.488  1.9876 -0.1380 -0.7737
13354TIP3   OH261476   4.754   0.803  14.397  0.3652 -0.1860  0.5060
13354TIP3    H161477   4.662   0.785  14.378  0.1111  2.5244 -1.4050
13354TIP3    H261478   4.798   0.801  14.312  1.8351 -0.0828  1.2176
13355TIP3   OH261479   4.437   4.564  12.069  0.5480  0.3619 -0.0384
13355TIP3    H161480   4.482   4.535  11.989  0.1487 -1.4687  0.3523
13355TIP3    H261481   4.498   4.541  12.140  0.0783  0.1841  0.3126
13356TIP3   OH261482   3.070   0.130  16.027  0.4887 -0.5709 -0.1061
13356TIP3    H161483   3.051   0.082  16.107  1.9696  0.4231  0.8862
13356TIP3    H261484   3.162   0.155  16.035  0.5962 -0.1954 -1.9966
13357TIP3   OH261485   2.831   6.790  13.813  0.4094 -0.4613  0.4323
13357TIP3    H161486   2.818   6.761  13.904 -0.3215  0.0417  0.4946
13357TIP3    H261487   2.926   6.796  13.803  0.4855  0.3612  1.4536
13358TIP3   OH261488   5.725   5.603   0.508 -0.2620  0.3274  0.4193
13358TIP3    H161489   5.661   5.547   0.552  0.4273 -1.6493 -0.9430
13358TIP3    H261490   5.796   5.612   0.572  0.5238 -2.1239  0.0029
13359TIP3   OH261491   6.785   3.797  11.564 -0.6256  0.2299 -0.1965
13359TIP3    H161492   6.690   3.781  11.566 -0.5742 -0.1719 -0.5544
13359TIP3    H261493   6.823   3.710  11.549 -0.3010  0.6279 -1.8739
13360TIP3   OH261494   3.082   3.596   5.328 -0.1182  0.3079  0.3234
13360TIP3    H161495   3.073   3.532   5.258 -1.6047 -0.7611  1.4120
13360TIP3    H261496   3.085   3.544   5.408 -0.7380  1.5616  1.2031
13361TIP3   OH261497   3.246   3.460  15.617 -0.3935  0.2463 -0.6728
13361TIP3    H161498   3.227   3.394  15.684  0.2443  0.1974 -0.5345
13361TIP3    H261499   3.194   3.432  15.541  0.1695 -0.6436 -0.7499
13362TIP3   OH261500   0.803   2.706  14.358  0.0639 -0.1917  0.2673
13362TIP3    H161501   0.835   2.794  14.381 -0.6712 -0.1488  1.1797
13362TIP3    H261502   0.837   2.691  14.270  1.5806  0.3454  0.7246
13363TIP3   OH261503   2.333   1.758  12.936  0.0413 -0.2489 -0.1756
13363TIP3    H161504   2.373   1.833  12.980 -1.4849 -1.2500  3.2460
13363TIP3    H261505   2.253   1.740  12.987 -1.3991 -2.2035 -2.8579
13364TIP3   OH261506   4.362   5.547   4.773 -0.6710  0.0875  0.2184
13364TIP3    H161507   4.384   5.455   4.788  0.8468  0.3463 -0.2420
13364TIP3    H261508   4.267   5.550   4.780 -0.7081 -1.4136  0.7915
13365TIP3   OH261509   5.784   6.181   4.732  0.2364  0.0492 -0.4389
13365TIP3    H161510   5.842   6.143   4.665  2.0045 -0.3639  1.2150
13365TIP3    H261511   5.761   6.107   4.788  1.4027  0.8462  1.1950
13366TIP3   OH261512   2.457   4.254  10.898  0.3419  0.4237 -0.3957
13366TIP3    H161513   2.436   4.342  10.866  1.1635  0.9518  0.4502
13366TIP3    H261514   2.480   4.205  10.819 -0.2989  0.9084 -0.8983
13367TIP3   OH261515   3.753   1.469  16.742  0.3236  0.3749  0.6796
13367TIP3    H161516   3.804   1.550  16.744 -2.2353  2.1313  1.5628
13367TIP3    H261517   3.706   1.472  16.659 -1.7136  1.2087  1.7859
13368TIP3   OH261518   0.491   3.207   6.170 -0.7067 -0.7090 -0.0712
13368TIP3    H161519   0.436   3.279   6.140  0.1993  1.3048  2.7146
13368TIP3    H261520   0.577   3.226   6.133 -1.0058 -1.8997 -1.4857
13369TIP3   OH261521   0.684   6.278   4.063 -0.3842  0.5120  0.3883
13369TIP3    H161522   0.659   6.369   4.081 -1.8132  0.3060 -0.3808
13369TIP3    H261523   0.719   6.246   4.146  0.4644  1.8487  0.5779
13370TIP3   OH261524   1.822   2.739   0.719  0.3539  0.1440 -0.1196
13370TIP3    H161525   1.789   2.828   0.733  1.4575  0.1948  2.5348
13370TIP3    H261526   1.916   2.750   0.705  0.3105 -0.5362 -1.0496
13371TIP3   OH261527   6.701   5.735   3.241  0.3023  0.5578 -0.2672
13371TIP3    H161528   6.667   5.696   3.160 -1.7152  2.5744 -0.4990
13371TIP3    H261529   6.719   5.661   3.298 -3.3291 -0.8540 -0.6652
13372TIP3   OH261530   3.926   2.290  11.718  0.0564 -0.3105 -0.2245
13372TIP3    H161531   3.942   2.297  11.624  0.8468 -0.5160 -0.1138
13372TIP3    H261532   3.892   2.376  11.743 -2.6944 -1.0334 -1.1444
13373TIP3   OH261533   0.262   2.557   5.008 -0.1884  0.1313  0.6892
13373TIP3    H161534   0.327   2.537   4.940  0.7245  2.5512  0.7828
13373TIP3    H261535   0.299   2.521   5.088  1.6107  2.3658  0.9362
13374TIP3   OH261536   4.801   6.229  11.080  0.0563 -0.0950 -0.2876
13374TIP3    H161537   4.853   6.258  11.155 -0.1567 -1.3213  0.3712
13374TIP3    H261538   4.733   6.173  11.118  0.3497 -1.2927 -1.4277
13375TIP3   OH261539   3.131   5.212   1.690  0.1154  0.5681  0.6764
13375TIP3    H161540   3.156   5.223   1.599 -0.0869  0.9412  0.6620
13375TIP3    H261541   3.212   5.192   1.736 -0.1020 -2.2988  0.0254
13376TIP3   OH261542   5.219   2.710  16.436  0.5959  0.2232  0.2332
13376TIP3    H161543   5.292   2.679  16.382  0.1509  0.7465 -0.6868
13376TIP3    H261544   5.180   2.782  16.386 -1.1974 -0.7072  0.1835
13377TIP3   OH261545   6.298   3.765   0.734 -0.2438  0.1979 -0.0119
13377TIP3    H161546   6.322   3.720   0.815  0.3393 -2.3692 -1.4742
13377TIP3    H261547   6.382   3.798   0.700 -0.7978  3.6424  1.6085
13378TIP3   OH261548   1.291   0.563  14.364 -0.0906  0.4890  0.3147
13378TIP3    H161549   1.245   0.507  14.426 -2.0297  2.3355  0.6267
13378TIP3    H261550   1.244   0.550  14.281 -0.9497  2.0620  0.5332
13379TIP3   OH261551   3.764   5.721   1.408 -0.2536 -0.0196 -0.4553
13379TIP3    H161552   3.726   5.708   1.321 -0.8318  1.2028 -0.4043
13379TIP3    H261553   3.694   5.696   1.469 -0.8565  1.7379 -0.3635
13380TIP3   OH261554   1.941   0.063  11.237  0.3100  0.4049 -0.1478
13380TIP3    H161555   1.928   0.157  11.223  0.4755  0.5946  0.8992
13380TIP3    H261556   1.979   0.057  11.325 -0.4719 -0.6964  0.1319
13381TIP3   OH261557   0.309   0.186  11.747  0.2479  0.7063 -0.1618
13381TIP3    H161558   0.309   0.246  11.672 -0.3991  0.3977 -0.4209
13381TIP3    H261559   0.271   0.236  11.818 -0.0951  0.6765 -0.3211
13382TIP3   OH261560   0.718   1.577   5.794 -0.5617  0.0107  0.2041
13382TIP3    H161561   0.646   1.513   5.798 -0.8265  0.3240  0.4434
13382TIP3    H261562   0.712   1.613   5.705  0.5171 -1.3637 -0.4635
13383TIP3   OH261563   2.459   0.405  11.854 -0.0210 -0.0075 -0.0203
13383TIP3    H161564   2.406   0.432  11.779 -0.5998  1.4367  0.8678
13383TIP3    H261565   2.417   0.325  11.885 -0.4040 -0.0463 -0.6173
13384TIP3   OH261566   1.343   2.937   2.498 -0.3361 -0.1365  0.2884
13384TIP3    H161567   1.269   2.932   2.438 -0.0348 -0.0020 -0.1003
13384TIP3    H261568   1.348   3.030   2.523 -0.8913 -0.3036  1.0817
13385TIP3   OH261569   3.220   0.458  16.480 -0.4531  0.1350 -0.0348
13385TIP3    H161570   3.242   0.515  16.554 -0.9676 -0.6365  0.7283
13385TIP3    H261571   3.254   0.372  16.504  0.9583  0.2432 -1.5022
13386TIP3   OH261572   3.632   2.042  13.797  0.0380  0.0331  0.2368
13386TIP3    H161573   3.604   1.999  13.716 -0.2087  0.6079  0.0174
13386TIP3    H261574   3.598   2.131  13.790  1.4810  0.5960  0.2091
13387TIP3   OH261575   0.556   1.535   2.251  0.0259 -0.0422 -0.0842
13387TIP3    H161576   0.572   1.628   2.267  0.6240 -0.1846  0.1665
13387TIP3    H261577   0.552   1.496   2.339  2.0474 -0.6221 -0.1932
13388TIP3   OH261578   6.334   1.837   6.541  0.1451  0.7598  0.6996
13388TIP3    H161579   6.412   1.806   6.494  1.5933  0.8352  2.8856
13388TIP3    H261580   6.272   1.765   6.535  0.5525  0.5008 -0.7017
13389TIP3   OH261581   3.854   5.052   0.247 -0.7201  0.1196  0.2257
13389TIP3    H161582   3.912   5.068   0.174 -0.6967 -1.0572 -0.0401
13389TIP3    H261583   3.911   5.051   0.324 -0.3855 -0.8253 -0.0105
13390TIP3   OH261584   0.471   6.565   2.665 -0.3535  0.3767 -0.6060
13390TIP3    H161585   0.526   6.620   2.609  0.1893  0.4538 -0.0069
13390TIP3    H261586   0.385   6.566   2.622  0.1245  0.1975 -1.5927
13391TIP3   OH261587   0.266   3.987   2.279 -0.6876  0.4902  0.1597
13391TIP3    H161588   0.343   3.951   2.322  0.3284  1.9260 -0.3957
13391TIP3    H261589   0.192   3.941   2.319  0.4619 -1.2249  0.3968
13392TIP3   OH261590   3.752   6.557  13.054 -0.1753 -0.4827 -0.0918
13392TIP3    H161591   3.840   6.578  13.083  0.0510 -0.8016 -0.5317
13392TIP3    H261592   3.722   6.635  13.008 -0.5183  0.0084  0.9292
13393TIP3   OH261593   2.286   0.619   4.015 -0.0235  0.0642  1.0232
13393TIP3    H161594   2.269   0.577   4.100  0.6250 -1.7459  0.3178
13393TIP3    H261595   2.347   0.560   3.971 -1.8134 -0.0965 -1.4871
13394TIP3   OH261596   6.226   5.781   5.331 -0.2192  0.0635  0.1196
13394TIP3    H161597   6.272   5.787   5.415  0.5325 -1.7193 -0.1285
13394TIP3    H261598   6.159   5.850   5.335  1.8601  2.1802  0.8591
13395TIP3   OH261599   2.239   3.119  12.633  0.1205 -0.3358 -0.4614
13395TIP3    H161600   2.332   3.100  12.619  0.7003  1.7095  0.2884
13395TIP3    H261601   2.196   3.086  12.553  1.5925 -0.5691 -1.1942
13396TIP3   OH261602   2.623   1.297   4.507  0.5079 -0.1343 -0.1594
13396TIP3    H161603   2.709   1.295   4.467  1.0971 -0.0110  1.0724
13396TIP3    H261604   2.639   1.286   4.600 -0.9636 -2.6542 -0.0889
13397TIP3   OH261605   1.983   3.205  11.671 -0.3772  1.0787  0.7328
13397TIP3    H161606   1.898   3.180  11.634 -0.4576  1.1953  0.8369
13397TIP3    H261607   2.022   3.122  11.700 -1.1438  1.1811  2.1420
13398TIP3   OH261608   1.920   2.599  13.344  0.0110 -0.5541 -0.6905
13398TIP3    H161609   1.939   2.511  13.375 -1.8956 -2.0881 -3.4013
13398TIP3    H261610   1.954   2.601  13.255 -0.6151  1.1971 -0.9374
13399TIP3   OH261611   6.749   1.538   2.353 -0.5219 -0.0300 -0.0544
13399TIP3    H161612   6.763   1.501   2.440 -1.3361  0.3966  0.2692
13399TIP3    H261613   6.733   1.462   2.297  1.3607 -0.4113 -0.1266
13400TIP3   OH261614   4.248   4.681  15.217 -0.2660  0.1938  0.0881
13400TIP3    H161615   4.152   4.676  15.217 -0.4736  2.4607 -1.1680
13400TIP3    H261616   4.277   4.590  15.221 -2.4556 -0.5620  0.3804
13401TIP3   OH261617   3.809   6.002  14.751  0.4333  0.5077  0.6232
13401TIP3    H161618   3.883   6.058  14.773  0.9423 -0.2506  0.8921
13401TIP3    H261619   3.812   5.931  14.816 -0.3930  0.3516  0.5021
13402TIP3   OH261620   6.084   6.077  15.693 -0.2518  0.0227  0.1151
13402TIP3    H161621   6.083   6.134  15.771  0.2051  0.4328 -0.1692
13402TIP3    H261622   6.155   6.016  15.710 -1.0770 -0.8092  0.6525
13403TIP3   OH261623   3.854   2.788   1.548 -0.1614 -0.2233  0.2027
13403TIP3    H161624   3.788   2.854   1.570 -0.0742 -0.7182  2.1422
13403TIP3    H261625   3.889   2.760   1.633  2.1924 -0.3566 -0.7324
13404TIP3   OH261626   1.632   2.645  13.901  0.3570  0.0283 -0.1920
13404TIP3    H161627   1.556   2.625  13.847 -0.7986  0.3410  1.2451
13404TIP3    H261628   1.622   2.737  13.924  0.9025 -0.0572  0.4187
13405TIP3   OH261629   1.584   0.560   1.073 -0.0942  0.1128  0.2457
13405TIP3    H161630   1.662   0.547   1.126  0.8380  2.3795 -0.4918
13405TIP3    H261631   1.539   0.634   1.113 -0.2968  0.7221 -1.0382
13406TIP3   OH261632   1.786   0.208   6.118 -0.3210 -0.1680 -0.1678
13406TIP3    H161633   1.741   0.289   6.143 -0.3152 -0.3176  0.3270
13406TIP3    H261634   1.732   0.138   6.155 -0.0231 -0.3708 -0.1188
13407TIP3   OH261635   5.606   4.296  16.105  0.0807 -0.2152 -0.0773
13407TIP3    H161636   5.510   4.296  16.103  0.0691 -1.3118 -0.3300
13407TIP3    H261637   5.630   4.204  16.096  1.0983 -0.3320  2.7537
13408TIP3   OH261638   1.444   0.835   5.106  0.0683 -0.0359 -0.0465
13408TIP3    H161639   1.516   0.853   5.166  0.2922  0.9834 -0.6004
13408TIP3    H261640   1.366   0.868   5.152  0.4784  2.5810 -1.0635
13409TIP3   OH261641   4.162   3.653  15.511  0.2073 -0.0608  0.0299
13409TIP3    H161642   4.090   3.595  15.487 -0.4590  0.2394  1.1996
13409TIP3    H261643   4.237   3.595  15.524  0.2532 -0.3553 -1.4192
13410TIP3   OH261644   2.250   2.258  14.935 -0.6495  0.2118 -0.0466
13410TIP3    H161645   2.202   2.181  14.903  0.2997 -1.1027  1.5381
13410TIP3    H261646   2.333   2.222  14.968  0.2964  2.0788 -0.2961
13411TIP3   OH261647   2.899   6.504  11.619 -0.1077  0.8126  0.0614
13411TIP3    H161648   2.940   6.452  11.688  0.2954  1.0529  0.0066
13411TIP3    H261649   2.824   6.452  11.591  0.3833  0.1758 -0.1016
13412TIP3   OH261650   5.793   0.391   2.605 -0.1067 -0.1086  0.5323
13412TIP3    H161651   5.699   0.404   2.616 -0.5157 -1.1675 -1.3073
13412TIP3    H261652   5.810   0.416   2.514  1.6472  1.2630  1.1638
13413TIP3   OH261653   0.856   2.221   6.009  0.4229 -0.4766  0.7568
13413TIP3    H161654   0.786   2.259   6.061  0.5884 -1.2290  1.5547
13413TIP3    H261655   0.903   2.163   6.069  0.7602 -1.2023 -0.1666
13414TIP3   OH261656   4.850   1.660  14.566  0.4459 -0.1379  0.2115
13414TIP3    H161657   4.874   1.569  14.583 -0.3380 -0.0778  1.8431
13414TIP3    H261658   4.755   1.659  14.555  0.3022  0.5905  1.2102
13415TIP3   OH261659   4.333   3.527   0.219 -0.2187  0.2795  0.0750
13415TIP3    H161660   4.266   3.477   0.172  1.6497  0.3019 -2.9004
13415TIP3    H261661   4.284   3.596   0.264 -2.2530  0.4080 -2.0932
13416TIP3   OH261662   3.357   4.308  14.670 -0.3740 -0.0426 -0.7559
13416TIP3    H161663   3.274   4.300  14.716 -0.5492  0.9673 -0.8736
13416TIP3    H261664   3.338   4.367  14.597  0.6474  0.8960 -0.2827
13417TIP3   OH261665   0.207   5.003  12.745  0.0097  0.7069 -0.0141
13417TIP3    H161666   0.132   5.044  12.788 -0.2173  0.0684  0.2215
13417TIP3    H261667   0.212   5.045  12.659 -1.4782 -0.1954 -0.5859
13418TIP3   OH261668   4.086   1.927  15.702  0.4193  0.0687 -0.2799
13418TIP3    H161669   4.107   1.918  15.795  1.4662  1.4613 -0.3456
13418TIP3    H261670   4.160   1.886  15.657  0.8932  1.1292 -0.4929
13419TIP3   OH261671   5.200   2.952   2.051 -0.1715 -0.0219 -0.4156
13419TIP3    H161672   5.162   2.890   2.113 -1.8595  0.2989 -1.0692
13419TIP3    H261673   5.294   2.938   2.058 -0.3596 -0.6739  1.4800
13420TIP3   OH261674   4.621   0.677   0.951 -0.0748 -0.2932  0.1050
13420TIP3    H161675   4.644   0.770   0.957 -0.4039 -0.0935 -1.4089
13420TIP3    H261676   4.687   0.633   1.005 -0.4641  0.8770  1.6081
13421TIP3   OH261677   3.405   1.908   5.557 -0.3512 -0.2356  0.3833
13421TIP3    H161678   3.334   1.923   5.495  0.6044 -0.1731 -0.7180
13421TIP3    H261679   3.476   1.871   5.505  0.6713  0.3278  1.3206
13422TIP3   OH261680   0.640   2.387  11.407 -0.8002 -0.0789 -0.5372
13422TIP3    H161681   0.678   2.461  11.455 -0.3541 -0.1364 -0.7973
13422TIP3    H261682   0.683   2.389  11.321  0.1602 -1.4099 -0.1143
13423TIP3   OH261683   1.692   1.311   5.340  0.9523  0.1507  0.0019
13423TIP3    H161684   1.682   1.241   5.404 -0.3983 -1.0966 -1.4849
13423TIP3    H261685   1.614   1.366   5.352  0.7778  0.0061 -0.4222
13424TIP3   OH261686   1.710   1.535  14.479  0.0591  0.2288 -0.4706
13424TIP3    H161687   1.629   1.554  14.526  0.8827 -0.1323  1.1969
13424TIP3    H261688   1.725   1.441  14.493  1.6304  0.6142  0.7798
13425TIP3   OH261689   4.332   5.830  11.521 -0.3395  0.6667  0.1984
13425TIP3    H161690   4.252   5.821  11.470 -0.2427  1.2099 -0.0550
13425TIP3    H261691   4.314   5.781  11.602 -1.7147  2.4965  1.0621
13426TIP3   OH261692   0.816   5.386  14.305  0.3353 -0.1199  0.6818
13426TIP3    H161693   0.872   5.463  14.309  1.1419 -0.5366 -1.2520
13426TIP3    H261694   0.802   5.372  14.211 -2.1977 -0.6415  1.0825
13427TIP3   OH261695   6.640   6.746  13.414 -0.1782  0.5872 -0.5838
13427TIP3    H161696   6.566   6.806  13.421 -1.3588 -0.7463 -1.0570
13427TIP3    H261697   6.608   6.664  13.451  1.6503  0.4354  0.8001
13428TIP3   OH261698   3.158   2.550   1.429 -0.3424 -0.2010  0.1011
13428TIP3    H161699   3.133   2.622   1.487 -1.4693 -0.5455  0.0591
13428TIP3    H261700   3.246   2.574   1.398 -1.4583  2.2243 -1.5525
13429TIP3   OH261701   4.640   5.870   1.314 -0.1227 -0.4778  0.0259
13429TIP3    H161702   4.554   5.861   1.273  0.1649  0.5634 -0.8671
13429TIP3    H261703   4.684   5.938   1.263  1.1313 -0.7872  0.6426
13430TIP3   OH261704   6.046   1.233   1.277  0.4381  0.4777  0.0894
13430TIP3    H161705   6.097   1.252   1.198 -0.6890  0.5359 -0.6308
13430TIP3    H261706   6.113   1.215   1.344  1.4052 -1.1614 -1.2419
13431TIP3   OH261707   1.333   5.012  16.641  0.4364 -0.3765  0.3846
13431TIP3    H161708   1.348   5.076  16.710  0.2377 -1.0365  1.0583
13431TIP3    H261709   1.411   5.017  16.585 -0.0970  1.2865 -0.2780
13432TIP3   OH261710   5.837   5.903  13.537  0.4385  0.5989  0.3640
13432TIP3    H161711   5.808   5.829  13.483 -0.6584  0.1663  1.4847
13432TIP3    H261712   5.924   5.924  13.504 -0.0169  0.0944 -1.2799
13433TIP3   OH261713   3.943   1.633   0.754 -0.2283 -0.6989  0.4373
13433TIP3    H161714   3.875   1.566   0.751  0.3099 -1.2312 -1.5077
13433TIP3    H261715   3.956   1.658   0.662  1.6220 -0.0441  0.8396
13434TIP3   OH261716   3.266   5.549   1.484  0.1686 -0.0403 -0.3107
13434TIP3    H161717   3.335   5.602   1.444  1.9525 -0.8281  1.5204
13434TIP3    H261718   3.223   5.506   1.410  3.0578 -1.1786 -1.4685
13435TIP3   OH261719   0.698   0.380  15.617 -0.3999 -0.0788 -0.2164
13435TIP3    H161720   0.767   0.417  15.563  1.1596 -0.5362  1.3546
13435TIP3    H261721   0.683   0.292  15.581  0.8808 -0.5214  0.2529
13436TIP3   OH261722   1.774   5.657  15.013 -0.1486 -0.2067  0.2230
13436TIP3    H161723   1.760   5.667  14.919  3.0625  1.0647 -0.2476
13436TIP3    H261724   1.750   5.742  15.050 -1.2962 -0.6684  0.5936
13437TIP3   OH261725   3.469   2.703   4.924 -0.0763 -0.2771 -0.2013
13437TIP3    H161726   3.454   2.610   4.938 -2.2512 -0.2574 -1.9543
13437TIP3    H261727   3.512   2.709   4.839  0.4787  0.3246  0.1045
13438TIP3   OH261728   5.204   4.905  14.582  0.1865 -0.2450 -0.0388
13438TIP3    H161729   5.120   4.874  14.616  0.8938 -0.7355  1.3733
13438TIP3    H261730   5.187   4.930  14.492 -1.6497  0.4130  0.4530
13439TIP3   OH261731   3.455   2.701  16.247 -0.1008 -0.1980 -0.2593
13439TIP3    H161732   3.396   2.713  16.172 -1.9164  0.1888  1.1738
13439TIP3    H261733   3.438   2.775  16.304  2.2996  0.2911 -0.0485
13440TIP3   OH261734   3.076   3.638   5.627  0.1030 -0.2571  0.1235
13440TIP3    H161735   3.167   3.667   5.623  0.1282 -0.0585  1.4843
13440TIP3    H261736   3.039   3.688   5.700 -1.3675  0.3674 -0.9983
13441TIP3   OH261737   0.600   2.524   1.275 -0.3828 -0.3462 -0.2075
13441TIP3    H161738   0.604   2.619   1.264  0.9553 -0.7059 -4.1711
13441TIP3    H261739   0.661   2.506   1.347  0.2547  1.6842 -0.1757
13442TIP3   OH261740   4.704   4.089   3.742 -0.0716 -0.2128  0.3799
13442TIP3    H161741   4.720   4.183   3.750 -1.6350 -0.0023  1.5519
13442TIP3    H261742   4.746   4.052   3.820 -0.3576 -0.3469  0.4708
13443TIP3   OH261743   6.750   0.435  12.301 -0.1704  0.1560 -0.2444
13443TIP3    H161744   6.723   0.510  12.249  0.2709 -1.4406 -3.0109
13443TIP3    H261745   6.766   0.470  12.388  0.2138  3.2807 -1.4486
13444TIP3   OH261746   4.679   2.839  14.511 -0.1445 -0.1774  0.2262
13444TIP3    H161747   4.713   2.786  14.584 -0.4375 -1.8533 -0.8050
13444TIP3    H261748   4.587   2.812  14.503 -0.1243  0.0153 -0.7293
13445TIP3   OH261749   2.302   2.502  11.354 -0.0025  0.4689  0.0634
13445TIP3    H161750   2.369   2.538  11.413  0.5248 -0.1808 -0.1262
13445TIP3    H261751   2.347   2.431  11.308 -0.8322  0.0038 -0.0426
13446TIP3   OH261752   2.709   1.088   1.900 -0.4344  0.7498 -0.2936
13446TIP3    H161753   2.622   1.127   1.912 -0.0499  1.8274 -0.8548
13446TIP3    H261754   2.692   1.006   1.854 -1.3205 -0.1440  1.5111
13447TIP3   OH261755   3.773   5.635   0.691  0.2150  0.1401  0.3392
13447TIP3    H161756   3.682   5.653   0.715  0.4447  1.1283  0.5047
13447TIP3    H261757   3.819   5.623   0.774  0.1327 -0.9414  0.2401
13448TIP3   OH261758   2.429   3.296  13.309 -0.7942  0.3852 -0.0386
13448TIP3    H161759   2.405   3.238  13.237  0.2537  0.6800 -0.6544
13448TIP3    H261760   2.429   3.383  13.270  0.9649  0.4286 -0.0522
13449TIP3   OH261761   0.933   0.504  12.696  0.2495 -0.0165 -0.0504
13449TIP3    H161762   0.842   0.496  12.669  0.2784  0.7126 -0.3939
13449TIP3    H261763   0.957   0.417  12.727 -0.7433 -0.0565  0.6244
13450TIP3   OH261764   2.813   1.599  12.696 -0.1753 -0.2323  0.0381
13450TIP3    H161765   2.732   1.548  12.690 -0.6104  0.4513 -0.0591
13450TIP3    H261766   2.787   1.682  12.737  0.3690  0.2025 -0.4601
13451TIP3   OH261767   3.840   4.542   2.816 -0.1932  0.2113  0.3389
13451TIP3    H161768   3.791   4.490   2.880  1.0577 -0.0420  1.1177
13451TIP3    H261769   3.922   4.563   2.860  0.0914  1.2679 -0.6629
13452TIP3   OH261770   5.433   4.220   3.418  0.1424  0.6995  0.2045
13452TIP3    H161771   5.365   4.283   3.440 -0.7098 -0.8693  2.4339
13452TIP3    H261772   5.473   4.197   3.502  2.0026 -0.0243 -0.8072
13453TIP3   OH261773   0.233   4.591  16.840 -0.0862 -0.1264 -0.0720
13453TIP3    H161774   0.327   4.571  16.833 -0.1648  0.0029 -1.9392
13453TIP3    H261775   0.195   4.551  16.762 -1.4126  0.8528  0.0510
13454TIP3   OH261776   2.869   4.884  16.707  0.0116  0.1659 -0.2417
13454TIP3    H161777   2.859   4.790  16.691  2.0992 -0.1258 -0.1269
13454TIP3    H261778   2.904   4.919  16.626 -1.6054  1.0549 -0.6016
13455TIP3   OH261779   6.099   1.283   4.825 -0.9064 -0.4344 -0.9183
13455TIP3    H161780   6.008   1.255   4.821 -1.1562 -0.6333  2.5588
13455TIP3    H261781   6.097   1.377   4.809 -1.9223 -0.2511  0.1811
13456TIP3   OH261782   3.903   2.269   5.170 -0.7193 -0.1528 -0.4430
13456TIP3    H161783   3.846   2.253   5.246  1.1959 -1.8460  0.7284
13456TIP3    H261784   3.892   2.192   5.115 -1.4307  0.6767 -1.5277
13457TIP3   OH261785   1.629   0.826   0.823  0.0181 -0.0833  0.9013
13457TIP3    H161786   1.537   0.818   0.850 -0.4878  1.0997 -0.3696
13457TIP3    H261787   1.657   0.737   0.806 -1.5064 -0.3125 -0.5918
13458TIP3   OH261788   6.252   5.832   0.565  0.2874 -0.0152 -0.6137
13458TIP3    H161789   6.293   5.780   0.634  0.5865  1.5335  0.4206
13458TIP3    H261790   6.255   5.775   0.487  2.9481 -0.5626 -0.2057
13459TIP3   OH261791   3.656   5.474  11.776 -0.0599  0.1863 -0.5823
13459TIP3    H161792   3.719   5.509  11.839  1.1867 -1.2086 -0.9946
13459TIP3    H261793   3.669   5.527  11.697  0.0710  0.3781 -0.4333
13460TIP3   OH261794   3.970   1.690  12.126 -0.3135  0.8087  0.5294
13460TIP3    H161795   3.986   1.732  12.041 -0.2024 -0.2030  0.0304
13460TIP3    H261796   3.950   1.762  12.185 -1.2484  1.4685 -0.5523
13461TIP3   OH261797   0.015   2.734   4.385  0.4069 -0.1767 -0.4145
13461TIP3    H161798  -0.043   2.688   4.324 -1.9645  1.9347  0.0400
13461TIP3    H261799   0.036   2.816   4.339  0.1542  0.5851  0.7815
13462TIP3   OH261800   4.796   5.020   2.733 -0.1922  0.0409  0.3555
13462TIP3    H161801   4.703   5.041   2.745 -0.0037 -0.1144  2.6404
13462TIP3    H261802   4.813   5.036   2.641 -2.3748  0.5391 -0.0149
13463TIP3   OH261803   6.323   2.173   3.078 -0.5372  0.2952 -0.4508
13463TIP3    H161804   6.269   2.117   3.134 -0.7549 -0.9592 -1.8513
13463TIP3    H261805   6.394   2.116   3.049  3.1985  2.5017  3.3033
13464TIP3   OH261806   1.767   1.654   2.870  0.2263 -0.5449 -0.0416
13464TIP3    H161807   1.722   1.675   2.952 -0.6949  0.5008 -0.7967
13464TIP3    H261808   1.783   1.560   2.875 -2.5560 -1.0745  0.0059
13465TIP3   OH261809   4.311   2.919   0.498 -0.9101  0.2496 -0.2795
13465TIP3    H161810   4.353   2.978   0.436 -0.7605  0.2447 -0.1849
13465TIP3    H261811   4.384   2.884   0.550 -0.9125 -0.5673 -0.8038
13466TIP3   OH261812   3.856   1.934  10.590 -0.0970 -0.2471 -0.3424
13466TIP3    H161813   3.877   1.875  10.517 -0.4035  0.6378 -1.1674
13466TIP3    H261814   3.934   1.931  10.645  0.0309 -1.1530 -0.5478
13467TIP3   OH261815   0.364   0.579  12.877  0.0779  0.0746 -0.2315
13467TIP3    H161816   0.383   0.601  12.786 -0.1058 -0.0617 -0.3036
13467TIP3    H261817   0.350   0.663  12.920  0.4682  0.1546 -0.2608
13468TIP3   OH261818   6.150   1.460  15.835 -0.2333 -0.0355  0.0718
13468TIP3    H161819   6.166   1.502  15.751 -0.6525  1.3535  0.6484
13468TIP3    H261820   6.060   1.484  15.858 -1.1815 -2.8029 -0.3885
13469TIP3   OH261821   4.108   5.583   1.144  0.3823 -0.3620 -0.7237
13469TIP3    H161822   4.197   5.609   1.117 -0.9610  4.2409 -1.6046
13469TIP3    H261823   4.084   5.647   1.211 -1.3906 -3.2172  1.5485
13470TIP3   OH261824   0.021   3.481  11.660 -0.0847 -0.1250 -0.2488
13470TIP3    H161825   0.110   3.504  11.635 -0.0850  0.4867  0.2721
13470TIP3    H261826  -0.020   3.449  11.580  0.0446  1.3518 -0.9278
13471TIP3   OH261827   5.570   0.871  14.159  0.6288 -0.5134 -0.0654
13471TIP3    H161828   5.539   0.827  14.080  0.2644  0.2810 -0.3731
13471TIP3    H261829   5.639   0.930  14.129 -1.0792  1.5311 -0.1983
13472TIP3   OH261830   4.482   3.689  10.869 -0.1988  0.2648  0.1149
13472TIP3    H161831   4.487   3.594  10.859  0.3753  0.4543 -1.5824
13472TIP3    H261832   4.392   3.705  10.897 -0.9261 -0.6414 -1.5946
13473TIP3   OH261833   3.358   0.132   4.430 -0.0362  0.6118  0.1799
13473TIP3    H161834   3.387   0.132   4.522 -0.7144  0.5457  0.3934
13473TIP3    H261835   3.428   0.087   4.383 -0.7026 -1.3305  0.9793
13474TIP3   OH261836   6.013   5.523   1.281 -0.6212  0.2311  0.4741
13474TIP3    H161837   6.041   5.434   1.258 -0.3880  0.0720  1.3411
13474TIP3    H261838   6.092   5.575   1.273 -0.7370  0.3459  0.0603
13475TIP3   OH261839   4.934   5.786  10.790 -0.6086  0.3121  0.3939
13475TIP3    H161840   4.871   5.720  10.815 -1.9018  1.6669  0.8586
13475TIP3    H261841   4.906   5.865  10.836  0.7907  1.2253 -0.2476
13476TIP3   OH261842   1.305   1.068   0.602  0.1577 -0.5080 -0.1827
13476TIP3    H161843   1.289   1.111   0.686  1.2786  0.2690 -0.3484
13476TIP3    H261844   1.296   0.974   0.621  0.2910 -0.3369  0.7840
13477TIP3   OH261845   3.836   4.324  11.484 -0.1805  0.9245  0.3908
13477TIP3    H161846   3.826   4.416  11.510 -1.2502  0.3107  2.4464
13477TIP3    H261847   3.833   4.276  11.567  2.4147 -0.8612 -0.4419
13478TIP3   OH261848   3.373   0.810  16.056  0.3031  0.2434  0.1153
13478TIP3    H161849   3.398   0.825  15.965  0.3732  0.5231  0.1797
13478TIP3    H261850   3.278   0.801  16.054  0.1721  1.4436  0.1658
13479TIP3   OH261851   6.074   4.166   5.563 -0.0400  0.3032  0.2959
13479TIP3    H161852   6.001   4.200   5.616  0.3100 -0.3950  1.2509
13479TIP3    H261853   6.120   4.244   5.533 -0.4978  0.7216  0.6554
13480TIP3   OH261854   0.266   1.912   5.500  0.3453 -0.2569 -0.6568
13480TIP3    H161855   0.178   1.942   5.520 -0.4101 -1.6205 -1.7447
13480TIP3    H261856   0.253   1.835   5.444  2.2409  0.4325 -2.1539
13481TIP3   OH261857   4.706   1.091  12.256 -0.0518 -0.0589 -0.2130
13481TIP3    H161858   4.707   1.136  12.171  1.3160  0.9411  0.2970
13481TIP3    H261859   4.613   1.089  12.281 -0.4655 -0.2498 -1.6429
13482TIP3   OH261860   0.783   3.627   4.484  0.2137  0.1820  0.3574
13482TIP3    H161861   0.852   3.691   4.464 -0.2188  0.8058  0.8177
13482TIP3    H261862   0.829   3.555   4.529  0.9092 -0.4318 -1.2681
13483TIP3   OH261863   5.696   4.951   2.333 -0.2463 -0.3152 -0.2319
13483TIP3    H161864   5.713   5.039   2.368  0.7587 -0.1480 -1.0707
13483TIP3    H261865   5.743   4.892   2.392  1.2130 -0.0566 -1.0676
13484TIP3   OH261866   1.901   1.571   2.100 -0.7478 -0.1855  0.6476
13484TIP3    H161867   1.880   1.539   2.012  1.5721  1.9400 -0.8226
13484TIP3    H261868   1.976   1.518   2.128 -0.4305  0.2297  0.5982
13485TIP3   OH261869   5.765   2.150   5.985  0.1674 -0.1971 -0.1617
13485TIP3    H161870   5.697   2.125   6.048 -2.8398  0.5464 -2.8575
13485TIP3    H261871   5.806   2.067   5.961 -0.5790 -0.8300  0.6772
13486TIP3   OH261872   4.938   2.951   6.229 -0.2017  0.1266  0.1103
13486TIP3    H161873   5.019   2.899   6.228  1.9063  3.1012 -1.3002
13486TIP3    H261874   4.902   2.937   6.317  1.9376 -1.2266  0.8661
13487TIP3   OH261875   1.803   4.444   1.710 -0.0844  0.1603 -0.1787
13487TIP3    H161876   1.754   4.393   1.775  0.2536  1.1277  0.8818
13487TIP3    H261877   1.895   4.420   1.727 -0.0684 -0.4395 -1.0776
13488TIP3   OH261878   3.916   1.144  16.557 -0.0610 -0.4040  0.0617
13488TIP3    H161879   3.921   1.051  16.579  2.1351 -1.2757 -3.3715
13488TIP3    H261880   3.885   1.146  16.466 -1.2953  2.3512  0.4354
13489TIP3   OH261881   4.280   3.204  15.133  0.5206  0.6614 -0.3103
13489TIP3    H161882   4.281   3.222  15.039  1.3639 -0.6028 -0.5750
13489TIP3    H261883   4.370   3.221  15.161  0.4520  0.3387  0.1101
13490TIP3   OH261884   1.076   3.997  10.606  0.6321  0.5782  0.1157
13490TIP3    H161885   0.992   3.956  10.626  1.0100 -0.4991 -0.4446
13490TIP3    H261886   1.114   4.020  10.691  0.5640 -0.5496  0.4619
13491TIP3   OH261887   6.227   6.659  15.071 -0.5903 -0.3117 -0.6823
13491TIP3    H161888   6.259   6.652  14.981  1.4912 -1.7224  0.1029
13491TIP3    H261889   6.287   6.721  15.113  0.4775 -2.0425  0.4956
13492TIP3   OH261890   6.788   0.576  15.689  0.3945  0.3157  0.2105
13492TIP3    H161891   6.780   0.671  15.687 -2.1662  0.2075  1.5237
13492TIP3    H261892   6.772   0.552  15.780 -2.5640 -1.5298 -0.6628
13493TIP3   OH261893   0.940   4.887  14.983  0.3919  0.4105 -1.0552
13493TIP3    H161894   0.998   4.865  15.056  0.2823  2.0992 -0.4135
13493TIP3    H261895   0.998   4.889  14.906  0.7693  0.0094 -0.7874
13494TIP3   OH261896   1.104   6.328  12.459  0.0569  0.2249 -0.8643
13494TIP3    H161897   1.049   6.296  12.531  1.1961  2.4499  1.1246
13494TIP3    H261898   1.042   6.347  12.388 -1.1864 -1.4024 -0.2857
13495TIP3   OH261899   2.652   2.577   1.886 -0.0463 -0.3741  0.4364
13495TIP3    H161900   2.605   2.580   1.803  1.2085 -0.3760 -0.3008
13495TIP3    H261901   2.706   2.656   1.886  0.3150 -0.6145  1.0297
13496TIP3   OH261902   0.997   6.718   6.579  0.4362 -0.4218  0.2152
13496TIP3    H161903   0.942   6.796   6.573  0.7608 -0.1709  0.5031
13496TIP3    H261904   0.952   6.662   6.642  0.5722 -0.1691  0.5348
13497TIP3   OH261905   0.983   5.569  12.763 -0.4752  0.3295 -0.1905
13497TIP3    H161906   1.024   5.491  12.727 -2.3811 -0.6969 -0.2560
13497TIP3    H261907   0.992   5.635  12.694  0.1591 -0.1483 -0.5762
13498TIP3   OH261908   2.203   1.896  14.920  0.6765  0.1822  0.1799
13498TIP3    H161909   2.287   1.868  14.884 -0.1377 -2.0945 -0.1675
13498TIP3    H261910   2.222   1.919  15.011  1.5650 -1.2052  0.3734
13499TIP3   OH261911   1.737   5.940  15.103 -0.7242 -0.7164  0.3159
13499TIP3    H161912   1.762   5.972  15.016 -1.2464 -1.5333 -0.1453
13499TIP3    H261913   1.665   5.998  15.129 -1.7523 -1.5384 -0.5727
13500TIP3   OH261914   1.322   4.934  16.216 -0.1026 -0.2435  0.9630
13500TIP3    H161915   1.280   5.018  16.200  0.6078 -0.0910 -0.1854
13500TIP3    H261916   1.409   4.955  16.248  1.3116 -0.3887 -2.3254
13501TIP3   OH261917   6.692   4.277   4.075  0.2515 -0.3601  0.2645
13501TIP3    H161918   6.711   4.365   4.108 -0.3102 -0.6231  1.3702
13501TIP3    H261919   6.601   4.282   4.046 -0.1158 -0.8046  1.2686
13502TIP3   OH261920   2.651   3.500   3.799 -0.1355  0.1931 -0.3931
13502TIP3    H161921   2.653   3.419   3.850  1.1740  0.1131 -0.5370
13502TIP3    H261922   2.586   3.555   3.844  0.2461 -0.2676  0.7652
13503TIP3   OH261923   1.412   5.622   4.072  0.1268  0.2601  0.4374
13503TIP3    H161924   1.325   5.590   4.046  0.5415 -1.3510  0.8878
13503TIP3    H261925   1.468   5.599   3.998 -0.1139  3.0402 -0.7128
13504TIP3   OH261926   1.154   5.903   3.790 -0.1647 -0.0165  0.2716
13504TIP3    H161927   1.078   5.861   3.751  1.0327 -0.1186 -2.1358
13504TIP3    H261928   1.192   5.836   3.847 -0.8849 -0.5526  0.1335
13505TIP3   OH261929   2.014   1.655  12.487  0.0761 -0.6834  0.1205
13505TIP3    H161930   2.102   1.617  12.485  1.8953  3.0274  1.6157
13505TIP3    H261931   2.017   1.726  12.422 -2.3801 -1.3620 -0.8667
13506TIP3   OH261932   2.720   4.730   4.733  0.5737  0.0560 -0.2548
13506TIP3    H161933   2.808   4.695   4.720  0.7726 -0.5652  2.2319
13506TIP3    H261934   2.689   4.687   4.813 -1.5637  1.0843 -0.4696
13507TIP3   OH261935   2.447   5.893   4.063  0.0174 -0.1430 -0.5817
13507TIP3    H161936   2.464   5.811   4.017  1.5380  0.0021 -0.3343
13507TIP3    H261937   2.533   5.924   4.090 -0.6615  0.7914  0.6366
13508TIP3   OH261938   2.380   0.325  14.518 -0.3413 -0.3653 -0.0591
13508TIP3    H161939   2.358   0.305  14.609  1.6842 -1.3931  0.2637
13508TIP3    H261940   2.395   0.419  14.517  1.1878 -0.5677  1.0627
13509TIP3   OH261941   0.665   0.026   2.156  0.0493  0.3638  0.5666
13509TIP3    H161942   0.750  -0.016   2.169 -0.0377 -0.3061 -0.8074
13509TIP3    H261943   0.601  -0.044   2.174 -0.1803  0.6506  0.8609
13510TIP3   OH261944   1.981   2.718   0.053 -0.3727 -0.7680  0.1212
13510TIP3    H161945   2.070   2.713   0.019 -0.8882  3.7986 -2.6769
13510TIP3    H261946   1.991   2.750   0.143  0.7697 -1.3216  0.2066
13511TIP3   OH261947   5.688   1.744  16.682 -0.3245  0.3254  0.4894
13511TIP3    H161948   5.769   1.796  16.683 -0.4444  0.5080  0.9019
13511TIP3    H261949   5.706   1.671  16.741  0.2830 -0.7963 -1.0030
13512TIP3   OH261950   2.331   6.334   4.946 -0.7207 -0.1788  0.1054
13512TIP3    H161951   2.259   6.325   4.885 -1.7566  0.3289  1.2135
13512TIP3    H261952   2.292   6.321   5.032 -0.3570  3.9438  1.0800
13513TIP3   OH261953   4.651   5.242   0.482 -0.1535 -0.0149 -0.5293
13513TIP3    H161954   4.617   5.217   0.568  1.4019  1.2375  0.5178
13513TIP3    H261955   4.732   5.190   0.473 -1.1412 -1.3713 -2.0160
13514TIP3   OH261956   1.075   5.711   2.255 -0.3568  0.3544 -0.0969
13514TIP3    H161957   1.001   5.762   2.222  0.1330 -0.9544 -3.6548
13514TIP3    H261958   1.037   5.627   2.280 -0.2379 -0.0570 -1.2303
13515TIP3   OH261959   5.447   3.378   3.066  0.0252  0.4589  0.5969
13515TIP3    H161960   5.448   3.284   3.048  3.4238  0.7576 -1.6856
13515TIP3    H261961   5.376   3.412   3.011 -0.1394 -0.5939  0.1273
13516TIP3   OH261962   5.541   4.351   6.303  0.4113 -0.0079  0.1483
13516TIP3    H161963   5.556   4.419   6.237  2.5845 -2.1787 -1.7552
13516TIP3    H261964   5.617   4.355   6.360 -0.6204  0.6699  1.5516
13517TIP3   OH261965   4.466   4.255   0.623  0.0435 -0.1674  0.3356
13517TIP3    H161966   4.375   4.268   0.598  0.2736  0.7105 -0.0745
13517TIP3    H261967   4.495   4.341   0.654  0.7178 -0.4501  0.5086
13518TIP3   OH261968   0.016   3.336  13.688 -0.2074 -0.0231  0.2533
13518TIP3    H161969   0.079   3.264  13.694 -0.5252 -0.3714 -0.4088
13518TIP3    H261970   0.061   3.411  13.727  1.7997  0.5000 -2.6706
13519TIP3   OH261971   3.705   2.721   3.885 -0.2075 -0.2727  0.0547
13519TIP3    H161972   3.666   2.793   3.934  0.3523  0.1328 -0.0816
13519TIP3    H261973   3.707   2.648   3.947  1.4993  0.5432  1.0201
13520TIP3   OH261974   3.149   3.924  11.375 -0.1971  0.4707 -0.2754
13520TIP3    H161975   3.213   3.992  11.356 -0.7768  0.9719 -0.4511
13520TIP3    H261976   3.134   3.880  11.291  0.0675  0.2176 -0.1925
13521TIP3   OH261977   6.269   0.940   3.695 -0.7441  0.2333 -0.1642
13521TIP3    H161978   6.250   0.903   3.781  0.9888 -0.3848 -0.0201
13521TIP3    H261979   6.183   0.966   3.661 -1.9650 -2.9211  0.1785
13522TIP3   OH261980   4.369   4.980   0.431  0.2249 -0.1859  0.8315
13522TIP3    H161981   4.403   5.056   0.385  3.0613 -2.3427 -0.9377
13522TIP3    H261982   4.281   4.969   0.395  0.5896  0.9675 -0.5284
13523TIP3   OH261983   1.615   6.784   6.214 -0.5198  0.3931  0.4938
13523TIP3    H161984   1.625   6.689   6.209 -1.7724  0.3207 -1.8966
13523TIP3    H261985   1.658   6.808   6.297  2.8668 -1.8029 -0.4066
13524TIP3   OH261986   5.055   1.155  14.809  0.1500  0.1102 -0.0131
13524TIP3    H161987   5.130   1.212  14.795  1.1853 -1.2530 -0.2029
13524TIP3    H261988   5.028   1.129  14.720  1.5716 -2.0260  0.1231
13525TIP3   OH261989   1.416   0.273   1.152 -0.6462 -0.9690 -0.2737
13525TIP3    H161990   1.481   0.327   1.107 -0.0629  0.4393  2.0875
13525TIP3    H261991   1.335   0.288   1.102 -0.0856  0.6642 -0.7623
13526TIP3   OH261992   0.566   0.318   3.331  0.0226  0.0300  0.5623
13526TIP3    H161993   0.588   0.235   3.374  2.5591  0.3725  0.0510
13526TIP3    H261994   0.612   0.385   3.382 -0.3288  0.8988 -0.2256
13527TIP3   OH261995   3.116   3.525   1.222  0.2990  0.3133 -0.2850
13527TIP3    H161996   3.074   3.441   1.237 -0.8291  0.8721 -0.2020
13527TIP3    H261997   3.117   3.534   1.126  2.0578 -0.5731 -0.3883
13528TIP3   OH261998   1.877   3.002  13.941  0.4724 -0.2490  0.3472
13528TIP3    H161999   1.894   2.938  13.872 -0.9528 -2.6201  2.0711
13528TIP3    H262000   1.805   3.055  13.907  0.5375 -0.6579 -0.4467
13529TIP3   OH262001   3.326   3.812   0.967  0.3635  0.2573 -0.2666
13529TIP3    H162002   3.386   3.878   1.001  1.2606 -0.8114  0.2953
13529TIP3    H262003   3.343   3.811   0.872 -0.8731  1.9843 -0.5673
13530TIP3   OH262004   1.440   0.405  15.535  0.1702  0.2421 -0.2941
13530TIP3    H162005   1.453   0.496  15.508  1.0795 -0.2566 -1.6899
13530TIP3    H262006   1.395   0.364  15.461  0.3965 -0.5940  0.0181
13531TIP3   OH262007   2.143   0.773  12.534 -0.5651  0.6231  1.0314
13531TIP3    H162008   2.155   0.764  12.629  1.1914 -0.2123  0.7667
13531TIP3    H262009   2.048   0.778  12.522 -0.9778 -1.9134  2.6276
13532TIP3   OH262010   1.488   1.816   2.145 -0.3067 -0.4719  0.4268
13532TIP3    H162011   1.562   1.877   2.146 -0.4893 -0.2496  0.3265
13532TIP3    H262012   1.445   1.829   2.230 -0.8433  0.1510  0.0704
13533TIP3   OH262013   1.405   0.839   3.887 -0.2980  0.3761  0.6870
13533TIP3    H162014   1.320   0.845   3.843 -0.6188 -2.1838  0.8160
13533TIP3    H262015   1.384   0.846   3.980 -0.3233  0.1711  0.6974
13534TIP3   OH262016   2.419   5.196   0.525  0.3908 -0.0993  0.7467
13534TIP3    H162017   2.397   5.111   0.564 -1.7756  0.8010  1.6437
13534TIP3    H262018   2.438   5.175   0.434 -0.2093 -1.5507  0.9127
13535TIP3   OH262019   0.170   6.221   5.281  0.1169 -0.1344 -0.2234
13535TIP3    H162020   0.197   6.135   5.250  2.0468 -0.0755  1.1278
13535TIP3    H262021   0.251   6.271   5.286 -0.7933  1.3369  0.3096
13536TIP3   OH262022   2.391   4.091   1.973  0.1436 -0.2137 -0.2154
13536TIP3    H162023   2.348   4.162   2.021  0.2027 -0.1456 -0.2623
13536TIP3    H262024   2.434   4.135   1.900  0.2369 -0.2902 -0.2065
13537TIP3   OH262025   0.756   0.009  16.693  1.0171 -0.6693 -0.2400
13537TIP3    H162026   0.673   0.018  16.647  0.4306  0.7494  1.0273
13537TIP3    H262027   0.810   0.081  16.659  1.6894 -1.4461 -0.8922
13538TIP3   OH262028   5.473   1.858   3.047 -0.0566  0.1500  0.3975
13538TIP3    H162029   5.394   1.849   2.995 -0.9498 -0.7225  1.8476
13538TIP3    H262030   5.475   1.950   3.073 -1.1093 -0.0002  1.0885
13539TIP3   OH262031   5.150   2.079   2.026 -0.2493 -0.2580  0.0308
13539TIP3    H162032   5.114   1.997   1.992 -2.3817 -0.1390  1.8192
13539TIP3    H262033   5.121   2.146   1.963 -0.7881 -0.5298 -0.0131
13540TIP3   OH262034   5.671   6.282   5.913 -0.3870  0.0686  0.0714
13540TIP3    H162035   5.594   6.233   5.882  0.4606 -1.4933  0.3124
13540TIP3    H262036   5.674   6.264   6.008  1.4469 -1.7324 -0.2423
13541TIP3   OH262037   2.630   0.453   4.911 -0.4335 -1.2818  0.4709
13541TIP3    H162038   2.649   0.434   4.819 -1.1663 -0.3134  0.1078
13541TIP3    H262039   2.537   0.474   4.913 -0.0519  0.5094  1.1202
13542TIP3   OH262040   1.396   4.162  16.085 -1.0660  0.0807  0.0173
13542TIP3    H162041   1.470   4.211  16.122 -1.2888  0.6505 -0.2852
13542TIP3    H262042   1.357   4.117  16.160 -0.9499  0.4914  0.3262
13543TIP3   OH262043   3.151   5.299  11.730  0.1389 -0.2337 -0.0044
13543TIP3    H162044   3.111   5.357  11.795 -0.4879 -0.2155 -0.3998
13543TIP3    H262045   3.240   5.333  11.718  0.7124 -0.9734  1.7536
13544TIP3   OH262046   6.670   1.807   4.216 -0.5015 -0.8659  0.6709
13544TIP3    H162047   6.583   1.782   4.247 -1.2146 -1.3298 -1.5023
13544TIP3    H262048   6.682   1.756   4.136  0.9660  0.6345 -0.1266
13545TIP3   OH262049   2.309   5.156  12.461  0.1495 -0.2616 -0.2127
13545TIP3    H162050   2.312   5.217  12.387  1.8390  1.3061  1.0633
13545TIP3    H262051   2.374   5.089  12.439  1.6990  0.9731  0.4192
13546TIP3   OH262052   6.552   5.701  10.746  0.3516  0.1626 -0.1113
13546TIP3    H162053   6.623   5.753  10.785 -1.7482  2.4758  0.8533
13546TIP3    H262054   6.505   5.763  10.690 -1.3540 -1.1021 -0.1408
13547TIP3   OH262055   3.142   4.232  10.772  0.1634  0.1200  0.3070
13547TIP3    H162056   3.183   4.316  10.752  1.3692 -0.5449 -0.1217
13547TIP3    H262057   3.131   4.190  10.687 -1.2990  0.2093  0.4274
13548TIP3   OH262058   0.564   4.987  16.518  0.0814 -0.6042  0.2431
13548TIP3    H162059   0.589   4.998  16.610 -1.1633  2.6288  0.3192
13548TIP3    H262060   0.637   5.024  16.469 -0.6450  0.6920  0.1062
13549TIP3   OH262061   5.359   1.282  11.058  0.0753  0.2508 -0.0008
13549TIP3    H162062   5.336   1.260  11.148 -1.0007 -0.7532 -0.5015
13549TIP3    H262063   5.384   1.375  11.062 -3.2861  1.2834  0.7781
13550TIP3   OH262064   6.466   6.390  16.207  0.3601 -0.8841  0.1219
13550TIP3    H162065   6.538   6.355  16.259 -0.5898 -0.7761  1.5707
13550TIP3    H262066   6.508   6.424  16.127  1.6775 -2.3839  0.1324
13551TIP3   OH262067   2.719   3.904   0.365  0.1255  0.0701 -0.4970
13551TIP3    H162068   2.688   3.840   0.300 -0.5102 -1.5407  1.2780
13551TIP3    H262069   2.671   3.882   0.444 -1.8762  4.2768 -0.2732
13552TIP3   OH262070   1.032   4.001  17.040  0.0113  0.3536 -0.0433
13552TIP3    H162071   1.123   4.017  17.015 -0.4538 -0.8109 -2.8839
13552TIP3    H262072   1.000   3.939  16.975 -3.1152  1.4734  0.2594
13553TIP3   OH262073   1.699   1.040  12.453 -0.6065  0.1555 -0.4297
13553TIP3    H162074   1.670   0.999  12.371  0.0111  1.0302 -1.1138
13553TIP3    H262075   1.634   1.109  12.469 -2.2315 -1.6460  1.2664
13554TIP3   OH262076   3.816   3.702  14.245  0.3493 -0.2051  0.6768
13554TIP3    H162077   3.729   3.679  14.210  1.1592 -0.9406 -0.9659
13554TIP3    H262078   3.836   3.631  14.306  0.2261 -0.6275  0.2444
13555TIP3   OH262079   6.720   3.632  11.875  0.1379 -0.4637  0.4839
13555TIP3    H162080   6.640   3.580  11.887  0.3370 -0.4764  2.0411
13555TIP3    H262081   6.746   3.615  11.785 -1.4801 -0.6427  0.0096
13556TIP3   OH262082   0.863   1.567  17.031 -0.3468 -0.0687 -0.7858
13556TIP3    H162083   0.842   1.484  16.989  0.5391 -0.1384 -1.1127
13556TIP3    H262084   0.795   1.578  17.098 -1.4477 -0.2351 -1.8440
13557TIP3   OH262085   2.701   5.944   4.170  0.0570 -0.5281 -0.2713
13557TIP3    H162086   2.780   5.997   4.185 -0.4733 -0.0793  1.0633
13557TIP3    H262087   2.702   5.879   4.240 -1.0896 -0.0934  0.1778
13558TIP3   OH262088   6.367   2.722   0.330 -0.0086  0.1228 -0.1080
13558TIP3    H162089   6.281   2.695   0.362 -0.6277  0.5862 -1.2941
13558TIP3    H262090   6.400   2.645   0.283  0.9885 -0.6278  1.7103
13559TIP3   OH262091   1.582   2.340  16.056 -0.4328 -0.0851  0.5251
13559TIP3    H162092   1.488   2.342  16.035 -0.5602  0.9296  1.1453
13559TIP3    H262093   1.590   2.396  16.133  0.9719  1.4820 -0.6811
13560TIP3   OH262094   1.203   0.354   3.959  0.0847 -0.2937  0.0654
13560TIP3    H162095   1.245   0.435   3.930 -1.2182  0.5532  0.4586
13560TIP3    H262096   1.226   0.346   4.052  1.3867 -1.1579 -0.3070
13561TIP3   OH262097   6.489   4.204   1.533 -0.2191  0.4907  0.3920
13561TIP3    H162098   6.526   4.194   1.620 -0.2756  2.2848  0.6553
13561TIP3    H262099   6.430   4.129   1.523  0.3432 -0.1341  1.5936
13562TIP3   OH262100   3.113   1.998   3.081 -0.0045 -0.1144 -0.6634
13562TIP3    H162101   3.059   1.922   3.102 -1.0462  0.7882  0.1031
13562TIP3    H262102   3.173   2.007   3.155 -1.6507  1.2998  0.5867
13563TIP3   OH262103   0.122   4.877   5.494 -0.1664  0.5725 -0.6953
13563TIP3    H162104   0.200   4.929   5.510 -1.1363  1.5029  1.3160
13563TIP3    H262105   0.111   4.824   5.574 -0.0953 -1.6103 -2.0390
13564TIP3   OH262106   3.788   3.367   4.788  0.3757  0.4669  0.9365
13564TIP3    H162107   3.816   3.278   4.765 -3.2027 -0.5745 -0.2115
13564TIP3    H262108   3.811   3.420   4.711  1.1840  0.1883  0.9857
13565TIP3   OH262109   5.370   2.578   6.204 -0.2065 -0.4019 -0.6776
13565TIP3    H162110   5.276   2.563   6.210  0.2830 -4.0631  0.1703
13565TIP3    H262111   5.404   2.502   6.158  2.2182  1.8309 -2.9531
13566TIP3   OH262112   1.094   4.403   0.455  0.5526 -0.2176  0.5635
13566TIP3    H162113   1.047   4.371   0.532 -0.0399 -0.9173 -0.0718
13566TIP3    H262114   1.162   4.461   0.491 -0.2037  0.0967  1.5572
13567TIP3   OH262115   5.458   5.079   2.448 -0.7402  0.3229 -0.0337
13567TIP3    H162116   5.418   5.057   2.364 -0.9320 -0.9350  0.3722
13567TIP3    H262117   5.390   5.128   2.494 -1.6855 -1.3738  0.4589
13568TIP3   OH262118   3.094   2.933  15.726 -0.1399  0.0272 -0.0491
13568TIP3    H162119   3.101   2.839  15.710  2.5730  0.0563  0.4799
13568TIP3    H262120   3.047   2.968  15.650 -0.1720 -1.6010 -0.8090
13569TIP3   OH262121   1.703   0.212  12.372 -0.0708 -0.3791 -0.5752
13569TIP3    H162122   1.763   0.185  12.441 -1.0412 -0.3059  0.3246
13569TIP3    H262123   1.620   0.169  12.394  0.0662 -1.8882 -2.7356
13570TIP3   OH262124   4.500   2.395   3.727 -0.3665  0.1910 -0.2921
13570TIP3    H162125   4.456   2.347   3.797  0.6772  1.8941  1.6729
13570TIP3    H262126   4.576   2.341   3.705  0.2475  0.4047  1.1748
13571TIP3   OH262127   5.717   4.061  11.260 -0.2745  0.6696 -0.2732
13571TIP3    H162128   5.744   4.029  11.346 -0.3103 -0.5385 -0.6775
13571TIP3    H262129   5.799   4.078  11.214 -0.1841 -0.8642 -0.7453
13572TIP3   OH262130   5.575   2.945   2.402  0.4826 -0.0308 -0.0613
13572TIP3    H162131   5.669   2.957   2.392  0.5526  0.2548  0.8814
13572TIP3    H262132   5.562   2.850   2.399  0.7811 -0.0619 -0.3344
13573TIP3   OH262133   3.503   2.318  11.628  0.0845  0.0388 -0.0539
13573TIP3    H162134   3.563   2.245  11.645 -0.5181 -0.3419  0.5290
13573TIP3    H262135   3.502   2.327  11.533 -0.0109 -0.8868 -0.1538
13574TIP3   OH262136   5.863   3.413  16.405 -0.3638 -0.0087 -0.5805
13574TIP3    H162137   5.885   3.322  16.384 -1.5271 -0.0743 -1.6236
13574TIP3    H262138   5.777   3.408  16.446 -1.5615  0.7641 -2.7964
13575TIP3   OH262139   2.586   0.465  13.757  0.3441  0.1498  0.7227
13575TIP3    H162140   2.625   0.448  13.671  2.2765  0.0369  1.5713
13575TIP3    H262141   2.530   0.389  13.773  0.1827  0.0309 -0.3102
13576TIP3   OH262142   1.572   1.822  15.848 -0.3491 -0.8200  0.6722
13576TIP3    H162143   1.661   1.859  15.852 -0.0422 -0.7849 -2.9396
13576TIP3    H262144   1.585   1.732  15.820 -1.4508 -0.8522  0.2233
13577TIP3   OH262145   0.584   5.268  10.591 -0.0562 -0.3870  0.3915
13577TIP3    H162146   0.549   5.300  10.508  0.1485  0.2572  0.5480
13577TIP3    H262147   0.541   5.184  10.605 -2.2885  0.7838  1.0467
13578TIP3   OH262148   3.228   6.285   2.676  0.1682  0.3825 -0.4287
13578TIP3    H162149   3.306   6.278   2.622  0.0703  0.6164 -0.5988
13578TIP3    H262150   3.223   6.377   2.701  0.8593  0.0713  0.9485
13579TIP3   OH262151   6.098   5.465   0.059 -0.1801  0.4867 -0.1125
13579TIP3    H162152   6.173   5.410   0.037 -0.2023  0.5666 -0.3975
13579TIP3    H262153   6.033   5.404   0.094 -0.0006  0.4099  0.0852
13580TIP3   OH262154   1.348   4.431   3.326 -0.2376 -0.3008 -0.1305
13580TIP3    H162155   1.297   4.511   3.314 -0.7041 -0.5334  0.2766
13580TIP3    H262156   1.369   4.430   3.420  0.3054 -0.3359 -0.2472
13581TIP3   OH262157   1.989   4.362   4.668  1.0948  0.1231  0.1961
13581TIP3    H162158   1.910   4.365   4.722  0.4913 -0.8633 -0.5996
13581TIP3    H262159   1.990   4.447   4.623  0.9550  0.4707  0.8383
13582TIP3   OH262160   6.356   4.712  16.504 -0.0270  0.0378  0.4935
13582TIP3    H162161   6.298   4.678  16.573  0.5211 -1.8121  0.0945
13582TIP3    H262162   6.299   4.721  16.428 -0.5083  1.5321  1.0082
13583TIP3   OH262163   5.239   5.396   4.439  0.1482 -0.3767 -0.0320
13583TIP3    H162164   5.233   5.302   4.459  0.2438  0.0932  2.4896
13583TIP3    H262165   5.231   5.439   4.524  0.0994  1.9287 -1.1404
13584TIP3   OH262166   1.628   6.630  11.949 -0.5153 -0.1848 -0.2189
13584TIP3    H162167   1.535   6.616  11.928 -0.6670  0.5528 -0.0599
13584TIP3    H262168   1.628   6.701  12.013  0.1390 -0.4569  0.0947
13585TIP3   OH262169   5.533   6.644  12.364  0.1934 -0.0202  0.0219
13585TIP3    H162170   5.623   6.620  12.340  1.0769  2.6862  0.2833
13585TIP3    H262171   5.535   6.650  12.459 -0.1321  0.5150 -0.0055
13586TIP3   OH262172   6.221   0.995   0.961 -0.3957  0.2015  0.4920
13586TIP3    H162173   6.187   0.942   1.033  1.7135 -0.5919  0.9837
13586TIP3    H262174   6.253   0.931   0.897 -0.9704  0.8975 -0.5223
13587TIP3   OH262175   6.793   5.952  13.295 -0.0936 -0.1878  0.6220
13587TIP3    H162176   6.791   5.871  13.346  1.9426 -1.7145 -1.5318
13587TIP3    H262177   6.879   5.990  13.314  0.0699  0.0159 -0.4592
13588TIP3   OH262178   1.420   0.980   4.546  0.1006  0.8409  0.9672
13588TIP3    H162179   1.340   0.987   4.598 -0.0425  2.5912  0.5785
13588TIP3    H262180   1.438   1.070   4.517  1.3183  0.2354 -0.2881
13589TIP3   OH262181   1.415   6.658  16.584 -0.7672  0.3608 -0.0662
13589TIP3    H162182   1.387   6.626  16.670  0.8853  0.4139  0.5256
13589TIP3    H262183   1.367   6.740  16.572 -0.4808  0.7306  1.1420
13590TIP3   OH262184   4.564   4.808  12.287  0.4040 -0.0651  0.2010
13590TIP3    H162185   4.651   4.784  12.320  1.0432  2.0377  0.1475
13590TIP3    H262186   4.577   4.824  12.194 -0.1291 -0.0827  0.1212
13591TIP3   OH262187   2.467   0.222  13.627 -0.4388  0.7677  0.5704
13591TIP3    H162188   2.560   0.209  13.609 -0.1711  2.7269  0.3093
13591TIP3    H262189   2.460   0.215  13.723 -0.1169  0.1917  0.5572
13592TIP3   OH262190   5.796   3.229  12.457 -0.0983  0.1235  0.1138
13592TIP3    H162191   5.789   3.263  12.546 -1.2483  0.8067 -0.2119
13592TIP3    H262192   5.811   3.135  12.468  2.9259  0.6046  1.0264
13593TIP3   OH262193   1.737   1.586   1.140  0.0374 -0.0045 -0.2968
13593TIP3    H162194   1.687   1.530   1.200 -0.2278  0.5318 -0.0101
13593TIP3    H262195   1.710   1.675   1.163  1.3906  0.3247  0.0942
13594TIP3   OH262196   4.065   4.227   4.412  0.3261  0.2333  0.4655
13594TIP3    H162197   4.002   4.181   4.466  0.1996  0.5235  0.5690
13594TIP3    H262198   4.027   4.226   4.324 -0.9793  2.4167  0.9357
13595TIP3   OH262199   6.626   5.061  13.888  0.3534  0.0334 -0.2462
13595TIP3    H162200   6.558   5.115  13.849  0.7192  0.8500  0.2238
13595TIP3    H262201   6.677   5.122  13.942  1.8345 -0.4362 -1.0767
13596TIP3   OH262202   5.650   0.729  14.384  0.5697 -0.1565  0.0470
13596TIP3    H162203   5.582   0.676  14.426  1.0801 -0.6595  0.2608
13596TIP3    H262204   5.609   0.765  14.306  0.7934 -2.6232 -1.3199
13597TIP3   OH262205   2.559   5.969  14.500 -0.2273 -0.3233 -0.2084
13597TIP3    H162206   2.646   6.001  14.524  0.3339 -1.4641 -0.6927
13597TIP3    H262207   2.538   6.015  14.418 -1.1938  1.8632  1.1577
13598TIP3   OH262208   0.903   4.468   2.080 -0.3074  0.1502  0.1268
13598TIP3    H162209   0.948   4.441   2.160  0.9132  1.6935 -0.0037
13598TIP3    H262210   0.810   4.472   2.104 -0.1429 -0.9196  1.0088
13599TIP3   OH262211   4.333   1.926   1.553  0.4417  0.1587  0.5360
13599TIP3    H162212   4.331   1.927   1.457  1.6409 -1.8295  0.4376
13599TIP3    H262213   4.426   1.926   1.575  0.1812  0.8457  1.7287
13600TIP3   OH262214   4.504   0.266  15.362 -0.2236 -0.0690 -0.1172
13600TIP3    H162215   4.439   0.270  15.432  0.3117 -0.8078  0.4368
13600TIP3    H262216   4.463   0.312  15.289 -1.6075 -1.0067  0.0346
13601TIP3   OH262217   5.765   6.194   6.187 -0.2074  0.3365 -0.3782
13601TIP3    H162218   5.676   6.198   6.223 -0.0416 -0.7404  0.1727
13601TIP3    H262219   5.802   6.280   6.207 -1.3384  1.0559 -1.2202
13602TIP3   OH262220   0.665   0.451   1.559 -0.0805 -0.1885 -0.4973
13602TIP3    H162221   0.725   0.471   1.630 -3.7108  1.1603  2.5015
13602TIP3    H262222   0.633   0.362   1.578 -0.6464 -0.0459 -0.7472
13603TIP3   OH262223   4.456   2.997   2.868  0.2856 -0.3901  0.1200
13603TIP3    H162224   4.362   2.980   2.858 -0.0296  0.5864  1.2232
13603TIP3    H262225   4.490   2.919   2.912 -0.4809  0.2405  1.9185
13604TIP3   OH262226   1.781   3.038   3.156 -0.7779 -0.6011  0.1410
13604TIP3    H162227   1.803   3.105   3.092 -1.1924 -0.6242 -0.0330
13604TIP3    H262228   1.686   3.027   3.147 -0.6425 -1.6288 -0.2439
13605TIP3   OH262229   6.615   2.940   4.239 -0.1196  0.8340  0.3316
13605TIP3    H162230   6.551   2.875   4.211  0.9649 -0.3436  0.4895
13605TIP3    H262231   6.608   3.011   4.175 -2.3417  1.2723  0.9757
13606TIP3   OH262232   4.909   1.443  11.190 -0.1601  0.0849 -0.7942
13606TIP3    H162233   4.837   1.495  11.226  1.8806  1.7520  1.2264
13606TIP3    H262234   4.987   1.476  11.235  1.5008 -3.9056 -0.2565
13607TIP3   OH262235   3.944   1.037  15.439  0.1061  0.2164  0.1889
13607TIP3    H162236   4.011   1.075  15.496 -1.4293  1.2266  1.3974
13607TIP3    H262237   3.923   1.106  15.376 -0.2361  0.1278  0.2029
13608TIP3   OH262238   5.423   6.228   5.799 -0.3858 -0.0978  0.6031
13608TIP3    H162239   5.376   6.147   5.779 -0.6877  0.1668  0.2357
13608TIP3    H262240   5.384   6.258   5.881 -0.5754 -0.0954  0.5126
13609TIP3   OH262241   0.161   0.938   1.858 -0.6156  0.3802 -0.1599
13609TIP3    H162242   0.181   0.957   1.766  2.0775 -2.6512 -0.3579
13609TIP3    H262243   0.208   1.006   1.907  2.0879 -0.7559 -0.9928
13610TIP3   OH262244   2.901   4.882  15.136 -0.5789  0.1591 -0.3057
13610TIP3    H162245   2.835   4.866  15.069  0.3933  3.1175 -2.1302
13610TIP3    H262246   2.862   4.946  15.195 -0.1678  0.1730 -0.0396
13611TIP3   OH262247   2.330   6.715   1.777  0.0278  0.9483  0.2867
13611TIP3    H162248   2.420   6.688   1.760  0.1102  1.2954  0.1769
13611TIP3    H262249   2.279   6.635   1.764  0.2760  0.8362 -0.0164
13612TIP3   OH262250   1.519   3.964  13.304 -0.2212 -0.3185  0.1237
13612TIP3    H162251   1.534   3.986  13.212 -0.3248  0.3526  0.2645
13612TIP3    H262252   1.602   3.926  13.333 -0.3546 -1.0172 -0.3819
13613TIP3   OH262253   3.616   1.010  16.028  0.2347 -0.2088 -0.0354
13613TIP3    H162254   3.618   1.064  15.949  0.6373  0.1019  0.1854
13613TIP3    H262255   3.707   0.990  16.046  0.0501 -1.9617 -0.7713
13614TIP3   OH262256   4.400   3.259   5.775  0.1122  0.1353 -0.4475
13614TIP3    H162257   4.382   3.190   5.711  2.5454 -0.2703 -0.7968
13614TIP3    H262258   4.427   3.212   5.854  2.6778  0.5646 -0.9614
13615TIP3   OH262259   5.622   0.131  17.138  0.2604  0.0877 -0.0450
13615TIP3    H162260   5.539   0.179  17.138  0.3331  0.2166  0.1907
13615TIP3    H262261   5.598   0.040  17.120 -0.4834 -0.8002  4.3107
13616TIP3   OH262262   5.481   3.102  15.016 -0.2078  0.0213 -0.0183
13616TIP3    H162263   5.552   3.094  14.953 -1.9405 -0.1254 -2.0665
13616TIP3    H262264   5.403   3.075  14.968 -1.5050 -1.0731  2.4985
13617TIP3   OH262265   1.555   1.248   1.154 -0.5685 -0.5079  0.1108
13617TIP3    H162266   1.499   1.296   1.093 -1.3497 -0.7373  0.6278
13617TIP3    H262267   1.544   1.156   1.129 -0.2479 -0.5403  0.0790
13618TIP3   OH262268   6.663   5.358   3.217 -0.8192 -0.1665  0.2838
13618TIP3    H162269   6.611   5.388   3.291 -0.7830 -0.0517  0.2632
13618TIP3    H262270   6.646   5.422   3.148  0.4590  0.6957  0.7318
13619TIP3   OH262271   5.755   5.500   2.455  0.0154 -0.2415  0.6978
13619TIP3    H162272   5.678   5.485   2.400  0.4875 -0.7123  0.1597
13619TIP3    H262273   5.795   5.579   2.418  0.2887 -0.5122  0.4159
13620TIP3   OH262274   6.697   4.917   1.859 -0.2104  0.0304 -0.0429
13620TIP3    H162275   6.642   4.930   1.936  2.3233  0.2866  1.8373
13620TIP3    H262276   6.760   4.849   1.884  1.9168  1.4714 -1.1439
13621TIP3   OH262277   3.479   0.579  12.732 -0.2979  0.2190  0.0415
13621TIP3    H162278   3.444   0.559  12.645 -1.1976  1.9240 -0.0234
13621TIP3    H262279   3.537   0.653  12.718 -0.6697  0.6894  0.9297
13622TIP3   OH262280   3.321   0.618   3.261  0.3505  0.2817  0.0673
13622TIP3    H162281   3.361   0.671   3.193 -1.0976 -0.5147 -1.4920
13622TIP3    H262282   3.268   0.679   3.313 -2.9947  0.2860 -2.9624
13623TIP3   OH262283   3.093   0.123   2.838  0.0882  0.0963  0.2868
13623TIP3    H162284   3.137   0.164   2.912  0.8378 -0.7787  0.3436
13623TIP3    H262285   3.031   0.062   2.878 -1.4832  1.5711  0.2153
13624TIP3   OH262286   3.080   3.404   5.527 -0.3578 -0.2171  0.4827
13624TIP3    H162287   3.080   3.333   5.591  1.7300 -0.0612  0.7346
13624TIP3    H262288   3.093   3.483   5.579  1.4669 -0.0966 -0.0525
13625TIP3   OH262289   2.027   6.504   0.380 -0.1826 -0.0237  0.2227
13625TIP3    H162290   1.956   6.439   0.381 -1.5500  1.3986 -0.4392
13625TIP3    H262291   1.983   6.587   0.359  1.4941  1.1434  1.1230
13626TIP3   OH262292   3.278   4.606   5.705 -0.1155  0.1970  0.2738
13626TIP3    H162293   3.373   4.604   5.698 -0.1303  2.3278 -1.6563
13626TIP3    H262294   3.247   4.558   5.628 -0.6865 -2.2415  1.9315
13627TIP3   OH262295   0.243   6.360  10.815  0.0369 -0.9152 -0.3283
13627TIP3    H162296   0.208   6.286  10.765 -0.4521 -1.0490  0.1913
13627TIP3    H262297   0.186   6.364  10.893  0.3051 -0.2373 -0.1665
13628TIP3   OH262298   3.549   1.829  11.014  0.0776 -0.4686 -0.0295
13628TIP3    H162299   3.518   1.759  10.957 -3.2072  0.5472  0.3517
13628TIP3    H262300   3.552   1.906  10.958  0.9191 -0.2882  0.2402
13629TIP3   OH262301   6.645   6.511  13.533  0.0053  0.7684  0.3181
13629TIP3    H162302   6.715   6.498  13.596  0.2862  1.1228  0.0816
13629TIP3    H262303   6.572   6.458  13.566  0.2194  0.7880  0.8229
13630TIP3   OH262304   6.695   3.619   1.526 -0.0990  0.4091  0.2041
13630TIP3    H162305   6.666   3.635   1.615  2.0579  1.0685  0.8682
13630TIP3    H262306   6.781   3.663   1.521 -0.6570  1.4037 -2.5457
13631TIP3   OH262307   1.685   4.110   5.908  0.5214  0.0436 -0.0894
13631TIP3    H162308   1.723   4.027   5.878 -0.0165 -0.6393  1.0403
13631TIP3    H262309   1.666   4.158   5.828  0.9353 -0.8885 -0.7654
13632TIP3   OH262310   6.100   0.019   6.298  0.4333 -0.1744 -0.5360
13632TIP3    H162311   6.060  -0.062   6.329  3.2634 -1.6774 -0.4637
13632TIP3    H262312   6.168   0.038   6.363  0.8777  1.3708 -1.4152
13633TIP3   OH262313   5.695   5.965   1.421 -0.4415  0.1882  0.6449
13633TIP3    H162314   5.771   5.947   1.477 -0.0257 -1.7646 -0.4318
13633TIP3    H262315   5.729   6.020   1.351 -0.2194  0.0512  0.6423
13634TIP3   OH262316   0.157   6.093  16.998 -0.4212  0.2947  0.3484
13634TIP3    H162317   0.164   6.052  16.911  0.5150  0.2508  0.4263
13634TIP3    H262318   0.197   6.179  16.986 -0.0018  0.1681  0.8037
13635TIP3   OH262319   6.015   1.027   3.654  0.4410  0.1589 -0.1097
13635TIP3    H162320   5.995   1.044   3.562  2.0803 -0.0306 -0.5246
13635TIP3    H262321   5.936   0.986   3.689 -0.0228 -0.2144 -1.5492
13636TIP3   OH262322   0.509   2.639  14.500 -0.4183 -0.1561  0.4099
13636TIP3    H162323   0.453   2.563  14.513 -0.8005  0.1792  0.7456
13636TIP3    H262324   0.514   2.650  14.405  0.5673 -1.2760  0.3110
13637TIP3   OH262325   3.012   1.213   4.566 -0.2398 -0.6776  0.2635
13637TIP3    H162326   2.990   1.295   4.610 -1.0458 -0.9353  0.3557
13637TIP3    H262327   2.968   1.217   4.482  0.4166 -0.6541 -0.0836
13638TIP3   OH262328   4.002   3.368  15.778 -0.2111 -0.5711  0.1738
13638TIP3    H162329   3.915   3.401  15.755  0.2641  0.3157 -0.4136
13638TIP3    H262330   3.987   3.276  15.802 -1.1270 -0.8145 -1.1978
13639TIP3   OH262331   3.781   1.636   4.035  0.5918 -0.0669  0.6688
13639TIP3    H162332   3.850   1.591   3.987  0.9656  0.2180  0.9287
13639TIP3    H262333   3.808   1.630   4.127 -0.3942 -1.0836  0.9082
13640TIP3   OH262334   4.947   3.837  15.611  0.2181  0.4173 -0.3208
13640TIP3    H162335   4.951   3.880  15.697  0.1803  2.5122 -1.2954
13640TIP3    H262336   5.036   3.805  15.597  0.9531  2.4338 -0.5908
13641TIP3   OH262337   5.821   1.205  15.447 -0.7841 -0.1568 -0.0629
13641TIP3    H162338   5.869   1.247  15.376 -0.6386  0.7409  0.5520
13641TIP3    H262339   5.874   1.221  15.525 -1.1609 -0.7498  0.3251
13642TIP3   OH262340   1.420   6.506   3.661  0.1342  0.8357 -0.3087
13642TIP3    H162341   1.334   6.512   3.704  0.3013 -2.4418  0.7810
13642TIP3    H262342   1.406   6.541   3.573 -2.2266  0.7712 -0.0238
13643TIP3   OH262343   3.989   4.518   4.306 -0.5631  0.3293  0.1317
13643TIP3    H162344   3.925   4.525   4.377  0.6833  0.6000  1.2689
13643TIP3    H262345   3.996   4.424   4.289  0.1874  0.1281  1.4016
13644TIP3   OH262346   2.214   6.617   5.549 -1.2433  0.3451  0.3156
13644TIP3    H162347   2.206   6.525   5.572 -0.4468  0.4617  1.1781
13644TIP3    H262348   2.194   6.663   5.631  0.4349  0.8354  0.5077
13645TIP3   OH262349   1.757   4.224  17.074  0.0259  0.0149  0.0587
13645TIP3    H162350   1.692   4.153  17.073  0.3826 -0.3213 -1.0170
13645TIP3    H262351   1.836   4.183  17.108 -0.6394  0.7735  2.7759
13646TIP3   OH262352   4.246   1.580   5.820  0.7403  0.8026 -0.1449
13646TIP3    H162353   4.262   1.502   5.767  0.4412 -0.3715  1.4256
13646TIP3    H262354   4.279   1.653   5.767 -0.8615 -0.1109 -2.5582
13647TIP3   OH262355   4.630   5.832   3.441 -0.4721 -0.6814  0.2208
13647TIP3    H162356   4.652   5.751   3.395  1.1661  0.1080 -0.4672
13647TIP3    H262357   4.671   5.823   3.527  1.2478  0.1005 -0.4748
13648TIP3   OH262358   4.335   3.143  12.401 -0.6369  0.2947 -0.1216
13648TIP3    H162359   4.380   3.145  12.486  1.5114 -1.6487 -1.0969
13648TIP3    H262360   4.254   3.095  12.419 -0.3232  0.1105  0.8941
13649TIP3   OH262361   1.082   4.465   3.733 -0.0139 -0.5121  0.2674
13649TIP3    H162362   1.084   4.375   3.703 -0.5166 -0.2748 -0.4919
13649TIP3    H262363   1.161   4.505   3.696 -0.3919 -0.3420 -0.3694
13650TIP3   OH262364   4.099   1.256   5.892  0.6103 -0.2590  0.1707
13650TIP3    H162365   4.069   1.200   5.964 -1.0023 -0.4038 -0.5799
13650TIP3    H262366   4.029   1.251   5.827  1.6981  0.4631 -1.0990
13651TIP3   OH262367   1.109   0.989  16.039  0.0519 -0.2279  0.6012
13651TIP3    H162368   1.135   0.913  15.987 -0.3775  0.0914 -0.0814
13651TIP3    H262369   1.014   0.987  16.040  0.0477  0.0141  1.0067
13652TIP3   OH262370   4.327   6.795   5.491  0.0977  0.6290 -0.0793
13652TIP3    H162371   4.341   6.701   5.494  0.9625  0.7813  2.1161
13652TIP3    H262372   4.287   6.811   5.405 -0.8582 -1.8065 -0.1336
13653TIP3   OH262373   2.935   2.847  13.910  0.4083  0.3168 -0.3087
13653TIP3    H162374   2.869   2.896  13.960  1.0056 -0.0981  0.9071
13653TIP3    H262375   2.887   2.771  13.877  0.6264 -0.9140  2.0305
13654TIP3   OH262376   3.531   4.756  11.619 -0.4834  0.2036  0.0616
13654TIP3    H162377   3.611   4.807  11.630  0.6382 -1.2292 -1.0452
13654TIP3    H262378   3.466   4.802  11.673  1.4610  0.4999  2.3569
13655TIP3   OH262379   1.605   1.877  16.744  0.1364 -0.0321 -0.0284
13655TIP3    H162380   1.601   1.888  16.839  0.4469  0.9229 -0.1212
13655TIP3    H262381   1.670   1.808  16.731  1.8933  1.4798  0.3746
13656TIP3   OH262382   5.771   6.294   2.982 -0.3769 -0.0820 -0.7411
13656TIP3    H162383   5.703   6.257   2.926 -0.2568 -2.0175  0.3035
13656TIP3    H262384   5.724   6.350   3.044 -1.2880 -2.5543  0.9269
13657TIP3   OH262385   2.189   4.994   3.352 -0.3583  0.0034  0.2624
13657TIP3    H162386   2.211   4.901   3.354  0.6379  0.2321  0.2134
13657TIP3    H262387   2.157   5.010   3.263  1.9278  0.2311 -0.5912
13658TIP3   OH262388   0.181   1.484  11.952 -0.1684  0.0375  0.2663
13658TIP3    H162389   0.161   1.562  12.003  0.4476  0.9190 -0.7940
13658TIP3    H262390   0.155   1.411  12.008 -1.1146  1.0069  1.1210
13659TIP3   OH262391   2.064   4.350  11.288  0.3654 -0.0610 -0.1622
13659TIP3    H162392   2.151   4.382  11.262 -0.4504  0.1907 -2.8609
13659TIP3    H262393   2.024   4.424  11.333  1.2632  0.0612  0.4780
13660TIP3   OH262394   3.233   4.919   5.199 -0.7409  0.3901  0.2409
13660TIP3    H162395   3.180   4.986   5.156 -0.5586 -0.8090 -1.9472
13660TIP3    H262396   3.314   4.915   5.148 -0.8321 -1.6346  0.1659
13661TIP3   OH262397   5.334   1.865   0.928 -0.2000 -0.4118  0.2774
13661TIP3    H162398   5.347   1.959   0.941 -1.9449  0.0044 -0.6716
13661TIP3    H262399   5.395   1.842   0.858  1.4814 -0.4049  1.6612
13662TIP3   OH262400   0.359   1.796  14.216 -0.0645 -0.6242 -0.3807
13662TIP3    H162401   0.315   1.725  14.169 -0.1711  0.1291 -1.4388
13662TIP3    H262402   0.452   1.784  14.198 -0.0049 -0.9817  0.1374
13663TIP3   OH262403   5.738   4.369   5.415  0.6305  0.3633 -0.2035
13663TIP3    H162404   5.805   4.430   5.446  0.3887  0.1248  0.8394
13663TIP3    H262405   5.683   4.352   5.492  0.3456 -0.7157 -0.6179
13664TIP3   OH262406   1.966   2.696  14.228  0.0036  0.3450  0.3898
13664TIP3    H162407   1.885   2.645  14.227 -0.6889  1.4104 -0.4810
13664TIP3    H262408   1.943   2.777  14.273  0.5700  0.6698  0.1092
13665TIP3   OH262409   1.237   3.044  12.730 -0.4353  0.4505  0.5774
13665TIP3    H162410   1.256   3.126  12.776 -2.7429  0.1785  2.2100
13665TIP3    H262411   1.190   3.072  12.651  1.2161  0.7947 -0.3136
13666TIP3   OH262412   2.164   4.911   2.739  0.1934  0.1386 -0.6735
13666TIP3    H162413   2.254   4.905   2.768  0.6961 -0.8654 -2.3171
13666TIP3    H262414   2.112   4.908   2.819  1.6515  4.5842  0.7220
13667TIP3   OH262415   2.337   5.083   1.270  0.1865 -0.0801  0.0463
13667TIP3    H162416   2.393   5.100   1.194 -1.6358  0.5271 -1.2336
13667TIP3    H262417   2.266   5.147   1.262  0.8071  1.2098  3.2603
13668TIP3   OH262418   4.628   1.265   0.535 -0.2058  0.0470 -0.5455
13668TIP3    H162419   4.624   1.321   0.612  0.9977 -0.1161 -0.3456
13668TIP3    H262420   4.721   1.261   0.513 -0.1797 -2.2021 -0.2842
13669TIP3   OH262421   3.107   4.585  11.978 -0.2601  0.0174  0.3506
13669TIP3    H162422   3.111   4.500  11.932 -0.7579 -0.5544  1.3445
13669TIP3    H262423   3.092   4.649  11.908 -0.3399 -0.7588 -0.3627
13670TIP3   OH262424   5.383   4.110   5.934  0.0008  0.1229 -0.5028
13670TIP3    H162425   5.469   4.117   5.976  1.1883 -1.3524 -2.5214
13670TIP3    H262426   5.359   4.201   5.915  0.8328  0.5991  0.5688
13671TIP3   OH262427   6.553   2.046   4.022  0.5441 -0.1439 -0.4957
13671TIP3    H162428   6.581   1.957   4.044 -0.0531 -0.0941  0.5424
13671TIP3    H262429   6.555   2.093   4.105 -0.1084  0.5408 -0.8584
13672TIP3   OH262430   3.898   5.428   1.384  0.9782 -0.1115  0.8229
13672TIP3    H162431   3.884   5.523   1.386  1.4786 -0.0335  0.6944
13672TIP3    H262432   3.876   5.399   1.472 -1.8181 -0.2742  0.1771
13673TIP3   OH262433   4.005   6.276   3.918  0.3356 -0.5807 -0.1483
13673TIP3    H162434   3.988   6.251   4.009  0.7052  0.0487  0.0984
13673TIP3    H262435   4.052   6.201   3.881 -1.1279 -1.4638 -0.2586
13674TIP3   OH262436   5.683   5.181  11.794  0.2835 -0.3958  0.1363
13674TIP3    H162437   5.773   5.149  11.798 -0.0198 -1.1909  0.9945
13674TIP3    H262438   5.674   5.237  11.871 -0.0180 -0.4896  0.1707
13675TIP3   OH262439   5.153   1.751  13.979 -0.5919 -0.7779  0.2101
13675TIP3    H162440   5.105   1.743  13.897 -0.2500 -0.1542 -0.0604
13675TIP3    H262441   5.242   1.774  13.953 -1.0041  1.7892  0.7910
13676TIP3   OH262442   1.845   6.788  12.114 -0.1142 -0.0400  0.0505
13676TIP3    H162443   1.847   6.794  12.210  0.2580 -0.6766  0.0903
13676TIP3    H262444   1.776   6.848  12.087 -0.0893  0.2895  0.7109
13677TIP3   OH262445   3.305   4.344  16.402  0.3021 -0.0398  0.4650
13677TIP3    H162446   3.361   4.402  16.350 -1.1725 -0.0927 -1.3019
13677TIP3    H262447   3.219   4.386  16.402 -0.5163 -1.6123  0.1341
13678TIP3   OH262448   2.948   5.717   4.545  0.1281 -0.1478  0.2433
13678TIP3    H162449   2.950   5.780   4.617  0.7582 -1.5067  1.4454
13678TIP3    H262450   2.864   5.672   4.555 -0.0622  0.0833 -0.2611
13679TIP3   OH262451   1.568   6.484  12.772 -0.2336  0.5749  0.2519
13679TIP3    H162452   1.508   6.417  12.740 -2.0780  2.2219  0.0727
13679TIP3    H262453   1.538   6.503  12.861 -1.3408  2.7946 -0.5061
13680TIP3   OH262454   4.750   3.440  15.805 -0.3344  0.6433 -0.5858
13680TIP3    H162455   4.793   3.446  15.890 -1.1367 -1.1041 -0.0084
13680TIP3    H262456   4.801   3.498  15.748 -0.6606  3.0863  1.3964
13681TIP3   OH262457   3.884   4.447  13.122  0.4824 -0.1235  0.2579
13681TIP3    H162458   3.920   4.405  13.200  1.2045  1.0306  0.5657
13681TIP3    H262459   3.955   4.446  13.058  0.7486  1.2362  0.5118
13682TIP3   OH262460   4.586   5.109  11.359 -0.2932 -0.7170  0.0998
13682TIP3    H162461   4.673   5.113  11.398 -0.7091  0.6009  0.9797
13682TIP3    H262462   4.540   5.041  11.408  0.3627 -1.7743 -0.6989
13683TIP3   OH262463   3.512   2.791  15.351 -0.2286 -0.0278 -0.1855
13683TIP3    H162464   3.561   2.859  15.305 -0.3221  0.4900  0.4682
13683TIP3    H262465   3.455   2.753  15.284 -0.4101  0.7552 -0.4882
13684TIP3   OH262466   0.719   6.276   0.842  0.2200  0.4708 -0.1647
13684TIP3    H162467   0.751   6.332   0.912 -0.5892  0.8141 -0.0564
13684TIP3    H262468   0.728   6.328   0.762 -1.1629  1.0436  0.0234
13685TIP3   OH262469   1.401   4.269  14.785 -0.2684  0.0751 -0.3711
13685TIP3    H162470   1.490   4.233  14.791 -0.2670  0.3415  3.4682
13685TIP3    H262471   1.413   4.364  14.788 -0.6228  0.1184  2.6941
13686TIP3   OH262472   2.211   1.272  14.600  0.0561  0.4683  0.1281
13686TIP3    H162473   2.168   1.234  14.677 -0.8589  0.4729 -0.3740
13686TIP3    H262474   2.282   1.212  14.580 -0.5982 -0.3109  0.1049
13687TIP3   OH262475   3.968   5.094   4.740  0.0717 -0.1121  0.6363
13687TIP3    H162476   3.978   5.023   4.803 -0.3829 -1.1215 -0.3932
13687TIP3    H262477   3.928   5.053   4.663  0.2150  1.1666 -0.1572
13688TIP3   OH262478   2.798   4.384   1.537 -0.0274  0.0929  0.0840
13688TIP3    H162479   2.815   4.448   1.468  0.1244  1.4530  1.3349
13688TIP3    H262480   2.724   4.333   1.505 -0.6234  1.3629 -0.6514
13689TIP3   OH262481   1.723   1.225   5.883 -0.1551  0.3931 -0.0131
13689TIP3    H162482   1.717   1.190   5.972 -1.8386 -1.7491 -0.8948
13689TIP3    H262483   1.810   1.198   5.853  0.8945  2.0925  1.2806
13690TIP3   OH262484   6.330   2.222   0.164 -0.0681 -0.1159  0.0789
13690TIP3    H162485   6.405   2.238   0.223 -0.1816  3.0561 -0.4388
13690TIP3    H262486   6.254   2.229   0.221 -0.0587 -1.0358  0.2114
13691TIP3   OH262487   1.489   0.227   2.085 -0.5564 -0.2942  0.0197
13691TIP3    H162488   1.557   0.228   2.018 -0.5806  0.1431 -0.0019
13691TIP3    H262489   1.409   0.203   2.038 -0.3246 -1.3919  0.1462
13692TIP3   OH262490   5.758   1.202  11.015  0.4353  0.2910 -0.1648
13692TIP3    H162491   5.714   1.207  11.099 -0.9939  1.9267 -0.9565
13692TIP3    H262492   5.690   1.177  10.952  1.5928 -1.4957 -0.8044
13693TIP3   OH262493   3.184   2.427   3.618  0.3888 -0.0853 -0.4300
13693TIP3    H162494   3.273   2.460   3.613  0.6319 -0.8698 -1.6053
13693TIP3    H262495   3.187   2.359   3.686  0.6584 -0.0677 -0.4259
13694TIP3   OH262496   4.067   1.236  15.595  0.1093 -0.4367 -0.0501
13694TIP3    H162497   4.103   1.296  15.530  1.2915  1.0310  1.8438
13694TIP3    H262498   4.133   1.232  15.664 -2.4164  0.7883  2.6579
13695TIP3   OH262499   3.712   4.725  16.284  0.5003  0.0759 -0.0379
13695TIP3    H162500   3.649   4.658  16.257 -1.4253  0.8813  2.0968
13695TIP3    H262501   3.702   4.796  16.221 -0.0759 -0.1879 -0.2406
13696TIP3   OH262502   0.803   5.416  13.296 -0.5148 -0.6520 -0.2341
13696TIP3    H162503   0.801   5.434  13.390 -0.8685  1.1956 -0.5617
13696TIP3    H262504   0.896   5.409  13.274 -0.3875 -0.0626  0.0903
13697TIP3   OH262505   5.434   0.742  17.030 -0.0129  0.8475 -0.2232
13697TIP3    H162506   5.382   0.755  16.951  0.1196  2.8108 -0.0243
13697TIP3    H262507   5.398   0.661  17.068  0.4839 -0.6401 -2.6573
13698TIP3   OH262508   2.114   2.067  17.160 -0.7000  0.1283  0.3868
13698TIP3    H162509   2.026   2.075  17.123  0.2590  0.2641 -2.0373
13698TIP3    H262510   2.135   1.974  17.151 -0.3599  0.2046  0.3943
13699TIP3   OH262511   5.568   5.578  16.749  0.0068 -0.2301  0.1916
13699TIP3    H162512   5.552   5.647  16.684 -2.9769 -0.3938  0.5800
13699TIP3    H262513   5.659   5.589  16.774  0.0799  2.5911 -0.9012
13700TIP3   OH262514   4.647   4.921   6.059  0.1715 -0.5277 -0.2985
13700TIP3    H162515   4.602   4.842   6.090 -0.0821 -0.8851 -1.5395
13700TIP3    H262516   4.577   4.984   6.044  0.3837 -0.0001  0.8057
13701TIP3   OH262517   6.122   0.958  13.888  0.1576  0.3966 -0.3789
13701TIP3    H162518   6.184   0.920  13.950  0.6616 -0.3374 -1.3138
13701TIP3    H262519   6.156   0.934  13.802 -1.5560 -0.2802 -0.9231
13702TIP3   OH262520   1.848   5.188   6.469 -0.0441  0.2819 -0.1643
13702TIP3    H162521   1.781   5.128   6.436  1.5197 -1.9486  0.4698
13702TIP3    H262522   1.928   5.136   6.471  0.7312  1.2693  3.6651
13703TIP3   OH262523   0.856   3.530   1.057  0.8688  0.3844 -0.5861
13703TIP3    H162524   0.867   3.603   1.119 -1.0664  0.8694 -0.7634
13703TIP3    H262525   0.889   3.454   1.105 -0.3906  0.7794  1.0265
13704TIP3   OH262526   2.038   0.860   3.141  0.3989  0.4236  0.1536
13704TIP3    H162527   1.947   0.843   3.167  0.3925 -0.9578 -0.6737
13704TIP3    H262528   2.040   0.954   3.123 -0.9511  0.4265 -0.1179
13705TIP3   OH262529   1.664   0.706  13.998 -0.8296  0.5717 -0.1559
13705TIP3    H162530   1.639   0.643  13.930 -3.4315  1.3402 -0.0450
13705TIP3    H262531   1.703   0.654  14.067 -2.3034 -0.8803 -0.3556
13706TIP3   OH262532   3.188   5.497  11.948 -0.0723 -0.4551  0.0054
13706TIP3    H162533   3.282   5.514  11.941 -0.5760  1.9884 -2.5443
13706TIP3    H262534   3.155   5.568  12.004 -0.3359 -1.9959  1.9197
13707TIP3   OH262535   1.660   6.065   3.928  0.1903  0.8895  0.4706
13707TIP3    H162536   1.593   6.056   3.996 -1.5160 -0.6661 -1.2694
13707TIP3    H262537   1.733   6.010   3.958 -1.4507 -1.6601  0.1028
13708TIP3   OH262538   5.650   5.680   3.848  0.0150  0.1693  0.4005
13708TIP3    H162539   5.715   5.613   3.871 -0.7557 -1.5114 -1.9283
13708TIP3    H262540   5.683   5.720   3.768 -0.0049  2.0060  1.2608
13709TIP3   OH262541   4.242   1.374  14.070  0.1551  0.2866  0.8121
13709TIP3    H162542   4.243   1.303  14.006  0.9480  1.0684 -0.0724
13709TIP3    H262543   4.181   1.344  14.138 -1.1540 -0.3194 -0.5746
13710TIP3   OH262544   3.088   5.537  13.910 -0.6070 -0.1106  0.4241
13710TIP3    H162545   3.091   5.620  13.863  1.3651  0.0085  0.6878
13710TIP3    H262546   3.022   5.551  13.978 -2.3245  0.2574 -1.2250
13711TIP3   OH262547   0.050   2.628   4.637  0.0466 -1.0179 -0.0049
13711TIP3    H162548   0.111   2.679   4.689 -0.2473 -0.4564 -0.2072
13711TIP3    H262549   0.032   2.682   4.560 -1.4234 -0.7588  0.4941
13712TIP3   OH262550   5.563   4.799  13.863  0.2084  0.3829  0.1542
13712TIP3    H162551   5.538   4.891  13.862 -0.7794  0.1154 -0.3594
13712TIP3    H262552   5.490   4.753  13.823  1.0500 -0.5476 -0.3690
13713TIP3   OH262553   3.486   4.977   0.803 -0.1851 -0.0750 -0.1409
13713TIP3    H162554   3.409   4.967   0.859 -0.2371  0.6811 -0.0579
13713TIP3    H262555   3.452   4.971   0.714 -0.4876  1.0232 -0.1243
13714TIP3   OH262556   0.012   2.947  11.368 -0.3915  0.5848 -0.1739
13714TIP3    H162557  -0.071   2.973  11.408 -1.6178 -0.2207 -2.0348
13714TIP3    H262558  -0.007   2.862  11.328  1.5714  0.0185  0.0114
13715TIP3   OH262559   0.752   1.536   4.695  0.5057 -0.5061 -0.2761
13715TIP3    H162560   0.749   1.483   4.774  0.3763 -0.8940 -0.5364
13715TIP3    H262561   0.800   1.615   4.720  2.0310 -1.4070 -0.2621
13716TIP3   OH262562   4.865   3.886   3.492 -0.1387  0.1144 -0.2267
13716TIP3    H162563   4.851   3.795   3.520 -0.6464  0.3209  0.1783
13716TIP3    H262564   4.782   3.930   3.509  0.9738  1.3861  2.3200
13717TIP3   OH262565   5.860   1.513   0.116 -0.1807  0.1569 -0.7048
13717TIP3    H162566   5.939   1.567   0.112 -0.7303  0.9470 -2.0374
13717TIP3    H262567   5.889   1.425   0.093  0.4571  0.2325 -0.2123
13718TIP3   OH262568   6.483   2.773  15.821 -0.6585 -0.2228 -0.1650
13718TIP3    H162569   6.446   2.763  15.734  0.4225 -0.8023 -0.5822
13718TIP3    H262570   6.548   2.843  15.812 -0.5133 -0.3141  0.1589
13719TIP3   OH262571   3.791   5.329   4.390 -0.2225  0.0157 -0.5255
13719TIP3    H162572   3.808   5.236   4.376  1.6336  0.4339 -1.3834
13719TIP3    H262573   3.771   5.364   4.303 -1.5896  0.3315 -0.1152
13720TIP3   OH262574   6.718   5.867   4.823 -0.0004 -0.1412 -0.0662
13720TIP3    H162575   6.655   5.893   4.890 -1.1032  0.5071 -1.2901
13720TIP3    H262576   6.771   5.799   4.865  0.3714  1.3051  1.9362
13721TIP3   OH262577   1.386   1.530  11.027 -0.2938  0.7038  0.0125
13721TIP3    H162578   1.338   1.591  10.971 -0.2112  1.0919  0.3569
13721TIP3    H262579   1.438   1.477  10.967 -2.5991 -1.0714 -0.5778
13722TIP3   OH262580   6.529   2.333   4.093 -0.4501  0.5369  0.0438
13722TIP3    H162581   6.514   2.413   4.043 -2.0315 -0.8215 -1.8007
13722TIP3    H262582   6.623   2.317   4.084 -0.7478  0.0255 -3.1774
13723TIP3   OH262583   2.848   1.282   0.499  0.3329  0.0928 -0.1945
13723TIP3    H162584   2.819   1.369   0.471  0.0706  1.0525  2.7237
13723TIP3    H262585   2.768   1.228   0.496 -0.4691  1.0720  1.7967
13724TIP3   OH262586   5.527   5.506  16.297 -0.3356  0.1796 -0.5105
13724TIP3    H162587   5.464   5.435  16.306 -1.2703  0.6790 -2.5644
13724TIP3    H262588   5.573   5.487  16.216  0.3119  1.2255 -0.4064
13725TIP3   OH262589   2.449   3.676   3.969 -0.1825  0.0730  0.3636
13725TIP3    H162590   2.389   3.635   3.907  0.2593 -1.6291  1.0039
13725TIP3    H262591   2.461   3.765   3.936 -1.4756 -0.1822 -0.8778
13726TIP3   OH262592   3.353   4.661   1.851 -0.4330 -0.1015  0.1421
13726TIP3    H162593   3.329   4.640   1.761 -0.0415 -1.7606  0.3799
13726TIP3    H262594   3.428   4.605   1.870 -0.0058  0.7923  1.2564
13727TIP3   OH262595   1.483   4.560   5.143  0.4393 -0.6057  0.7638
13727TIP3    H162596   1.406   4.505   5.130 -0.2005  0.0605  1.6044
13727TIP3    H262597   1.520   4.530   5.226 -0.2823  0.6084  1.5573
13728TIP3   OH262598   2.337   0.898  16.672 -0.1763  0.2368 -0.0879
13728TIP3    H162599   2.366   0.837  16.605  0.8420  1.0446 -0.4192
13728TIP3    H262600   2.369   0.983  16.642 -1.8581  0.9964  0.1913
13729TIP3   OH262601   0.773   6.001   2.067 -0.2044 -0.4116 -0.1836
13729TIP3    H162602   0.740   6.082   2.106  1.2102  0.2050 -0.2194
13729TIP3    H262603   0.867   6.013   2.062  0.0211 -2.0017 -0.3572
13730TIP3   OH262604   5.456   2.251  13.799 -0.3892 -0.8301 -0.7403
13730TIP3    H162605   5.392   2.179  13.800 -0.6664 -0.6307 -1.8202
13730TIP3    H262606   5.468   2.274  13.891 -0.5099 -2.0680 -0.3963
13731TIP3   OH262607   5.558   0.259   3.099 -0.1297  0.0510 -0.4610
13731TIP3    H162608   5.624   0.197   3.069  1.2507  1.3540 -0.2522
13731TIP3    H262609   5.604   0.343   3.106 -1.7726  0.9927 -0.1564
13732TIP3   OH262610   0.698   1.505  13.273 -0.2897 -0.0546  0.0568
13732TIP3    H162611   0.753   1.491  13.350 -0.4306  0.4018  0.2418
13732TIP3    H262612   0.623   1.555  13.306  0.2190  1.1857 -0.5925
13733TIP3   OH262613   4.159   3.110   1.078  0.1402 -0.2796 -0.5100
13733TIP3    H162614   4.170   3.095   1.172 -0.9828 -0.3643 -0.3774
13733TIP3    H262615   4.233   3.065   1.038  0.8817  0.1251  0.3532
13734TIP3   OH262616   3.161   5.645  15.014 -0.2066 -0.2202 -0.2610
13734TIP3    H162617   3.245   5.666  14.973 -1.1620 -0.2001 -2.3947
13734TIP3    H262618   3.179   5.572  15.072  1.4448  0.3974  0.0486
13735TIP3   OH262619   4.570   1.289  15.405 -0.1828  0.6257 -0.3107
13735TIP3    H162620   4.621   1.278  15.486 -1.4979 -0.0642  0.4594
13735TIP3    H262621   4.622   1.244  15.338  0.4730  0.3752  0.3517
13736TIP3   OH262622   2.214   0.459  13.892 -0.3470 -0.3404 -0.0971
13736TIP3    H162623   2.218   0.426  13.802  0.0800  0.4561 -0.3741
13736TIP3    H262624   2.130   0.503  13.899 -0.0829  0.2105 -0.3277
13737TIP3   OH262625   5.182   3.784   0.073 -0.0468  0.3918 -0.1059
13737TIP3    H162626   5.241   3.727   0.024 -3.1905 -1.0933 -2.5310
13737TIP3    H262627   5.176   3.864   0.020  0.6027  1.0250  0.7415
13738TIP3   OH262628   4.825   5.075   1.092 -0.4205 -0.0336 -0.3680
13738TIP3    H162629   4.884   5.011   1.131  1.4736  1.6878 -0.2479
13738TIP3    H262630   4.850   5.158   1.132 -1.8604  1.0162 -1.5375
13739TIP3   OH262631   1.449   3.625  13.873 -0.3770  0.1064  0.6369
13739TIP3    H162632   1.411   3.696  13.925 -0.0849  0.5425  0.2586
13739TIP3    H262633   1.544   3.638  13.880 -0.3344  0.8715 -0.9466
13740TIP3   OH262634   0.096   0.074  12.646 -0.1763  0.1694  0.4244
13740TIP3    H162635   0.092   0.169  12.640 -0.3448  0.1098 -0.5558
13740TIP3    H262636   0.155   0.047  12.575  1.1612 -0.3575  1.6953
13741TIP3   OH262637   1.100   2.414  15.370  0.8805  0.6347  0.1954
13741TIP3    H162638   1.174   2.454  15.416  1.5312 -0.0354 -0.2503
13741TIP3    H262639   1.068   2.484  15.312  1.4139  0.8100  0.1024
13742TIP3   OH262640   0.640   3.361   0.783  0.0146 -0.3647  0.1414
13742TIP3    H162641   0.614   3.384   0.872  1.1184 -0.6643  0.5558
13742TIP3    H262642   0.735   3.359   0.786  0.0232 -2.3525 -0.5456
13743TIP3   OH262643   1.998   2.195  11.490  0.5715 -0.3344  0.1555
13743TIP3    H162644   2.027   2.191  11.399 -3.2543  0.7175 -1.3193
13743TIP3    H262645   2.025   2.112  11.528 -0.1888 -2.1050 -2.8409
13744TIP3   OH262646   3.630   4.010   1.762  0.9551  0.0809  0.0609
13744TIP3    H162647   3.574   4.065   1.708 -0.1772 -0.5067  0.5988
13744TIP3    H262648   3.569   3.953   1.809  2.0667 -1.2102 -0.0242
13745TIP3   OH262649   0.865   1.339  11.144 -0.7684  0.2632 -0.2207
13745TIP3    H162650   0.856   1.303  11.056  1.5506 -1.6241  0.2266
13745TIP3    H262651   0.959   1.341  11.160 -1.1403  0.1044  2.4055
13746TIP3   OH262652   3.328   0.999   5.787 -0.3086 -0.1109  0.2298
13746TIP3    H162653   3.390   1.008   5.715 -0.4498  2.0318  0.2948
13746TIP3    H262654   3.243   1.021   5.747 -0.4398  0.7256  0.9275
13747TIP3   OH262655   3.529   3.712  16.149  0.2825 -0.2685  0.2715
13747TIP3    H162656   3.611   3.663  16.140  0.6819  0.5161 -0.5843
13747TIP3    H262657   3.521   3.761  16.067  0.3596  1.7489  1.3924
13748TIP3   OH262658   2.958   2.805   3.394 -0.0579 -0.0335  0.0982
13748TIP3    H162659   2.877   2.850   3.370  0.1810  0.3814  0.0428
13748TIP3    H262660   3.023   2.876   3.400  0.3821 -0.3988 -0.2248
13749TIP3   OH262661   3.913   5.761   2.362  0.8041  0.3615 -0.1997
13749TIP3    H162662   3.885   5.682   2.317  0.7594  0.3295 -0.1162
13749TIP3    H262663   3.843   5.778   2.426 -0.8249  2.2341 -2.3387
13750TIP3   OH262664   5.973   4.034   3.860  0.2664 -0.7847  0.5134
13750TIP3    H162665   5.942   3.985   3.783  1.2847 -0.0888 -0.3749
13750TIP3    H262666   5.904   4.022   3.925 -0.4905 -1.6418 -0.4051
13751TIP3   OH262667   0.148   2.619  13.282  0.3936  0.8103 -0.0075
13751TIP3    H162668   0.078   2.639  13.344  1.2300 -0.0834  1.2672
13751TIP3    H262669   0.211   2.567  13.332  0.3534 -1.3476 -2.0224
13752TIP3   OH262670   6.031   4.650  12.075 -0.1321  0.2381  0.0782
13752TIP3    H162671   6.103   4.647  12.012 -1.2334 -0.4475 -1.2020
13752TIP3    H262672   5.988   4.734  12.059  0.1669  0.4993  0.6128
13753TIP3   OH262673   3.290   4.330  16.032 -0.1144 -0.1286 -0.4888
13753TIP3    H162674   3.253   4.247  16.004 -2.4763  1.4368 -2.4822
13753TIP3    H262675   3.350   4.355  15.961  1.7617 -0.7321  0.7996
13754TIP3   OH262676   2.772   5.729  14.474  0.3785 -0.4350  0.2507
13754TIP3    H162677   2.855   5.737  14.521  0.4413  0.0311  0.0766
13754TIP3    H262678   2.721   5.805  14.503  0.9538  0.6670 -1.4573
13755TIP3   OH262679   5.067   4.965   1.641  0.0808  0.1211  0.5069
13755TIP3    H162680   5.095   4.874   1.641 -0.5910 -0.0999  0.9348
13755TIP3    H262681   5.148   5.016   1.643  0.4558 -0.4688  0.4854
13756TIP3   OH262682   1.069   2.978   5.854 -0.0171  0.5168 -0.3827
13756TIP3    H162683   1.119   2.907   5.814  0.7974  1.1354 -0.4718
13756TIP3    H262684   1.134   3.038   5.889 -0.7010  0.2161  1.5383
13757TIP3   OH262685   2.515   6.386   3.924  0.4499 -0.1809 -0.1459
13757TIP3    H162686   2.585   6.364   3.985  0.0161 -0.1917  0.3564
13757TIP3    H262687   2.498   6.305   3.876 -0.0344 -0.5171  0.5697
13758TIP3   OH262688   2.360   1.165  14.233 -0.0504  0.4283 -0.4384
13758TIP3    H162689   2.419   1.193  14.164 -0.2849 -1.3302 -1.4155
13758TIP3    H262690   2.417   1.130  14.301  0.1476  1.4649 -0.0599
13759TIP3   OH262691   2.953   2.960  12.265  0.0165 -0.2001  0.1095
13759TIP3    H162692   2.918   2.901  12.198  0.4594 -0.2024 -0.1261
13759TIP3    H262693   2.924   3.047  12.237  1.9236  0.0544 -1.2533
13760TIP3   OH262694   2.359   4.986   5.997 -0.0618 -0.8226 -0.2166
13760TIP3    H162695   2.344   5.042   6.072  0.3197  0.7692 -1.2875
13760TIP3    H262696   2.330   4.899   6.025 -1.1011 -0.0091  1.3181
13761TIP3   OH262697   6.770   2.321   0.504  0.3501  0.3921 -0.3775
13761TIP3    H162698   6.781   2.360   0.590 -0.6845  2.2732 -1.0289
13761TIP3    H262699   6.720   2.386   0.454 -1.9916 -1.9598 -1.4061
13762TIP3   OH262700   6.251   2.463   3.274  0.3151 -0.0603  0.0149
13762TIP3    H162701   6.181   2.409   3.238  0.1495  0.7527 -0.9082
13762TIP3    H262702   6.206   2.528   3.328  0.2807  0.8706 -1.0998
13763TIP3   OH262703   4.606   4.988  13.959  0.0215  0.0990 -0.5535
13763TIP3    H162704   4.671   5.014  13.894  0.0137 -0.1537 -0.6630
13763TIP3    H262705   4.631   5.036  14.038  1.3431 -1.2284 -0.1010
13764TIP3   OH262706   2.168   2.438  12.439  0.7793 -0.4659 -0.1034
13764TIP3    H162707   2.111   2.486  12.379  0.0268  1.2215  1.8103
13764TIP3    H262708   2.156   2.346  12.415 -0.9670  0.0002 -1.2650
13765TIP3   OH262709   5.290   5.471   4.010 -0.8129  0.0128 -0.1274
13765TIP3    H162710   5.225   5.528   4.051 -1.2511 -0.3297 -0.3354
13765TIP3    H262711   5.341   5.436   4.083 -1.0035  0.1155  0.0555
13766TIP3   OH262712   3.653   2.934   4.421  0.0112  0.6880  0.0504
13766TIP3    H162713   3.691   2.863   4.370  0.1261  0.0569  0.9865
13766TIP3    H262714   3.587   2.891   4.476  0.3317  1.2469  0.8786
13767TIP3   OH262715   5.870   5.465   5.460  0.2415 -0.6641  0.5316
13767TIP3    H162716   5.893   5.423   5.377  1.6026 -1.4306  1.2498
13767TIP3    H262717   5.903   5.405   5.527  1.7048  1.2062  1.6079
13768TIP3   OH262718   3.137   3.890  12.563 -0.2890 -0.1279 -0.3893
13768TIP3    H162719   3.174   3.846  12.487 -2.2700  1.1219 -2.2051
13768TIP3    H262720   3.081   3.825  12.604  0.2266 -0.6027 -0.4338
13769TIP3   OH262721   0.007   3.385   5.417  0.6445 -0.0811 -0.0819
13769TIP3    H162722   0.038   3.321   5.481  1.5360  0.5448  0.1353
13769TIP3    H262723   0.018   3.469   5.460  1.3235  0.3565 -1.0608
13770TIP3   OH262724   4.788   3.028   3.572  0.3405 -0.2190  0.1925
13770TIP3    H162725   4.798   2.940   3.535 -0.2393  0.7990 -2.6673
13770TIP3    H262726   4.770   3.014   3.665  2.2824 -3.0066  0.2590
13771TIP3   OH262727   3.386   6.598  11.204 -0.1944 -0.5101  0.3451
13771TIP3    H162728   3.389   6.546  11.124 -0.4767 -2.6706  1.6493
13771TIP3    H262729   3.293   6.616  11.217 -0.0602  0.8361 -0.3645
13772TIP3   OH262730   0.835   5.514  12.292  0.2970  0.0201 -0.2135
13772TIP3    H162731   0.885   5.432  12.300  0.2891 -0.1262 -1.4511
13772TIP3    H262732   0.845   5.556  12.377 -0.7263 -1.8365  0.9034
13773TIP3   OH262733   3.380   4.020  17.161  0.6361  0.4597  0.2175
13773TIP3    H162734   3.392   3.925  17.158 -1.0151  0.2225  0.3268
13773TIP3    H262735   3.316   4.039  17.092  1.3833  1.5849 -0.2057
13774TIP3   OH262736   2.618   5.326  15.998 -0.0038  0.2565 -0.2736
13774TIP3    H162737   2.634   5.292  16.086  0.9042 -1.3246 -1.0067
13774TIP3    H262738   2.535   5.285  15.971  0.7653 -0.9364 -0.9112
13775TIP3   OH262739   2.296   4.155  13.239 -0.0070  0.1835 -0.6489
13775TIP3    H162740   2.377   4.125  13.281 -1.0701 -1.5171  0.3170
13775TIP3    H262741   2.264   4.225  13.295  0.8817  1.0260 -1.1632
13776TIP3   OH262742   1.007   1.831   0.343  0.0626  0.2278  0.1790
13776TIP3    H162743   1.082   1.773   0.334  0.1241  0.2961  0.2537
13776TIP3    H262744   1.045   1.918   0.355 -0.0106  0.1356  1.1894
13777TIP3   OH262745   1.914   6.700  15.996 -0.5440  0.1780  0.4870
13777TIP3    H162746   2.000   6.694  15.955 -1.4931 -0.3004 -1.5663
13777TIP3    H262747   1.930   6.740  16.081  1.4241  2.1431 -0.7266
13778TIP3   OH262748   4.529   4.495  15.107  0.0314 -0.1771 -0.4289
13778TIP3    H162749   4.488   4.425  15.056 -1.5954 -2.0220  3.0513
13778TIP3    H262750   4.621   4.469  15.115  0.0153 -0.5225 -1.2898
13779TIP3   OH262751   1.619   1.328  15.039  0.3027  0.3141 -0.1157
13779TIP3    H162752   1.667   1.404  15.071 -1.3045  1.6002 -0.5868
13779TIP3    H262753   1.585   1.286  15.118 -0.0482  0.9670  0.0867
13780TIP3   OH262754   3.578   2.147   1.740 -0.0231  0.0370  0.4401
13780TIP3    H162755   3.560   2.222   1.683  2.5618  0.1869 -0.2809
13780TIP3    H262756   3.598   2.076   1.679  2.7852  0.1942  1.0717
13781TIP3   OH262757   5.149   2.877  15.042  0.2020  0.4733  0.5047
13781TIP3    H162758   5.208   2.916  14.977 -0.4855  0.7144  0.0063
13781TIP3    H262759   5.127   2.950  15.100  0.2638  0.4231  0.5906
13782TIP3   OH262760   2.599   3.245  16.377  0.2736 -0.5601 -0.1611
13782TIP3    H162761   2.569   3.289  16.298 -0.6019 -0.5616  0.1595
13782TIP3    H262762   2.681   3.287  16.398  0.0523  0.0817 -0.5455
13783TIP3   OH262763   0.861   6.750   0.154 -0.5426  0.5796  0.0817
13783TIP3    H162764   0.853   6.704   0.238 -1.1314 -0.6233 -0.6071
13783TIP3    H262765   0.885   6.840   0.178  0.1378  0.0444  1.4915
13784TIP3   OH262766   1.445   2.263   0.753  0.4437  0.3559 -0.2660
13784TIP3    H162767   1.395   2.184   0.772  0.5630  0.4379  0.4304
13784TIP3    H262768   1.496   2.279   0.833  2.1865 -0.1796 -1.2144
13785TIP3   OH262769   5.299   0.324  13.201  0.2169  0.3094  0.2689
13785TIP3    H162770   5.286   0.280  13.285 -0.5459  1.6966  0.9034
13785TIP3    H262771   5.267   0.261  13.136  1.6756 -1.1567  0.9111
13786TIP3   OH262772   5.112   1.780   5.087  0.0359  0.2876  0.2426
13786TIP3    H162773   5.096   1.851   5.025  0.5414  0.4869  0.3388
13786TIP3    H262774   5.043   1.790   5.152  1.3946  2.1028  1.5120
13787TIP3   OH262775   0.662   5.237   3.453 -0.0916  0.6177  0.5925
13787TIP3    H162776   0.583   5.186   3.432  1.1669 -1.6638  1.0467
13787TIP3    H262777   0.721   5.173   3.493  2.4002  2.0117 -0.6582
13788TIP3   OH262778   6.004   3.436   2.710 -1.0185 -0.1062 -0.5433
13788TIP3    H162779   5.986   3.342   2.718 -0.2755 -0.4212 -2.0969
13788TIP3    H262780   6.072   3.453   2.776 -2.6066 -0.1756  1.1848
13789TIP3   OH262781   5.126   6.447   1.310  0.7167  0.6599 -0.2525
13789TIP3    H162782   5.042   6.443   1.356  0.5668  2.3376 -0.3348
13789TIP3    H262783   5.177   6.375   1.348 -0.4448  0.1507  0.4062
13790TIP3   OH262784   6.657   0.906  16.480 -0.2984 -0.4242  0.3634
13790TIP3    H162785   6.606   0.899  16.561 -1.3230  4.0453  0.3919
13790TIP3    H262786   6.608   0.856  16.416 -0.3846 -2.6566  2.0622
13791TIP3   OH262787   2.416   1.447   2.405 -0.0436  0.4488  0.1182
13791TIP3    H162788   2.476   1.514   2.372  2.9128 -0.5019  2.9875
13791TIP3    H262789   2.347   1.496   2.449  0.7578  1.6131  0.1094
13792TIP3   OH262790   2.952   2.190   4.575 -0.0700 -0.5562  0.5229
13792TIP3    H162791   3.005   2.210   4.498 -1.9851  0.7941 -0.5365
13792TIP3    H262792   2.963   2.267   4.631  1.3529 -1.5525  1.6912
13793TIP3   OH262793   3.699   5.068   2.289  0.2348  0.0356  0.0674
13793TIP3    H162794   3.691   4.973   2.301 -0.1106  0.0883  0.2627
13793TIP3    H262795   3.610   5.101   2.298  0.4056  0.4223  0.3462
13794TIP3   OH262796   2.285   1.531  12.491  0.1840 -1.0253  0.1857
13794TIP3    H162797   2.323   1.447  12.464  0.7620 -0.4744 -0.7973
13794TIP3    H262798   2.323   1.594  12.430 -1.8280 -0.3299 -0.4105
13795TIP3   OH262799   4.718   1.222  12.024 -0.3946  0.1170  0.7612
13795TIP3    H162800   4.782   1.286  11.991  1.8318 -2.0843  0.4664
13795TIP3    H262801   4.664   1.202  11.947  0.4290 -0.0802  0.2179
13796TIP3   OH262802   3.618   1.143   1.414  0.0498  0.3652 -0.0043
13796TIP3    H162803   3.663   1.074   1.461 -1.7019 -0.1397  1.0418
13796TIP3    H262804   3.659   1.144   1.327  0.6691 -1.4130  0.2306
13797TIP3   OH262805   2.752   4.177   5.159  0.3080 -0.1747  0.0977
13797TIP3    H162806   2.693   4.206   5.229  0.4581  1.0312 -0.2427
13797TIP3    H262807   2.700   4.115   5.109 -0.6820  0.8176 -0.1599
13798TIP3   OH262808   4.780   1.724  10.668 -0.4350  0.0422  0.3451
13798TIP3    H162809   4.836   1.767  10.604 -1.0787 -0.9489 -0.9468
13798TIP3    H262810   4.693   1.762  10.654 -0.3452  0.7175  1.5112
13799TIP3   OH262811   0.392   5.868   4.134 -0.1465  0.3987 -0.1151
13799TIP3    H162812   0.401   5.882   4.039  0.7269 -0.2665 -0.1468
13799TIP3    H262813   0.448   5.792   4.152  0.8566  1.3895  1.1564
13800TIP3   OH262814   3.119   4.080  13.883  0.2026  0.1033 -0.3202
13800TIP3    H162815   3.114   3.988  13.858 -1.4457 -0.1626  0.7919
13800TIP3    H262816   3.161   4.080  13.969  0.8404  0.4637 -0.6273
13801TIP3   OH262817   4.953   6.558   4.774  0.4265 -0.4794 -0.1303
13801TIP3    H162818   4.993   6.641   4.751  0.7146 -0.4482  0.4712
13801TIP3    H262819   4.976   6.499   4.701  0.4250 -0.1060 -0.4374
13802TIP3   OH262820   6.252   6.516  12.346  0.1443  0.0049  0.8397
13802TIP3    H162821   6.278   6.499  12.437 -0.4318  1.1202  1.2286
13802TIP3    H262822   6.334   6.512  12.297  0.2977 -1.9690  1.1659
13803TIP3   OH262823   2.082   2.945   2.335  0.4237  0.1552  0.1050
13803TIP3    H162824   2.136   2.925   2.259 -2.2852  0.7301 -2.1513
13803TIP3    H262825   2.058   3.037   2.325 -1.9201 -0.3682  0.2625
13804TIP3   OH262826   5.104   5.169  13.314  0.3126  0.0504  0.2518
13804TIP3    H162827   5.130   5.260  13.328  0.0751  0.4409 -1.5616
13804TIP3    H262828   5.185   5.119  13.326  0.6741  0.6252  0.2330
13805TIP3   OH262829   1.205   3.340  17.116  0.1795 -0.4551 -0.2285
13805TIP3    H162830   1.176   3.336  17.207  0.6212  0.8019 -0.0191
13805TIP3    H262831   1.127   3.319  17.065 -0.4293  0.2100  0.4044
13806TIP3   OH262832   6.594   2.145  13.748 -0.2816 -0.2703 -1.0230
13806TIP3    H162833   6.571   2.108  13.833 -0.6693 -0.6587 -1.2957
13806TIP3    H262834   6.513   2.141  13.697  0.0687 -0.4828 -1.5710
13807TIP3   OH262835   5.782   2.430  12.104 -0.0043 -0.1474 -0.0719
13807TIP3    H162836   5.794   2.335  12.107 -0.6932 -0.2336  0.1694
13807TIP3    H262837   5.830   2.463  12.179  0.6659 -0.2550 -0.4500
13808TIP3   OH262838   2.284   1.700  13.436 -0.3707  0.3283 -0.7938
13808TIP3    H162839   2.230   1.630  13.401 -1.8652  0.6586  0.6792
13808TIP3    H262840   2.295   1.678  13.529 -0.1633  1.6079 -0.4940
13809TIP3   OH262841   5.079   0.023   2.459  0.2231 -0.1728 -0.1477
13809TIP3    H162842   5.155  -0.035   2.456  0.6302  0.3815 -0.7842
13809TIP3    H262843   5.103   0.097   2.404 -0.7659  0.0371 -0.3112
13810TIP3   OH262844   2.577   0.975   4.185  0.2682  0.2864  0.6063
13810TIP3    H162845   2.601   1.067   4.171  0.6525 -0.1382 -2.0924
13810TIP3    H262846   2.485   0.970   4.160  0.5410 -0.2277 -0.3694
13811TIP3   OH262847   4.534   6.396  15.213  0.3061  0.2222 -0.8277
13811TIP3    H162848   4.509   6.309  15.244 -0.3207  0.6551 -0.0773
13811TIP3    H262849   4.626   6.404  15.238  0.0903  0.1570  0.0217
13812TIP3   OH262850   2.360   6.275  16.258 -0.3195 -0.3632 -0.3856
13812TIP3    H162851   2.412   6.218  16.202  0.8777 -0.5995  0.9182
13812TIP3    H262852   2.308   6.215  16.312 -1.6822 -0.1349 -1.3934
13813TIP3   OH262853   4.207   5.952   3.529 -0.1333 -0.2740  0.1702
13813TIP3    H162854   4.272   5.887   3.556 -0.5790 -0.1372  1.6229
13813TIP3    H262855   4.158   5.909   3.459 -0.1957 -1.3695  0.8643
13814TIP3   OH262856   5.553   2.701   1.049  0.0001 -0.6223 -0.1460
13814TIP3    H162857   5.586   2.623   1.094  1.7791 -0.0739 -0.4232
13814TIP3    H262858   5.613   2.771   1.075 -0.4098  0.2343 -1.4159
13815TIP3   OH262859   3.654   5.259   5.099 -0.2063  0.1327 -0.3980
13815TIP3    H162860   3.663   5.279   5.005  0.2621  0.5551 -0.2635
13815TIP3    H262861   3.576   5.308   5.125  1.1492  2.1983  0.0171
13816TIP3   OH262862   1.711   1.363  15.840 -0.0114 -0.5174 -0.1306
13816TIP3    H162863   1.686   1.388  15.928  0.1031 -0.9213  0.0219
13816TIP3    H262864   1.660   1.419  15.783 -1.4118 -1.4531  0.1613
13817TIP3   OH262865   1.860   1.260  16.564  0.0300  0.1552  0.1004
13817TIP3    H162866   1.819   1.261  16.477  1.1276  1.6124 -0.4300
13817TIP3    H262867   1.871   1.167  16.583  1.0259 -0.2146 -1.9441
13818TIP3   OH262868   0.486   1.071   5.251 -0.2609 -0.0042 -0.0191
13818TIP3    H162869   0.519   1.109   5.170  0.4428 -1.0580 -0.2446
13818TIP3    H262870   0.393   1.057   5.234 -0.2612  0.4137 -0.3925
13819TIP3   OH262871   0.233   2.779   4.796  0.3173 -0.8356  0.3121
13819TIP3    H162872   0.240   2.852   4.735  0.0015 -1.5186 -0.5639
13819TIP3    H262873   0.219   2.820   4.881 -1.6743  0.1006 -0.4134
13820TIP3   OH262874   5.529   0.576   0.627 -0.5118  0.1175 -0.8643
13820TIP3    H162875   5.563   0.622   0.550  3.7252  1.7676  1.6590
13820TIP3    H262876   5.575   0.492   0.626 -0.3789  0.1812 -0.1256
13821TIP3   OH262877   5.284   3.507  11.549 -0.1186 -0.0374  0.6788
13821TIP3    H162878   5.277   3.413  11.533 -0.4703  0.0189  0.5011
13821TIP3    H262879   5.199   3.532  11.586  0.6443 -0.1715  2.6754
13822TIP3   OH262880   6.477   6.519   2.885 -0.3158 -0.4142 -0.3340
13822TIP3    H162881   6.514   6.483   2.805 -0.2321 -1.1788  0.0442
13822TIP3    H262882   6.465   6.444   2.943  0.4398  0.2272  0.7028
13823TIP3   OH262883   6.427   0.410   0.343  0.1023  0.1901 -0.1931
13823TIP3    H162884   6.457   0.501   0.350  0.4540  0.0997 -0.4843
13823TIP3    H262885   6.404   0.386   0.432  3.5567 -0.6240  0.6169
13824TIP3   OH262886   4.502   2.434  13.003  0.0197 -0.0264 -0.3886
13824TIP3    H162887   4.524   2.514  12.954  0.0892 -0.3443 -0.8850
13824TIP3    H262888   4.586   2.404  13.037 -0.0968  0.4684  0.3606
13825TIP3   OH262889   3.938   0.011  12.163  0.6428  0.0852 -0.1474
13825TIP3    H162890   3.922   0.040  12.253  0.1271 -2.3221  0.5977
13825TIP3    H262891   4.011  -0.050  12.170  0.7268  0.0229 -1.4000
13826TIP3   OH262892   0.625   0.195   1.595  0.3043  0.2994  0.2541
13826TIP3    H162893   0.598   0.160   1.680 -0.1993  0.3985  0.1389
13826TIP3    H262894   0.617   0.121   1.535  2.4036 -0.2898  0.6017
13827TIP3   OH262895   4.315   2.753  13.820  0.6248 -0.1485 -0.2888
13827TIP3    H162896   4.269   2.706  13.890  0.7014 -0.3650 -0.3814
13827TIP3    H262897   4.288   2.708  13.740  1.1756 -0.4238 -0.3217
13828TIP3   OH262898   4.044   0.546  13.100 -0.0669  0.0680  0.5002
13828TIP3    H162899   3.988   0.567  13.026  1.9618  1.9256 -0.6141
13828TIP3    H262900   4.040   0.622  13.157  2.4100  0.9843 -0.3875
13829TIP3   OH262901   0.870   5.903   3.261  0.1115  1.1892  0.1357
13829TIP3    H162902   0.937   5.840   3.235 -0.5302  0.2788  0.6141
13829TIP3    H262903   0.833   5.866   3.341  0.4422  2.7233  1.0471
13830TIP3   OH262904   4.750   2.388   4.672  0.0570 -0.5764 -0.1006
13830TIP3    H162905   4.836   2.429   4.676 -0.5736  0.7453  0.3204
13830TIP3    H262906   4.768   2.294   4.675  1.5771 -0.3896 -1.7172
13831TIP3   OH262907   0.613   3.850   1.396  0.2935 -0.2618 -0.1305
13831TIP3    H162908   0.523   3.837   1.425  0.4148 -0.5898  0.0981
13831TIP3    H262909   0.656   3.765   1.409  0.5849 -0.1640 -0.4208
13832TIP3   OH262910   1.765   6.050  12.407 -0.3727 -0.2414 -0.0521
13832TIP3    H162911   1.687   6.088  12.369  0.3096 -0.0954 -1.3550
13832TIP3    H262912   1.733   5.979  12.463 -1.4968  0.6759  0.5120
13833TIP3   OH262913   0.787   1.802  16.444  0.1268 -0.2154  0.4122
13833TIP3    H162914   0.859   1.755  16.403  0.6589  2.4541 -2.0610
13833TIP3    H262915   0.722   1.734  16.464  2.2131 -2.3579  0.3674
13834TIP3   OH262916   3.996   3.345  16.510  0.0687 -0.0196 -0.7727
13834TIP3    H162917   4.079   3.323  16.470  1.4075 -0.1543  1.8376
13834TIP3    H262918   4.013   3.342  16.604 -3.1630 -1.1530 -0.0809
13835TIP3   OH262919   4.248   3.843   0.897  0.6497 -0.1165 -0.2534
13835TIP3    H162920   4.281   3.808   0.814 -1.3242 -1.2739 -0.6126
13835TIP3    H262921   4.238   3.937   0.882 -1.1680 -0.5176 -1.9193
13836TIP3   OH262922   2.156   4.560  14.814 -0.1926 -0.0897  0.1685
13836TIP3    H162923   2.229   4.499  14.820 -0.0586  0.2024  2.3282
13836TIP3    H262924   2.110   4.551  14.897 -1.4884  1.1357 -0.3707
13837TIP3   OH262925   6.779   0.994   0.505 -0.0873 -0.0026  0.0018
13837TIP3    H162926   6.709   1.002   0.571 -1.4692  0.6672 -1.4733
13837TIP3    H262927   6.844   0.938   0.546 -1.0313  0.1650  1.8314
13838TIP3   OH262928   5.127   4.856   4.297 -0.1332  0.5939  0.1466
13838TIP3    H162929   5.145   4.846   4.391  1.1204 -0.5897 -0.1920
13838TIP3    H262930   5.103   4.768   4.268  1.1593  0.5841 -0.9668
13839TIP3   OH262931   5.772   2.856   2.197  0.3522 -0.8845  0.5417
13839TIP3    H162932   5.862   2.871   2.226  1.8159 -1.1488 -3.2737
13839TIP3    H262933   5.779   2.784   2.134 -2.2957 -0.1287 -0.7700
13840TIP3   OH262934   3.362   0.648   1.787 -0.4160  0.0333  0.7017
13840TIP3    H162935   3.276   0.689   1.800  0.0136  1.1267  0.1886
13840TIP3    H262936   3.366   0.630   1.693  0.0823  0.3987  0.6455
13841TIP3   OH262937   1.320   0.722  11.818 -0.3935 -0.1971 -0.1911
13841TIP3    H162938   1.371   0.724  11.737  0.0021  0.6824  0.0609
13841TIP3    H262939   1.358   0.650  11.868 -0.4489 -0.5599 -0.6607
13842TIP3   OH262940   0.030   4.462   5.696  0.6791  0.3553 -0.4221
13842TIP3    H162941  -0.017   4.539   5.663  1.1701  0.3220 -1.2296
13842TIP3    H262942  -0.039   4.399   5.717  0.3556 -0.3514 -3.2317
13843TIP3   OH262943   0.975   0.236   3.195 -0.6508  0.2079 -0.1123
13843TIP3    H162944   1.043   0.301   3.176  0.1462  0.4921  3.2125
13843TIP3    H262945   0.936   0.218   3.109  2.3200  1.4323 -1.9006
13844TIP3   OH262946   2.279   0.906  12.900  0.0838 -0.2528 -0.0410
13844TIP3    H162947   2.321   0.923  12.816 -1.5031 -1.4161 -1.1123
13844TIP3    H262948   2.307   0.817  12.923 -0.7176 -0.5210 -0.0997
13845TIP3   OH262949   5.967   6.544  14.883  0.2192  0.4448  0.4551
13845TIP3    H162950   5.894   6.536  14.821  0.3006 -0.4118  0.4463
13845TIP3    H262951   6.040   6.500  14.839  0.3914  0.2010  0.9780
13846TIP3   OH262952   1.141   0.160   5.237  0.3701 -0.1002  0.4769
13846TIP3    H162953   1.169   0.241   5.278  0.2880  1.1334 -1.7302
13846TIP3    H262954   1.052   0.178   5.205  0.7740 -0.6085 -1.0580
13847TIP3   OH262955   3.672   6.057  16.401 -0.1836 -0.0829  0.7079
13847TIP3    H162956   3.704   5.989  16.341 -0.4785  0.5750 -0.2282
13847TIP3    H262957   3.613   6.010  16.460  1.1700 -0.9938  1.3807
13848TIP3   OH262958   4.431   6.541   2.164 -0.5407  0.3311  0.1139
13848TIP3    H162959   4.470   6.532   2.077 -0.4610 -0.1137  0.1925
13848TIP3    H262960   4.503   6.571   2.219 -1.1369  3.0419 -0.4384
13849TIP3   OH262961   3.387   3.690  11.343 -0.2536  0.7578  0.2201
13849TIP3    H162962   3.471   3.737  11.344 -0.3157  0.8862 -0.3553
13849TIP3    H262963   3.324   3.754  11.376 -0.0933  0.5814  0.8959
13850TIP3   OH262964   2.296   4.281  15.288 -0.9543  0.2874 -0.2412
13850TIP3    H162965   2.323   4.251  15.374 -1.9260  0.8771  0.2850
13850TIP3    H262966   2.367   4.253  15.229 -1.3616 -2.1310  0.3465
13851TIP3   OH262967   4.647   1.892   6.107  0.2240 -0.7151  0.4884
13851TIP3    H162968   4.722   1.850   6.147 -0.0699 -1.1410  0.5942
13851TIP3    H262969   4.613   1.951   6.175  2.2937  1.8726 -0.5378
13852TIP3   OH262970   0.172   4.616   0.079 -0.2287 -0.3744 -0.0827
13852TIP3    H162971   0.095   4.620   0.023 -0.6027  1.1721  0.4697
13852TIP3    H262972   0.229   4.552   0.038 -0.4208  0.7916 -2.3197
13853TIP3   OH262973   4.285   2.941  10.814  0.5290  0.1881 -0.1689
13853TIP3    H162974   4.281   2.963  10.907  1.0027  1.6043 -0.4618
13853TIP3    H262975   4.332   3.013  10.774  2.3173 -1.4711 -1.2107
13854TIP3   OH262976   3.546   0.049   2.312  0.9184  0.2766 -0.1895
13854TIP3    H162977   3.579   0.055   2.401 -1.1930  0.5914  0.6290
13854TIP3    H262978   3.522   0.139   2.289  1.3898  0.1896 -1.0729
13855TIP3   OH262979   1.356   6.277   6.329  0.1501  0.9339 -0.3044
13855TIP3    H162980   1.376   6.370   6.317  0.2454  1.1760  1.4611
13855TIP3    H262981   1.265   6.276   6.358  0.3711  0.5550  0.4015
13856TIP3   OH262982   4.205   5.913   4.244  0.0464 -0.0241 -0.0649
13856TIP3    H162983   4.145   5.982   4.216 -1.6457 -1.7891 -1.1220
13856TIP3    H262984   4.167   5.880   4.326  1.0063  0.4718  0.5919
13857TIP3   OH262985   6.211   3.546   1.780  0.2724 -0.2564  0.5379
13857TIP3    H162986   6.140   3.501   1.826  0.8399  0.3485  2.0715
13857TIP3    H262987   6.290   3.520   1.827  1.0018 -0.3248 -0.6770
13858TIP3   OH262988   5.960   3.548   2.038  0.3155 -0.5265  0.3725
13858TIP3    H162989   5.911   3.466   2.048  0.3424 -0.7796 -1.2558
13858TIP3    H262990   6.050   3.524   2.060  0.8224 -1.6472 -2.4704
13859TIP3   OH262991   2.534   1.108   3.196  0.8050 -0.2450 -0.0882
13859TIP3    H162992   2.559   1.108   3.288 -0.1467 -0.4018  0.1828
13859TIP3    H262993   2.604   1.155   3.152  1.8630 -1.1772  0.5474
13860TIP3   OH262994   4.084   1.369   4.679  0.6670 -0.3503 -0.8244
13860TIP3    H162995   4.022   1.318   4.627  0.1909 -1.2896  0.6249
13860TIP3    H262996   4.036   1.447   4.705  0.1124 -0.9898  0.1409
13861TIP3   OH262997   4.483   1.279  16.250  0.8020  0.1426  0.8854
13861TIP3    H162998   4.443   1.344  16.309 -2.0574 -0.1252 -0.5802
13861TIP3    H262999   4.466   1.195  16.293  0.8723  0.1073  0.8428
13862TIP3   OH263000   5.007   2.809   0.185  0.3670 -0.1820 -0.8589
13862TIP3    H163001   5.086   2.809   0.240 -1.5120 -1.6264  2.1227
13862TIP3    H263002   4.995   2.718   0.160 -1.2290 -0.3007  0.2065
13863TIP3   OH263003   4.707   5.664  15.339 -1.3896 -0.5479 -0.0229
13863TIP3    H163004   4.669   5.650  15.252 -1.2247  2.8298 -0.8090
13863TIP3    H263005   4.797   5.691  15.321 -0.8302 -1.4246  1.3375
13864TIP3   OH263006   5.009   3.868   0.992  0.1285 -0.1167 -0.1530
13864TIP3    H163007   5.050   3.926   0.928  2.2347 -0.5230  0.7581
13864TIP3    H263008   5.081   3.834   1.045 -0.7295 -4.5426 -1.3550
13865TIP3   OH263009   1.521   5.873   1.451  0.7069 -0.6050 -1.0684
13865TIP3    H163010   1.570   5.853   1.371  1.9519  1.9870 -1.0635
13865TIP3    H263011   1.481   5.790   1.476  2.0701 -1.9943 -3.1566
13866TIP3   OH263012   1.030   5.626  11.349  0.1766 -0.1691 -0.3524
13866TIP3    H163013   1.067   5.604  11.264 -0.3419 -1.4150 -0.2870
13866TIP3    H263014   0.942   5.588  11.347  0.0407  0.0695  0.6151
13867TIP3   OH263015   4.307   0.781   3.131 -0.4063 -0.3865 -0.2575
13867TIP3    H163016   4.232   0.722   3.119 -0.9751  0.2690 -0.0293
13867TIP3    H263017   4.291   0.853   3.069 -0.0348 -0.1836 -0.1192
13868TIP3   OH263018   5.573   0.400  16.984  0.2239  0.2939 -0.1294
13868TIP3    H163019   5.621   0.367  16.908  2.5021 -1.3073  1.8309
13868TIP3    H263020   5.618   0.482  17.006  0.7363 -0.1367  0.4728
13869TIP3   OH263021   4.065   2.910   0.243  0.2986  0.0051 -0.0087
13869TIP3    H163022   4.101   2.939   0.159 -1.9010  0.2179 -0.9441
13869TIP3    H263023   3.988   2.859   0.220  1.3237 -2.6152  1.8041
13870TIP3   OH263024   1.384   4.154  16.772  0.2121  0.5959 -0.4525
13870TIP3    H163025   1.391   4.060  16.788 -2.0118  0.2165 -1.3763
13870TIP3    H263026   1.337   4.188  16.849  2.2534  1.2649  0.5858
13871TIP3   OH263027   0.356   0.327   1.556  0.2907  0.3790  0.1618
13871TIP3    H163028   0.400   0.305   1.638 -0.9146  0.5170  0.8633
13871TIP3    H263029   0.426   0.361   1.500  1.6361 -2.1496  0.1541
13872TIP3   OH263030   3.644   5.228  16.496 -0.2687  0.1766  0.2792
13872TIP3    H163031   3.713   5.163  16.481  0.6125  1.0653  0.3999
13872TIP3    H263032   3.563   5.180  16.481  0.4047 -0.3369 -2.1021
13873TIP3   OH263033   3.870   4.945  13.330  0.5786  0.2790 -0.3366
13873TIP3    H163034   3.856   4.976  13.419  0.6081  1.4512 -0.7225
13873TIP3    H263035   3.895   4.853  13.340 -3.6815 -0.9694  0.6149
13874TIP3   OH263036   1.127   2.953  14.429  0.0992 -0.4985 -0.1609
13874TIP3    H163037   1.196   2.974  14.492 -1.2275  0.1062  1.1428
13874TIP3    H263038   1.116   2.859  14.436 -1.5023 -0.2134  2.1711
13875TIP3   OH263039   5.195   1.198   0.647 -0.8880 -0.4849 -0.4933
13875TIP3    H163040   5.270   1.256   0.635 -0.1211 -1.4136 -0.2515
13875TIP3    H263041   5.172   1.206   0.739 -0.3270 -1.1058 -0.2966
13876TIP3   OH263042   5.904   0.980  13.717  0.0619 -0.2756 -0.1706
13876TIP3    H163043   5.952   1.063  13.713  0.0699 -0.2627  0.1535
13876TIP3    H263044   5.958   0.924  13.772  1.0394 -1.1578 -1.9395
13877TIP3   OH263045   0.005   4.696  12.389  0.3361  0.1363 -0.5576
13877TIP3    H163046   0.006   4.674  12.482  1.4082  3.4903  0.3420
13877TIP3    H263047   0.094   4.676  12.359  0.7190  1.3115 -0.2320
13878TIP3   OH263048   6.306   3.831   5.228  0.1585  0.7401 -0.1256
13878TIP3    H163049   6.384   3.809   5.279  1.0417  1.4109 -1.1385
13878TIP3    H263050   6.322   3.920   5.197  0.8003 -0.3639 -3.4761
13879TIP3   OH263051   5.432   3.938  14.750  0.1787 -0.3198  0.4556
13879TIP3    H163052   5.363   3.874  14.763 -0.7026  0.3158 -0.8883
13879TIP3    H263053   5.489   3.927  14.826 -0.7004 -1.7198  0.9568
13880TIP3   OH263054   0.012   2.600  12.727  0.3856 -0.1742  0.4374
13880TIP3    H163055   0.100   2.570  12.705  0.3272  0.3904 -0.6361
13880TIP3    H263056  -0.018   2.646  12.648 -0.3195  0.8972  1.3027
13881TIP3   OH263057   3.648   5.333  13.797 -0.1149 -0.2472  0.0895
13881TIP3    H163058   3.563   5.300  13.766  0.1236 -0.3340 -0.4785
13881TIP3    H263059   3.648   5.426  13.773  0.1052 -0.3336 -0.2429
13882TIP3   OH263060   6.774   5.474   4.627  0.5505  0.2762 -0.4210
13882TIP3    H163061   6.732   5.477   4.713  2.9786 -1.5324  0.9524
13882TIP3    H263062   6.701   5.463   4.566 -1.4536  3.5749  1.0768
13883TIP3   OH263063   2.607   3.370  12.015 -1.2140  0.0624  0.2547
13883TIP3    H163064   2.681   3.431  12.009 -0.6373 -0.6073  0.3841
13883TIP3    H263065   2.608   3.322  11.932 -1.6957  0.2578  0.1318
13884TIP3   OH263066   0.693   3.525   0.097 -0.0913 -0.1411 -0.0971
13884TIP3    H163067   0.638   3.478   0.159 -0.3633 -0.1582 -0.3509
13884TIP3    H263068   0.699   3.468   0.020 -1.8572  0.9518 -1.1094
13885TIP3   OH263069   1.622   4.333   0.769 -0.0441  0.3191 -0.2301
13885TIP3    H163070   1.560   4.261   0.763  2.5631 -2.1669  0.5044
13885TIP3    H263071   1.642   4.356   0.678 -0.5165 -0.2413 -0.4784
13886TIP3   OH263072   4.842   5.854   2.456  0.9055 -0.5860 -0.3360
13886TIP3    H163073   4.861   5.909   2.531  0.0112 -0.2224 -0.3659
13886TIP3    H263074   4.889   5.772   2.474 -1.0559 -1.3585  1.7127
13887TIP3   OH263075   5.330   6.217   3.377  0.4166 -0.1954  0.0609
13887TIP3    H163076   5.243   6.229   3.340  0.2389  2.3578  1.0559
13887TIP3    H263077   5.325   6.135   3.426 -0.9467 -0.8212 -1.0532
13888TIP3   OH263078   4.096   3.783   2.290 -0.1978  0.1241 -0.1213
13888TIP3    H163079   4.132   3.743   2.369 -3.1493 -1.1065  0.7594
13888TIP3    H263080   4.131   3.872   2.289  1.7592 -0.5709  1.2256
13889TIP3   OH263081   6.568   1.089   3.215 -0.7253 -0.7708 -0.2299
13889TIP3    H163082   6.527   1.159   3.164  0.3490 -0.3845 -0.5814
13889TIP3    H263083   6.502   1.066   3.280 -0.4903  1.7828  1.0450
13890TIP3   OH263084   2.812   3.519  11.180  0.1400  0.2663  0.4073
13890TIP3    H163085   2.892   3.477  11.211  1.0309  2.1066  0.6840
13890TIP3    H263086   2.842   3.590  11.123 -1.2603  1.5346  1.1902
13891TIP3   OH263087   3.872   1.227  15.798 -0.3488  0.4561  0.2321
13891TIP3    H163088   3.939   1.232  15.729  0.5878 -2.7171  0.7162
13891TIP3    H263089   3.789   1.218  15.750  0.2373 -1.1711 -0.5706
13892TIP3   OH263090   6.063   6.348   3.132  0.0776 -0.1830  0.3641
13892TIP3    H163091   6.009   6.343   3.211  0.5088  1.4092  0.7932
13892TIP3    H263092   6.151   6.367   3.165  0.0738  1.5764 -0.5219
13893TIP3   OH263093   0.492   1.451  14.656  0.0810 -1.0558  0.0708
13893TIP3    H163094   0.441   1.527  14.625  2.0354  0.6975  0.9497
13893TIP3    H263095   0.449   1.425  14.737 -0.8495 -1.1716 -0.4439
13894TIP3   OH263096   5.954   0.453  16.558  1.1679 -0.0442 -0.0020
13894TIP3    H163097   6.003   0.469  16.639  3.3559 -0.4329 -1.1757
13894TIP3    H263098   5.978   0.364  16.532 -2.2953 -1.3589  0.6889
13895TIP3   OH263099   1.524   0.565   5.648  0.0922 -0.5313  0.2214
13895TIP3    H163100   1.572   0.488   5.677  0.2257 -0.7723 -0.6154
13895TIP3    H263101   1.513   0.553   5.553  0.7721  0.8111 -0.0702
13896TIP3   OH263102   0.184   0.588  16.513 -0.1397 -0.6092  0.6034
13896TIP3    H163103   0.245   0.526  16.473  1.5177  1.4511 -0.2965
13896TIP3    H263104   0.235   0.669  16.520 -3.1775  1.7269 -1.6623
13897TIP3   OH263105   4.250   1.963   1.259 -0.0829 -0.0567 -0.4067
13897TIP3    H163106   4.161   1.996   1.272  0.2382  0.4066  0.7631
13897TIP3    H263107   4.292   2.029   1.204 -0.8988 -1.0642 -2.3159
13898TIP3   OH263108   0.553   5.543   1.416 -0.2539 -0.0581 -0.3951
13898TIP3    H163109   0.601   5.624   1.426  0.7280 -0.2194 -3.0826
13898TIP3    H263110   0.531   5.517   1.505  2.4722  1.3172  0.7837
13899TIP3   OH263111   3.887   0.115   5.306  0.2437  0.1290 -0.0700
13899TIP3    H163112   3.813   0.175   5.297  0.0040 -0.4240 -2.4190
13899TIP3    H263113   3.961   0.170   5.331 -0.8373  0.7389  1.9606
13900TIP3   OH263114   3.592   3.945  11.331 -0.0198  0.2904 -0.0406
13900TIP3    H163115   3.641   3.863  11.341 -0.4321 -0.0113 -0.4117
13900TIP3    H263116   3.581   3.954  11.237 -0.2713  0.5958  0.0185
13901TIP3   OH263117   0.837   5.435  10.414 -0.0966 -0.0736  0.5919
13901TIP3    H163118   0.819   5.508  10.473 -0.2940 -0.7495  1.3849
13901TIP3    H263119   0.808   5.357  10.462  2.1339 -0.9232  0.7069
13902TIP3   OH263120   4.352   3.790  12.273 -0.0366  0.4447  0.7085
13902TIP3    H163121   4.446   3.810  12.277  0.1471 -0.0795 -0.4040
13902TIP3    H263122   4.349   3.694  12.271 -0.4779  0.4556 -0.9200
13903TIP3   OH263123   6.787   1.100  15.055 -0.8693  0.1629  0.0065
13903TIP3    H163124   6.764   1.094  15.148  0.2402 -2.7135  0.1881
13903TIP3    H263125   6.883   1.094  15.054 -0.7851  1.2853 -1.2958
13904TIP3   OH263126   5.005   2.691   1.032  0.0236  0.1489  0.1619
13904TIP3    H163127   5.089   2.677   1.074  0.7185  0.2019 -1.1682
13904TIP3    H263128   4.967   2.766   1.078  0.5961 -0.0161  0.9170
13905TIP3   OH263129   1.207   4.752  14.062  0.4453 -0.6636 -0.1311
13905TIP3    H163130   1.252   4.777  13.981  0.0976 -0.5615 -0.2988
13905TIP3    H263131   1.208   4.832  14.115  1.5815 -1.0120  0.4067
13906TIP3   OH263132   6.231   2.524  13.783  0.2710  0.3479  0.0802
13906TIP3    H163133   6.313   2.573  13.775 -0.3288  1.3003 -0.5101
13906TIP3    H263134   6.230   2.466  13.707 -0.5415  1.8507 -1.1235
13907TIP3   OH263135   0.097   4.458  13.365 -0.6283 -0.0180 -0.2653
13907TIP3    H163136   0.131   4.507  13.440 -0.3509 -1.3152  0.4912
13907TIP3    H263137   0.162   4.388  13.351 -0.9756 -0.1424 -1.3462
13908TIP3   OH263138   1.594   5.437  16.280 -0.0876  0.0712  0.5747
13908TIP3    H163139   1.663   5.501  16.296  1.5539 -1.6310  0.6961
13908TIP3    H263140   1.567   5.410  16.368 -0.1602 -0.0200  0.5244
13909TIP3   OH263141   4.571   3.236   2.994  0.1722 -0.0976  0.4149
13909TIP3    H163142   4.517   3.173   2.946  0.0500 -0.7853  1.4288
13909TIP3    H263143   4.640   3.260   2.932 -0.8740  0.2498 -0.6395
13910TIP3   OH263144   5.177   3.800  14.587  0.2251 -0.1787  0.3108
13910TIP3    H163145   5.263   3.813  14.546  0.2574  0.5453  0.6065
13910TIP3    H263146   5.156   3.708  14.568  0.1066  0.2020 -1.5889
13911TIP3   OH263147   1.337   6.375  12.312  0.1499  0.3661  0.0822
13911TIP3    H163148   1.297   6.387  12.226  0.1908 -0.4830 -0.0655
13911TIP3    H263149   1.266   6.345  12.368  0.7445 -2.2488 -0.4472
13912TIP3   OH263150   4.749   5.386  10.393  0.0114 -0.2166 -0.6033
13912TIP3    H163151   4.761   5.313  10.455  0.4692  0.9688  0.7783
13912TIP3    H263152   4.813   5.370  10.324  1.1644 -0.3844  0.4517
13913TIP3   OH263153   4.005   5.758  12.426 -0.0200  0.1428 -0.1508
13913TIP3    H163154   3.978   5.815  12.499 -0.6555 -1.8540  1.2555
13913TIP3    H263155   4.018   5.672  12.466 -1.5135 -1.3332 -2.5684
13914TIP3   OH263156   2.266   3.498  11.535  0.5065  0.1012  0.3025
13914TIP3    H163157   2.253   3.423  11.592 -0.2052  1.0986  1.5009
13914TIP3    H263158   2.184   3.506  11.486  0.7724 -0.1960 -0.2028
13915TIP3   OH263159   6.378   4.017   2.167  0.6311 -0.2091  0.0225
13915TIP3    H163160   6.361   3.953   2.098  0.6285  0.2391 -0.3979
13915TIP3    H263161   6.321   3.990   2.238 -1.0830  0.6325 -0.9734
13916TIP3   OH263162   4.181   4.770   1.971 -0.5566  0.2847 -0.1020
13916TIP3    H163163   4.223   4.684   1.980  1.8746  1.3153 -0.8321
13916TIP3    H263164   4.172   4.801   2.061  1.1623  0.3918  0.0745
13917TIP3   OH263165   0.089   3.055  15.060  0.2187  0.3063  0.4843
13917TIP3    H163166   0.054   3.110  14.989  0.3227 -0.4837 -0.1947
13917TIP3    H263167   0.184   3.063  15.051  0.2422 -0.5820 -0.0998
13918TIP3   OH263168   2.258   3.738   0.730  0.0143  0.0246 -0.2629
13918TIP3    H163169   2.185   3.748   0.792  0.3264 -0.2173  0.1529
13918TIP3    H263170   2.334   3.725   0.786  0.5685  1.3945 -0.6648
13919TIP3   OH263171   1.092   4.952  15.646  0.3445  0.5856 -0.1343
13919TIP3    H163172   1.050   4.966  15.730 -0.7287 -0.8303 -0.3973
13919TIP3    H263173   1.020   4.939  15.584  1.1098  1.4148 -1.2460
13920TIP3   OH263174   4.275   6.373  14.555 -0.9165  0.0690  0.3703
13920TIP3    H163175   4.278   6.463  14.588 -0.0112 -0.0120  0.5394
13920TIP3    H263176   4.356   6.333  14.587 -0.7062 -0.4360 -0.7294
13921TIP3   OH263177   0.197   0.544   3.713  0.1459  0.5085 -0.7737
13921TIP3    H163178   0.255   0.468   3.713 -0.0392  0.3646 -0.3065
13921TIP3    H263179   0.198   0.576   3.803  0.3482  1.1596 -0.9970
13922TIP3   OH263180   6.177   2.260   4.326  0.4741 -0.1766  0.0619
13922TIP3    H163181   6.249   2.322   4.326  1.1457 -0.9397  0.0548
13922TIP3    H263182   6.139   2.266   4.413 -0.6068  1.5159 -0.4815
13923TIP3   OH263183   1.117   3.433   3.761 -0.2400  0.3121  0.4313
13923TIP3    H163184   1.057   3.359   3.770 -0.5138  0.4083 -0.4959
13923TIP3    H263185   1.164   3.436   3.844 -0.6993 -0.4859  0.7315
13924TIP3   OH263186   1.010   0.568   4.680 -0.4618 -0.5338 -0.3518
13924TIP3    H163187   1.062   0.628   4.734 -0.2762 -0.9928 -0.0187
13924TIP3    H263188   0.919   0.593   4.698 -0.4073 -0.7819  0.2915
13925TIP3   OH263189   0.935   1.886  10.278 -0.0070  0.0520 -0.1428
13925TIP3    H163190   0.948   1.884  10.372  1.8605  0.3046 -0.3620
13925TIP3    H263191   0.876   1.812  10.260 -0.4402  0.0473  1.2058
13926TIP3   OH263192   2.915   4.565  11.231  0.0580  0.2143 -0.6968
13926TIP3    H163193   2.830   4.603  11.209 -0.2611 -0.1854 -0.1767
13926TIP3    H263194   2.973   4.640  11.240 -0.5774  0.6028  0.3626
13927TIP3   OH263195   6.438   3.587  14.675 -0.5569  0.1562 -0.2401
13927TIP3    H163196   6.353   3.627  14.692 -0.8451 -0.2142 -0.7705
13927TIP3    H263197   6.493   3.660  14.645 -0.8436  0.3035 -0.4153
13928TIP3   OH263198   2.927   6.283  12.192 -1.0075 -0.2101  0.3618
13928TIP3    H163199   2.896   6.236  12.269 -0.2467 -0.0039  0.7964
13928TIP3    H263200   2.891   6.371  12.201 -0.2500  0.0466  0.8967
13929TIP3   OH263201   2.958   4.998   0.193 -0.4682  0.6528 -0.2278
13929TIP3    H163202   3.035   5.035   0.236 -2.1458  0.8368  2.8411
13929TIP3    H263203   2.914   4.948   0.261 -3.3181  0.8892 -1.7592
13930TIP3   OH263204   2.344   4.090   0.847 -0.0250  0.0782  0.1658
13930TIP3    H163205   2.400   4.019   0.877 -1.0895  0.0899  2.3801
13930TIP3    H263206   2.400   4.167   0.848  0.6043 -0.3603 -0.3129
13931TIP3   OH263207   2.844   6.685  13.175  0.2574  0.0978  0.6334
13931TIP3    H163208   2.868   6.712  13.086  1.4640 -1.7438  0.3403
13931TIP3    H263209   2.887   6.749  13.232 -2.2277  2.5559 -0.0573
13932TIP3   OH263210   6.744   4.127  13.296  0.0529 -0.1271 -0.0852
13932TIP3    H163211   6.816   4.066  13.312  2.6181  2.5374 -0.5716
13932TIP3    H263212   6.751   4.148  13.203 -1.5996 -0.0647 -0.2149
13933TIP3   OH263213   1.473   5.987  17.157  0.3998  0.1297  0.1284
13933TIP3    H163214   1.552   6.038  17.138  1.3003 -0.5783  1.7845
13933TIP3    H263215   1.475   5.915  17.095  1.7413 -0.5627  0.9377
13934TIP3   OH263216   0.412   5.367   4.061  0.0716 -0.0035  0.4781
13934TIP3    H163217   0.318   5.385   4.048  0.2708  0.9827  0.3264
13934TIP3    H263218   0.433   5.303   3.994 -0.5966 -0.5732  0.7997
13935TIP3   OH263219   4.690   4.076   0.701  0.1896 -0.0346 -0.3819
13935TIP3    H163220   4.611   4.115   0.663 -0.5816  0.2421  1.3961
13935TIP3    H263221   4.738   4.151   0.738  0.7617 -0.3200 -0.5328
13936TIP3   OH263222   3.231   6.452  14.541  0.0248  0.2015 -0.7119
13936TIP3    H163223   3.258   6.536  14.576  1.2919 -0.6071  0.3461
13936TIP3    H263224   3.137   6.447  14.558  0.0691  1.0999 -0.1787
13937TIP3   OH263225   6.770   2.293  16.814  0.0597 -0.4973  0.4055
13937TIP3    H163226   6.735   2.211  16.849 -1.6838  0.0196 -0.0237
13937TIP3    H263227   6.795   2.273  16.724 -0.5083 -0.5489  0.2512
13938TIP3   OH263228   4.852   0.798  11.651 -0.2413  0.2322 -0.1961
13938TIP3    H163229   4.813   0.883  11.627 -2.2520 -0.9299 -1.3358
13938TIP3    H263230   4.908   0.775  11.577  2.2745  1.5962  1.1593
13939TIP3   OH263231   0.881   0.139   5.692 -0.3080  0.5019 -0.1171
13939TIP3    H163232   0.836   0.117   5.610 -1.5819 -0.4391  0.8013
13939TIP3    H263233   0.823   0.201   5.735 -1.9322 -2.3348  2.0774
13940TIP3   OH263234   4.944   4.296   4.405  0.1908 -0.1559  0.1566
13940TIP3    H163235   4.918   4.241   4.478  0.2262 -0.1879  0.1450
13940TIP3    H263236   4.887   4.373   4.411  0.1128 -0.2131  0.1481
13941TIP3   OH263237   5.886   0.976   4.104 -0.1496  0.4851 -0.3138
13941TIP3    H163238   5.921   1.014   4.185 -1.9312  2.7102 -0.5013
13941TIP3    H263239   5.931   1.024   4.035 -2.1900  2.2138 -0.5524
13942TIP3   OH263240   1.511   4.911   4.214  0.4931  0.3160 -0.6145
13942TIP3    H163241   1.579   4.929   4.280  0.3933  2.2213 -0.9677
13942TIP3    H263242   1.555   4.926   4.131  0.0610 -0.0495 -0.9104
13943TIP3   OH263243   5.548   3.223  15.752  0.1297 -0.1417 -0.2355
13943TIP3    H163244   5.526   3.134  15.722 -0.5593 -0.4110  1.0080
13943TIP3    H263245   5.580   3.267  15.674  0.0564 -1.3560 -0.9755
13944TIP3   OH263246   2.687   3.177  13.648  0.1862 -0.4023 -0.0714
13944TIP3    H163247   2.707   3.168  13.555 -1.4821  2.9112 -0.9074
13944TIP3    H263248   2.593   3.191  13.652  0.0094 -1.6574  2.2984
13945TIP3   OH263249   3.728   2.526   5.851  0.0785 -1.0489 -0.4829
13945TIP3    H163250   3.787   2.589   5.810 -1.2260  1.2991  1.0427
13945TIP3    H263251   3.648   2.529   5.798 -0.8985  0.5549  0.9636
13946TIP3   OH263252   3.267   3.983  14.106 -0.3354  0.2630  0.5294
13946TIP3    H163253   3.233   3.917  14.166  0.8647 -1.7200 -0.8529
13946TIP3    H263254   3.358   3.997  14.133 -0.3934  0.9144  0.4244
13947TIP3   OH263255   3.751   5.033  14.280 -0.4774 -0.0793 -0.2416
13947TIP3    H163256   3.783   5.016  14.368 -1.6572 -0.1446  0.1883
13947TIP3    H263257   3.818   5.089  14.240 -0.0401  0.1320  0.7657
13948TIP3   OH263258   1.294   1.816  13.127 -0.2882  0.7123 -0.1169
13948TIP3    H163259   1.280   1.828  13.033 -1.2130 -0.0845 -0.0993
13948TIP3    H263260   1.212   1.845  13.167  0.0949  1.0362  0.4485
13949TIP3   OH263261   6.764   3.275   5.875 -0.2710 -0.1434  0.5773
13949TIP3    H163262   6.740   3.367   5.866  0.5476  0.0906  0.6363
13949TIP3    H263263   6.817   3.271   5.955  0.7706 -0.4165 -0.0927
13950TIP3   OH263264   4.005   0.429   4.362  0.3362  0.1136 -0.1726
13950TIP3    H163265   3.958   0.433   4.279 -1.8311  0.4246  0.9731
13950TIP3    H263266   3.958   0.363   4.413  0.6290  1.0122  1.3315
13951TIP3   OH263267   0.991   5.526  13.903  0.0817  0.1106 -0.6156
13951TIP3    H163268   1.052   5.580  13.853  1.1569 -0.9750 -0.5163
13951TIP3    H263269   1.024   5.528  13.993  1.0595 -1.8704 -0.8590
13952TIP3   OH263270   0.732   4.702   1.527  0.1244 -0.2853  0.4628
13952TIP3    H163271   0.764   4.791   1.539  0.2723 -0.3800  0.7941
13952TIP3    H263272   0.782   4.668   1.453 -1.1312  0.4652 -0.7613
13953TIP3   OH263273   4.870   2.919  14.819 -0.2115  0.2632  0.2938
13953TIP3    H163274   4.898   2.903  14.909 -0.8064 -2.3289  0.0897
13953TIP3    H263275   4.790   2.971  14.828 -0.4700 -0.2768  1.2995
13954TIP3   OH263276   3.139   4.615  15.304  0.2347  0.1483  0.2221
13954TIP3    H163277   3.203   4.560  15.260  0.7771  0.0044  1.1588
13954TIP3    H263278   3.174   4.704  15.298  0.1883  0.1616  0.1500
13955TIP3   OH263279   4.467   5.101  12.812  0.0514 -0.2181  0.3611
13955TIP3    H163280   4.541   5.100  12.751 -0.1785  0.9450  0.0459
13955TIP3    H263281   4.484   5.027  12.870  0.3788 -1.2191 -0.9716
13956TIP3   OH263282   5.586   1.881   2.774  0.0038  0.1592  0.1255
13956TIP3    H163283   5.557   1.811   2.716 -3.3242  1.1561  0.3726
13956TIP3    H263284   5.535   1.867   2.855 -0.7031  2.7371  0.2091
13957TIP3   OH263285   5.473   1.321   1.084 -0.3953  0.0908  0.1678
13957TIP3    H163286   5.455   1.304   1.176 -0.5166  0.4178  0.2081
13957TIP3    H263287   5.523   1.245   1.054  2.9203  1.5914  1.4239
13958TIP3   OH263288   3.671   0.326   6.541 -0.2200  0.2123 -0.0737
13958TIP3    H163289   3.714   0.280   6.469  2.1183  1.7856  0.2344
13958TIP3    H263290   3.736   0.329   6.611 -1.5771  0.8721  1.2324
13959TIP3   OH263291   4.702   5.323   3.000 -0.6781 -0.3330 -0.2544
13959TIP3    H163292   4.757   5.261   3.047  0.0221 -0.4976 -1.2637
13959TIP3    H263293   4.754   5.347   2.923 -2.3049 -1.0326 -1.6118
13960TIP3   OH263294   4.936   0.810   0.351  0.5246  0.2433 -0.0466
13960TIP3    H163295   4.884   0.741   0.311  1.9340 -0.3979 -0.8271
13960TIP3    H263296   4.873   0.880   0.368 -0.6490 -0.6338 -0.6307
13961TIP3   OH263297   5.014   0.230   1.252  0.2224 -0.5926  0.2716
13961TIP3    H163298   5.012   0.319   1.287 -2.4784 -0.4224 -0.0886
13961TIP3    H263299   5.100   0.222   1.210  1.5217  0.9404  2.4249
13962TIP3   OH263300   2.290   0.512   5.987  0.0123 -1.0091 -0.1831
13962TIP3    H163301   2.299   0.549   6.074  1.4312 -4.0681  1.1034
13962TIP3    H263302   2.333   0.575   5.929 -0.0007  0.5621  1.4649
13963TIP3   OH263303   0.049   2.465  10.638  0.3107 -0.2515  0.1301
13963TIP3    H163304   0.142   2.484  10.644  0.2900  0.1227 -0.5686
13963TIP3    H263305   0.045   2.372  10.618  0.5442 -0.2488  0.0655
13964TIP3   OH263306   5.285   0.763   0.722  0.0949  0.1932 -0.6201
13964TIP3    H163307   5.336   0.685   0.746 -0.2283 -0.2193 -1.2306
13964TIP3    H263308   5.267   0.751   0.629  1.5726  1.8644 -1.1913
13965TIP3   OH263309   6.561   3.005  11.490 -0.6023  0.2599 -0.3156
13965TIP3    H163310   6.491   3.039  11.433 -0.9999 -1.1558 -0.7218
13965TIP3    H263311   6.526   3.014  11.579  0.0604  2.5781 -0.2369
13966TIP3   OH263312   2.397   4.038  16.913 -0.5749  0.0091 -0.0373
13966TIP3    H163313   2.424   4.120  16.870  0.3781 -0.6168 -0.6644
13966TIP3    H263314   2.312   4.018  16.874 -0.4185  0.2616 -0.5163
13967TIP3   OH263315   0.634   6.398   4.376  0.8189  0.0336 -0.0893
13967TIP3    H163316   0.688   6.474   4.354 -1.1943  2.5375  2.7417
13967TIP3    H263317   0.565   6.398   4.310  0.8693  0.6648 -0.1502
13968TIP3   OH263318   2.980   4.049   1.403 -0.0862 -0.3094 -0.2108
13968TIP3    H163319   3.003   4.132   1.362  0.2370 -0.7503 -0.9530
13968TIP3    H263320   2.975   3.987   1.330 -0.3356 -0.9370  0.3270
13969TIP3   OH263321   5.361   4.155   4.140  0.0376  0.1668  0.1482
13969TIP3    H163322   5.375   4.168   4.047 -0.1217  0.1387  0.1197
13969TIP3    H263323   5.448   4.166   4.180  0.0188  0.6912  0.0559
13970TIP3   OH263324   1.098   3.287  16.746 -0.5798 -0.1446  0.0459
13970TIP3    H163325   1.053   3.300  16.829 -0.6154 -1.6263  0.2838
13970TIP3    H263326   1.031   3.256  16.686 -0.3827  0.0916 -0.2997
13971TIP3   OH263327   6.331   6.031  15.799 -0.4310  0.1758  0.1338
13971TIP3    H163328   6.349   5.938  15.816  1.3351 -0.0150 -2.2565
13971TIP3    H263329   6.361   6.076  15.877  0.9170 -1.1014  0.3969
13972TIP3   OH263330   1.582   2.627   1.197  0.3724 -0.3096 -0.2710
13972TIP3    H163331   1.536   2.618   1.113  1.3391 -3.6063 -0.5659
13972TIP3    H263332   1.516   2.605   1.263  0.5447 -1.3888 -0.4455
13973TIP3   OH263333   4.845   0.453  13.862  0.2932 -0.9382  0.0787
13973TIP3    H163334   4.858   0.391  13.933  0.9370 -2.7492 -1.5529
13973TIP3    H263335   4.750   0.455  13.849  0.3279 -2.5624 -0.6400
13974TIP3   OH263336   5.773   5.248  10.547  0.3794  0.1371  0.2954
13974TIP3    H163337   5.678   5.253  10.547  0.3992  0.5762  0.4947
13974TIP3    H263338   5.798   5.265  10.638  0.6523  0.1618  0.2170
13975TIP3   OH263339   2.787   0.115   1.336  0.6832 -0.0269 -0.1666
13975TIP3    H163340   2.729   0.176   1.293  0.2989  0.4087  0.9310
13975TIP3    H263341   2.730   0.044   1.366  0.7999  0.0936  0.3586
13976TIP3   OH263342   4.096   2.097  10.475 -0.4537  0.5188  0.2364
13976TIP3    H163343   4.009   2.122  10.505 -0.0181 -0.7452  2.9858
13976TIP3    H263344   4.145   2.179  10.472 -0.7642  0.8804  2.5772
13977TIP3   OH263345   5.983   0.837  13.395  0.1842 -0.5407 -0.0939
13977TIP3    H163346   5.953   0.746  13.395  0.2597 -0.5773 -1.1812
13977TIP3    H263347   5.902   0.888  13.402 -0.0231 -0.6776 -1.2031
13978TIP3   OH263348   1.205   1.098  12.267 -0.4009 -0.3111 -0.4551
13978TIP3    H163349   1.178   1.145  12.346  1.1913 -0.6642  0.3493
13978TIP3    H263350   1.219   1.008  12.297  0.8927 -0.3034 -0.9496
13979TIP3   OH263351   5.787   1.888  16.973  0.0334 -0.8523  0.3782
13979TIP3    H163352   5.773   1.974  16.935  0.5575 -0.5357  0.8829
13979TIP3    H263353   5.834   1.839  16.906 -0.7466 -0.9352 -0.1229
13980TIP3   OH263354   1.866   0.622  14.666  0.2765 -0.5231  0.3657
13980TIP3    H163355   1.866   0.607  14.761 -0.2102 -1.8437  0.1677
13980TIP3    H263356   1.957   0.608  14.640  0.4556  0.0515  0.6591
13981TIP3   OH263357   3.886   0.508   2.545 -0.2759 -0.1690 -0.2229
13981TIP3    H163358   3.870   0.542   2.633 -1.2525  1.6284 -1.0539
13981TIP3    H263359   3.837   0.425   2.543 -3.0434  1.3519 -0.0946
13982TIP3   OH263360   6.198   0.375  15.149 -0.1344 -0.3640 -0.0280
13982TIP3    H163361   6.167   0.360  15.239  0.9503  1.2233  0.6575
13982TIP3    H263362   6.135   0.435  15.112  0.8465  1.1156  0.6193
13983TIP3   OH263363   0.120   3.016   4.688  0.4322  0.1532 -0.2910
13983TIP3    H163364   0.073   3.051   4.612  0.2437  0.0187 -0.2362
13983TIP3    H263365   0.093   3.071   4.761  0.3922  0.1015 -0.2671
13984TIP3   OH263366   6.356   1.386  13.265  0.1574  0.3738 -0.3104
13984TIP3    H163367   6.416   1.379  13.339  0.2113 -0.4041 -0.4133
13984TIP3    H263368   6.311   1.302  13.262 -2.2180  1.5149  0.8002
13985TIP3   OH263369   3.852   4.765  11.677  0.2230  0.1830 -0.2853
13985TIP3    H163370   3.862   4.671  11.664  2.3929  0.2162  0.7161
13985TIP3    H263371   3.891   4.804  11.598 -0.0973  0.2475 -0.4113
13986TIP3   OH263372   2.524   4.478  16.002  0.6935 -0.2328 -0.4308
13986TIP3    H163373   2.477   4.494  15.921  1.0061  1.6812 -0.2834
13986TIP3    H263374   2.456   4.466  16.068  0.4402 -1.1664 -0.8506
13987TIP3   OH263375   0.213   1.947   0.688 -0.0133 -0.2978  0.0240
13987TIP3    H163376   0.268   1.869   0.688 -0.1865 -0.4293  0.6908
13987TIP3    H263377   0.274   2.020   0.694  0.1232 -0.4033 -0.0727
13988TIP3   OH263378   5.732   5.531  15.860 -0.2331 -0.0534  0.0075
13988TIP3    H163379   5.809   5.524  15.805 -1.9694 -2.1014 -2.3681
13988TIP3    H263380   5.767   5.540  15.949  2.7021 -0.5453 -0.9851
13989TIP3   OH263381   4.472   0.836   1.206 -0.3219 -0.4144  0.3208
13989TIP3    H163382   4.464   0.919   1.253  0.3435 -0.8825  1.2996
13989TIP3    H263383   4.381   0.806   1.195 -0.7114  1.3611 -1.8196
13990TIP3   OH263384   2.964   4.274   4.711 -0.2978 -0.6567 -0.6031
13990TIP3    H163385   2.901   4.325   4.660 -1.4089 -1.5667 -0.1967
13990TIP3    H263386   3.049   4.295   4.673 -0.4910  2.6518  0.4837
13991TIP3   OH263387   4.963   3.128  14.151 -0.3769 -0.1134  0.3642
13991TIP3    H163388   4.969   3.106  14.244  2.4713  0.2411  0.3607
13991TIP3    H263389   5.050   3.110  14.117 -1.4074 -0.4143 -2.3183
13992TIP3   OH263390   1.267   4.781  12.776 -0.4626  0.3368 -0.6062
13992TIP3    H163391   1.257   4.688  12.795 -1.9627  1.0547  2.8172
13992TIP3    H263392   1.339   4.809  12.833  0.9105  1.1069 -2.5975
13993TIP3   OH263393   1.283   3.285  15.108 -0.3856 -0.3568 -0.2466
13993TIP3    H163394   1.277   3.348  15.180 -0.5472 -0.7204  0.0583
13993TIP3    H263395   1.323   3.335  15.036  2.3703 -0.6921  0.9167
13994TIP3   OH263396   0.294   0.547   2.164 -0.4316  0.4067  0.5002
13994TIP3    H163397   0.208   0.535   2.205 -0.8013 -1.3573 -0.6567
13994TIP3    H263398   0.278   0.531   2.070  1.2853 -0.8596  0.3681
13995TIP3   OH263399   4.237   1.522  15.467  0.1496  0.2128 -0.3564
13995TIP3    H163400   4.322   1.494  15.432  1.4932  2.7064  0.6989
13995TIP3    H263401   4.194   1.566  15.394 -0.0910 -0.6471 -0.7566
13996TIP3   OH263402   4.820   6.460   0.228 -0.6585  0.0152  0.0695
13996TIP3    H163403   4.829   6.516   0.152 -2.4085 -0.8241 -0.8113
13996TIP3    H263404   4.727   6.461   0.249 -0.5446 -1.4870  0.8501
13997TIP3   OH263405   6.319   0.865  16.758 -0.2140 -0.3770 -0.7766
13997TIP3    H163406   6.259   0.856  16.684 -0.0375  1.7118 -1.2313
13997TIP3    H263407   6.363   0.780  16.764 -1.9759 -1.3987 -1.4979
13998TIP3   OH263408   4.519   1.181   4.199  0.1510  0.1568  0.5694
13998TIP3    H163409   4.602   1.215   4.231 -0.5432  1.2450  1.2969
13998TIP3    H263410   4.532   1.087   4.191  1.1150  0.1748  1.7248
13999TIP3   OH263411   1.487   1.529   5.346 -0.1699 -0.2566 -0.1345
13999TIP3    H163412   1.394   1.518   5.327 -0.4280  0.4890  0.6304
13999TIP3    H263413   1.492   1.533   5.441  0.5597  0.4332 -0.1884
14000TIP3   OH263414   4.240   1.962  15.220 -0.7063 -0.0671  0.5967
14000TIP3    H163415   4.301   1.895  15.249 -0.0474 -0.5343 -1.6695
14000TIP3    H263416   4.293   2.041  15.211 -0.9100  0.0839  0.7097
14001TIP3   OH263417   6.473   2.981  15.435 -0.4307 -0.5964  0.1021
14001TIP3    H163418   6.458   2.978  15.341  0.7398 -0.6356 -0.0981
14001TIP3    H263419   6.568   2.979  15.444 -0.5053  0.3109  1.2581
14002TIP3   OH263420   3.637   5.570   4.926 -0.4442 -0.2156 -0.1887
14002TIP3    H163421   3.727   5.571   4.956 -0.0862  0.9631 -1.1991
14002TIP3    H263422   3.614   5.478   4.921 -0.0393 -0.5054  2.1410
14003TIP3   OH263423   1.772   6.524  16.157  0.4617 -0.3132  0.4761
14003TIP3    H163424   1.780   6.590  16.225  0.1257 -0.4960  0.6960
14003TIP3    H263425   1.791   6.570  16.076  3.2315 -0.5772  0.8654
14004TIP3   OH263426   6.715   4.768  15.507 -0.1015  0.1060 -0.3851
14004TIP3    H163427   6.634   4.783  15.555 -1.9318 -2.3786 -2.4378
14004TIP3    H263428   6.740   4.854  15.473 -1.3961  1.0507  0.9538
14005TIP3   OH263429   3.269   1.058  11.326  0.5677  0.0170  0.2140
14005TIP3    H163430   3.329   1.056  11.251  1.2941  2.3383  0.6689
14005TIP3    H263431   3.326   1.055  11.403 -0.1848 -2.7425  0.7667
14006TIP3   OH263432   1.673   4.382  12.369  0.1700 -0.0726  0.0089
14006TIP3    H163433   1.681   4.359  12.462  0.9561 -0.7504 -0.2185
14006TIP3    H263434   1.717   4.466  12.361 -0.8077  0.5007  0.4357
14007TIP3   OH263435   4.489   5.556   4.525 -0.0118 -0.1274 -0.2792
14007TIP3    H163436   4.443   5.553   4.609  0.0254  0.0957 -0.2500
14007TIP3    H263437   4.531   5.642   4.524 -1.6233  0.7030 -1.3845
14008TIP3   OH263438   1.756   3.708   1.222 -0.6275  0.1097 -0.1257
14008TIP3    H163439   1.813   3.633   1.205 -0.7531  0.1365 -0.6723
14008TIP3    H263440   1.788   3.777   1.163 -0.4770  0.5092  0.4107
14009TIP3   OH263441   0.959   1.946  16.616  0.4722 -0.2207  0.0089
14009TIP3    H163442   0.979   2.034  16.583  2.3827 -0.0836  1.3547
14009TIP3    H263443   0.897   1.910  16.553 -1.0016  2.3727 -0.1417
14010TIP3   OH263444   1.619   0.449  14.906 -0.3542 -0.7786 -0.5367
14010TIP3    H163445   1.526   0.430  14.914 -0.4618 -1.5296 -2.7402
14010TIP3    H263446   1.635   0.446  14.811  1.4817  1.4498 -0.3718
14011TIP3   OH263447   2.303   0.279   2.106  0.1419  0.8478  0.3404
14011TIP3    H163448   2.316   0.324   2.023  0.6702  0.9546  0.4770
14011TIP3    H263449   2.247   0.338   2.157 -1.8587 -0.1055 -0.6512
14012TIP3   OH263450   0.402   5.069  14.530 -0.3297 -0.6749 -0.6505
14012TIP3    H163451   0.318   5.024  14.532 -1.4200  1.2291  0.8073
14012TIP3    H263452   0.414   5.101  14.620  0.5336  1.5313 -1.4788
14013TIP3   OH263453   5.546   1.069   6.159  0.2602  0.1692  0.6157
14013TIP3    H163454   5.573   1.159   6.175  0.1489  0.6590 -1.5586
14013TIP3    H263455   5.627   1.023   6.136  0.0629  0.2284 -0.2426
14014TIP3   OH263456   5.819   3.449   5.430  0.5982  0.0641 -0.5288
14014TIP3    H163457   5.796   3.542   5.429  2.7071  0.6343 -0.6171
14014TIP3    H263458   5.901   3.444   5.381  0.5868 -1.8389 -0.4137
14015TIP3   OH263459   4.275   0.956  10.905 -0.2365  0.2590 -0.8227
14015TIP3    H163460   4.259   1.048  10.927  1.3295  0.7456 -1.5604
14015TIP3    H263461   4.188   0.922  10.882 -0.9402  1.3675  0.0858
14016TIP3   OH263462   1.881   0.565   4.526  0.1273  0.1847  0.4998
14016TIP3    H163463   1.836   0.631   4.579  1.2991  1.2773  0.1644
14016TIP3    H263464   1.968   0.601   4.510 -0.3077  0.1494 -2.5705
14017TIP3   OH263465   0.443   5.719  12.727  0.1751  1.0143  0.0011
14017TIP3    H163466   0.501   5.663  12.674 -2.6038 -0.6439 -1.4933
14017TIP3    H263467   0.440   5.802  12.679  1.2092  1.0996  0.0529
14018TIP3   OH263468   4.214   0.271  15.438  0.8606  0.2444 -0.5895
14018TIP3    H163469   4.156   0.195  15.435  0.6115  0.3416  0.8636
14018TIP3    H263470   4.161   0.340  15.479  0.6844  1.6057 -2.9233
14019TIP3   OH263471   4.077   2.083  11.086  0.0743 -0.5697  0.5676
14019TIP3    H163472   4.138   2.125  11.025  0.6310 -2.2036 -0.0534
14019TIP3    H263473   4.007   2.148  11.098  0.4099  0.1513 -1.0834
14020TIP3   OH263474   6.110   3.616  14.738 -0.0227  0.0990  0.4753
14020TIP3    H163475   6.023   3.643  14.766 -0.0360  2.0346 -1.1509
14020TIP3    H263476   6.095   3.548  14.673 -0.1815 -1.0201  1.6350
14021TIP3   OH263477   6.527   4.468   4.369 -0.6631 -0.5561  1.0514
14021TIP3    H163478   6.520   4.538   4.434  1.9778  0.5965  0.2633
14021TIP3    H263479   6.590   4.406   4.406 -2.9402 -2.6240  1.7212
14022TIP3   OH263480   2.191   3.634   5.736 -0.3385 -0.0494  0.2084
14022TIP3    H163481   2.146   3.667   5.815  0.6985 -1.8892  1.6448
14022TIP3    H263482   2.190   3.539   5.747  2.6357 -0.2201 -0.3932
14023TIP3   OH263483   6.396   3.067   5.691  0.5746 -0.3402 -0.3761
14023TIP3    H163484   6.377   3.059   5.784 -0.9495  2.4795 -0.3467
14023TIP3    H263485   6.311   3.053   5.648  0.9887 -0.2694 -1.2475
14024TIP3   OH263486   4.507   2.141  15.309  0.0648 -0.6337 -0.3402
14024TIP3    H163487   4.552   2.074  15.360  1.2653  0.8020  0.5856
14024TIP3    H263488   4.453   2.187  15.373 -1.1822 -1.0540 -1.0669
14025TIP3   OH263489   4.384   4.799  13.591 -0.4960 -0.1406  0.3424
14025TIP3    H163490   4.317   4.867  13.581  0.3702  0.5561 -1.1846
14025TIP3    H263491   4.337   4.717  13.579 -1.1206  0.3361 -0.6315
14026TIP3   OH263492   3.543   0.502   3.517 -0.6281  0.1497  0.5173
14026TIP3    H163493   3.477   0.562   3.553 -1.4214 -0.6656  0.4552
14026TIP3    H263494   3.526   0.501   3.423  0.0218  0.5693  0.3838
14027TIP3   OH263495   5.540   2.389   2.804  0.8509  0.3075  0.5989
14027TIP3    H163496   5.458   2.430   2.777  0.6228 -1.3549 -1.4609
14027TIP3    H263497   5.518   2.339   2.882 -0.7123 -1.8794 -1.1319
14028TIP3   OH263498   1.700   5.171   0.991  0.5165  0.2795 -0.3952
14028TIP3    H163499   1.683   5.231   0.918  2.1032 -0.5081 -1.5009
14028TIP3    H263500   1.629   5.107   0.987  0.4464  0.3941 -1.1091
14029TIP3   OH263501   2.803   4.208  11.834 -0.0045 -0.2476  0.0466
14029TIP3    H163502   2.774   4.137  11.891 -1.7148  0.5474  0.2451
14029TIP3    H263503   2.722   4.243  11.797  0.9143  0.6530 -1.1835
14030TIP3   OH263504   1.656   2.031  14.955 -0.0827  0.3836  0.6456
14030TIP3    H163505   1.573   1.999  14.918 -0.0432  0.4468  0.5028
14030TIP3    H263506   1.632   2.063  15.042 -0.1094 -0.1029  0.8234
14031TIP3   OH263507   2.279   2.804   5.062  0.1572  0.0313  0.5490
14031TIP3    H163508   2.230   2.722   5.064 -1.2542  0.7812 -1.1080
14031TIP3    H263509   2.270   2.835   4.972  1.7788  1.3597  0.8095
14032TIP3   OH263510   0.787   3.157   5.217 -0.0493  0.7074 -0.0098
14032TIP3    H163511   0.693   3.140   5.218 -0.3004  1.9792  1.4679
14032TIP3    H263512   0.827   3.070   5.205 -1.3837  0.2520 -1.5504
14033TIP3   OH263513   0.739   5.217  11.446 -0.5634 -0.0645  0.0611
14033TIP3    H163514   0.666   5.260  11.491 -1.1878 -1.0417 -0.0061
14033TIP3    H263515   0.814   5.231  11.505 -0.7132  1.2114 -0.0189
14034TIP3   OH263516   3.358   2.543  16.468  0.2687  0.8496 -0.3694
14034TIP3    H163517   3.273   2.582  16.486  1.3401  2.4882  1.5717
14034TIP3    H263518   3.394   2.597  16.397 -0.0544  0.5155 -0.7957
14035TIP3   OH263519   3.891   2.728   5.818  0.3857 -0.0393 -0.0791
14035TIP3    H163520   3.834   2.801   5.841 -2.2273 -1.5468 -1.2603
14035TIP3    H263521   3.928   2.752   5.733  1.7005  1.0188  0.7669
14036TIP3   OH263522   6.764   1.923  12.201  0.5292  0.4377  0.1114
14036TIP3    H163523   6.794   1.842  12.160  0.7280  0.8651 -0.5939
14036TIP3    H263524   6.840   1.981  12.196  0.4339  0.6270  0.7490
14037TIP3   OH263525   0.385   3.328  12.425 -0.0383 -0.0017 -0.0670
14037TIP3    H163526   0.318   3.293  12.484  1.6331 -1.9428  0.8036
14037TIP3    H263527   0.451   3.365  12.484  0.3303  0.6129 -0.8538
14038TIP3   OH263528   5.617   6.713  16.943  0.4313 -0.4501  0.7712
14038TIP3    H163529   5.671   6.666  17.006 -0.4978 -1.4751  0.8412
14038TIP3    H263530   5.679   6.743  16.876  1.3120 -0.0458  1.7448
14039TIP3   OH263531   4.075   1.269   1.848  0.2687 -0.1328 -0.9660
14039TIP3    H163532   4.154   1.269   1.794 -0.0539 -0.5996 -1.4519
14039TIP3    H263533   4.041   1.179   1.841 -0.1976  0.0089 -0.6013
14040TIP3   OH263534   1.232   2.568  14.651 -0.1908  0.3177 -0.0065
14040TIP3    H163535   1.161   2.512  14.683 -0.3678  1.3759  1.5481
14040TIP3    H263536   1.194   2.614  14.576 -0.6396 -0.2736 -0.1459
14041TIP3   OH263537   4.112   5.758   3.136 -0.7616 -0.0899  0.0541
14041TIP3    H163538   4.039   5.783   3.079 -1.0158  1.1594  0.8896
14041TIP3    H263539   4.189   5.799   3.096 -0.4086 -1.7735 -1.0733
14042TIP3   OH263540   0.586   6.470  12.056 -0.3906 -0.1213  0.2370
14042TIP3    H163541   0.535   6.412  12.000  0.3196 -0.3653 -0.1592
14042TIP3    H263542   0.656   6.502  12.000  0.3404 -0.3812  0.9922
14043TIP3   OH263543   1.056   5.273  14.562 -0.3517 -0.3645  0.2444
14043TIP3    H163544   1.037   5.189  14.521 -0.2266 -1.3197  2.0371
14043TIP3    H263545   0.977   5.293  14.613 -0.5574  0.8612 -0.5009
14044TIP3   OH263546   4.116   0.299  11.968  0.2890  0.4792  1.6109
14044TIP3    H163547   4.155   0.218  11.936  1.1119  1.3509  0.2535
14044TIP3    H263548   4.126   0.296  12.063  0.5081 -0.8910  1.5555
14045TIP3   OH263549   1.247   2.769  12.202 -0.5416 -0.6229 -0.0557
14045TIP3    H163550   1.264   2.781  12.108 -0.6547 -2.7843 -0.4037
14045TIP3    H263551   1.318   2.816  12.245 -1.0324  1.2527 -1.1613
14046TIP3   OH263552   2.898   2.061  11.966 -0.1556 -0.1737 -0.7539
14046TIP3    H163553   2.961   1.996  11.933  1.3038  0.3091  0.9679
14046TIP3    H263554   2.924   2.143  11.925  1.3638  0.3304  1.0708
14047TIP3   OH263555   5.811   4.585   3.307 -0.2970 -0.0820 -0.3114
14047TIP3    H163556   5.838   4.604   3.217  1.9104 -1.5275 -0.0447
14047TIP3    H263557   5.771   4.498   3.303 -1.4426  0.4139 -0.0719
14048TIP3   OH263558   5.035   3.988  14.026 -0.3392 -0.5134 -0.4897
14048TIP3    H163559   4.959   3.977  13.969  0.6645  1.3913 -2.3445
14048TIP3    H263560   4.998   4.002  14.113 -2.1125  0.3647 -1.3369
14049TIP3   OH263561   0.924   5.794  15.288 -0.3939 -0.1144 -0.3986
14049TIP3    H163562   1.004   5.743  15.291 -0.2407  0.1089 -0.6675
14049TIP3    H263563   0.927   5.840  15.204 -0.4055  0.5299 -0.0538
14050TIP3   OH263564   6.385   0.970  13.687 -0.1612 -0.2150  0.4142
14050TIP3    H163565   6.312   0.908  13.689  0.7730 -1.3735 -0.0004
14050TIP3    H263566   6.464   0.915  13.685  0.6982  0.9759 -0.6267
14051TIP3   OH263567   1.337   4.024   0.143  0.0308 -0.5065  0.1888
14051TIP3    H163568   1.365   4.110   0.174  1.7583 -0.9464 -0.0543
14051TIP3    H263569   1.274   3.995   0.209 -0.7139  0.9898  0.1882
14052TIP3   OH263570   2.163   3.136  16.256  0.1549  0.1123  0.5440
14052TIP3    H163571   2.210   3.091  16.186  0.0209 -0.5776  0.8920
14052TIP3    H263572   2.218   3.123  16.334  0.6161  1.3941  0.4623
14053TIP3   OH263573   4.432   5.404   3.847 -0.0061 -0.2690  0.4984
14053TIP3    H163574   4.482   5.443   3.918 -0.9915  0.4404  0.8316
14053TIP3    H263575   4.349   5.452   3.847  0.1793  0.1539 -1.4930
14054TIP3   OH263576   0.788   5.731   3.445  0.3254 -0.2095 -0.1525
14054TIP3    H163577   0.767   5.741   3.538  1.0384  1.4689 -0.1314
14054TIP3    H263578   0.824   5.642   3.438  0.4793 -0.2826  1.2278
14055TIP3   OH263579   3.079   2.029   5.889 -0.6659  0.6005 -0.1583
14055TIP3    H163580   3.023   2.070   5.954 -0.8047  0.0122  0.1012
14055TIP3    H263581   3.123   1.958   5.936 -0.0570  0.7583 -0.4743
14056TIP3   OH263582   2.056   2.495  13.823  0.2167  0.3221 -0.3999
14056TIP3    H163583   2.067   2.404  13.852  0.4608  0.5541  0.2583
14056TIP3    H263584   2.115   2.545  13.879 -0.0871  0.9194 -0.6028
14057TIP3   OH263585   6.536   3.824   5.336  0.7448 -0.4065  0.3074
14057TIP3    H163586   6.562   3.863   5.419  0.1373  1.2829 -0.2540
14057TIP3    H263587   6.601   3.856   5.273 -0.2308  0.3840 -0.3145
14058TIP3   OH263588   5.850   5.369   1.514 -0.0814  0.0593  0.6801
14058TIP3    H163589   5.924   5.390   1.570 -0.1749  0.5484  0.6201
14058TIP3    H263590   5.773   5.401   1.561 -0.3491 -1.2319  1.1514
14059TIP3   OH263591   0.546   1.331   1.557  0.1978 -0.4089 -0.4121
14059TIP3    H163592   0.594   1.393   1.502  1.0652 -0.5671  0.1445
14059TIP3    H263593   0.454   1.354   1.544  0.4895  0.9115 -0.3253
14060TIP3   OH263594   4.244   2.287   4.131  0.7091 -0.0958  0.1687
14060TIP3    H163595   4.203   2.218   4.079 -0.2438 -0.1972  1.0275
14060TIP3    H263596   4.181   2.358   4.131  1.1497  0.3011  0.3164
14061TIP3   OH263597   4.834   1.902  12.791  0.3528  0.2455  0.0546
14061TIP3    H163598   4.916   1.853  12.781  0.8703  1.1943 -0.5152
14061TIP3    H263599   4.857   1.991  12.765 -0.7747  0.6047  0.2692
14062TIP3   OH263600   4.942   1.629   4.663  0.1663  0.2336  0.1054
14062TIP3    H163601   5.034   1.606   4.652  0.2744  0.6797  0.0404
14062TIP3    H263602   4.895   1.574   4.601  0.5187  0.9124 -0.7869
14063TIP3   OH263603   0.994   2.969   5.495  0.7925  0.1154 -0.1224
14063TIP3    H163604   1.044   2.902   5.542 -0.2605  1.7084  3.6198
14063TIP3    H263605   1.050   3.046   5.496 -0.2836  0.9218  1.0138
14064TIP3   OH263606   2.330   0.942   0.563 -0.2341  0.6571 -0.4390
14064TIP3    H163607   2.245   0.899   0.549 -0.6641  1.1822  0.4707
14064TIP3    H263608   2.317   0.995   0.641  0.4990  1.9128 -1.1358
14065TIP3   OH263609   5.425   3.790   1.874  0.2197 -0.6331 -0.1611
14065TIP3    H163610   5.474   3.843   1.811  0.0246 -2.8941 -2.3872
14065TIP3    H263611   5.493   3.745   1.925  0.4344 -0.9032 -0.6762
14066TIP3   OH263612   2.819   1.634  15.520 -0.1289 -0.6358  0.4157
14066TIP3    H163613   2.758   1.567  15.490  0.0786 -1.5900  1.9969
14066TIP3    H263614   2.836   1.612  15.612  1.7339  0.2322  0.3365
14067TIP3   OH263615   0.162   3.394   1.641  0.4093  0.3835  0.0227
14067TIP3    H163616   0.117   3.444   1.573  1.8306  0.1312 -1.1483
14067TIP3    H263617   0.142   3.441   1.722 -1.6857  0.4376 -0.4647
14068TIP3   OH263618   4.880   6.074  14.058 -0.1158 -0.1678  0.6844
14068TIP3    H163619   4.884   6.071  14.153 -1.4491  1.4326  0.8319
14068TIP3    H263620   4.787   6.076  14.038  0.1413 -0.7690 -0.6825
14069TIP3   OH263621   6.327   2.003  11.262 -0.5124 -0.0690 -0.4529
14069TIP3    H163622   6.252   1.944  11.248 -0.4462 -0.2079 -0.2285
14069TIP3    H263623   6.368   1.970  11.342 -0.3478  0.1512 -0.4471
14070TIP3   OH263624   3.057   6.268   1.773  0.8030  0.1939 -0.5222
14070TIP3    H163625   3.005   6.207   1.722  0.6545 -0.5201  0.4571
14070TIP3    H263626   3.094   6.215   1.843 -1.2142  1.5989  1.7642
14071TIP3   OH263627   4.860   5.161   0.835 -0.3871  0.0403 -0.0657
14071TIP3    H163628   4.841   5.145   0.928  1.0197 -0.2758  0.1872
14071TIP3    H263629   4.780   5.202   0.801 -1.1117 -0.3019  1.1588
14072TIP3   OH263630   6.279   3.736  10.875 -0.2901  0.6041  0.7656
14072TIP3    H163631   6.272   3.655  10.825  1.6451  1.4007 -0.9446
14072TIP3    H263632   6.191   3.773  10.873 -0.7868 -0.5553 -0.0128
14073TIP3   OH263633   3.480   5.503   2.383  0.0861 -0.4889 -0.5651
14073TIP3    H163634   3.511   5.567   2.447  0.5256 -1.5848  0.3744
14073TIP3    H263635   3.494   5.544   2.298 -0.9312  1.1871  0.0472
14074TIP3   OH263636   3.330   0.512  12.483  0.1918 -0.6282 -0.1918
14074TIP3    H163637   3.273   0.458  12.539  1.9652 -1.7796  0.5956
14074TIP3    H263638   3.308   0.485  12.394 -1.1877 -0.3080  0.0318
14075TIP3   OH263639   4.205   5.050   5.478  0.2002 -0.2796  0.2062
14075TIP3    H163640   4.145   5.053   5.404 -0.4926  2.9112  0.7615
14075TIP3    H263641   4.153   5.016   5.551  0.5921 -2.3928 -0.4168
14076TIP3   OH263642   3.344   2.990   6.261  0.0933 -0.1786 -0.7604
14076TIP3    H163643   3.308   2.923   6.321  1.5283  1.1418  1.7253
14076TIP3    H263644   3.437   2.994   6.283 -0.0293  2.9473 -0.4809
14077TIP3   OH263645   2.756   4.184  14.440 -0.5287 -0.0461 -0.3095
14077TIP3    H163646   2.731   4.102  14.482 -0.6491  0.0448 -0.2028
14077TIP3    H263647   2.774   4.160  14.349 -1.9624  0.0415 -0.6418
14078TIP3   OH263648   6.573   5.700   0.060  0.1320 -0.0082  0.0273
14078TIP3    H163649   6.548   5.658  -0.023  0.0734  1.9428 -0.9910
14078TIP3    H263650   6.599   5.789   0.035  0.7033  0.4295  2.0451
14079TIP3   OH263651   3.305   1.141  16.782  0.1892  0.7942  0.1821
14079TIP3    H163652   3.219   1.115  16.816 -0.2550  1.4346 -0.4491
14079TIP3    H263653   3.321   1.226  16.822 -0.0866  1.2986 -0.7760
14080TIP3   OH263654   6.007   2.141   6.286 -0.5372  0.5438  0.6611
14080TIP3    H163655   5.948   2.193   6.341 -0.3535  0.7163  0.6982
14080TIP3    H263656   5.949   2.083   6.237 -0.6699  0.0253  1.4035
14081TIP3   OH263657   4.307   1.807  15.561 -0.0865  0.1021 -0.3910
14081TIP3    H163658   4.304   1.711  15.566 -0.4007  0.1448  0.2564
14081TIP3    H263659   4.351   1.824  15.477  0.1544 -0.6055 -0.4235
14082TIP3   OH263660   1.668   5.300   1.484 -0.2949 -0.0997 -0.4381
14082TIP3    H163661   1.671   5.303   1.579  1.1108 -1.4564 -0.3940
14082TIP3    H263662   1.620   5.379   1.458 -1.8666 -0.3745  1.4213
14083TIP3   OH263663   3.993   3.155   4.779  0.8340 -0.4134  0.0654
14083TIP3    H163664   4.076   3.124   4.815  0.3188 -0.1220  1.5820
14083TIP3    H263665   3.964   3.084   4.721  0.3183 -2.2813  2.4311
14084TIP3   OH263666   4.875   5.753   5.201 -0.2706  0.2870  0.5157
14084TIP3    H163667   4.810   5.686   5.180  0.1405 -0.4990  1.6128
14084TIP3    H263668   4.955   5.723   5.158  0.0378 -0.2036  1.4128
14085TIP3   OH263669   0.742   5.797  16.019 -0.1188 -0.0905  0.3599
14085TIP3    H163670   0.716   5.708  15.993  0.7402 -0.7967  1.7605
14085TIP3    H263671   0.837   5.794  16.021 -0.0648  1.0229 -0.0079
14086TIP3   OH263672   0.746   0.797   4.988  0.2158  0.4543 -0.1965
14086TIP3    H163673   0.749   0.739   5.064 -1.4657 -0.6194 -0.8819
14086TIP3    H263674   0.773   0.882   5.022 -0.0411 -0.0968  1.5095
14087TIP3   OH263675   5.468   6.324   1.190  0.3088  0.3887 -0.0381
14087TIP3    H163676   5.557   6.313   1.224 -0.2027  1.1020  1.6483
14087TIP3    H263677   5.413   6.279   1.254 -0.5883  0.3531 -0.8171
14088TIP3   OH263678   0.722   1.316  14.657  0.3275 -0.0898 -0.3977
14088TIP3    H163679   0.641   1.367  14.656  1.2787  1.6790  1.7191
14088TIP3    H263680   0.708   1.249  14.724  0.1600 -0.6116 -0.9554
14089TIP3   OH263681   4.635   5.092  13.349 -0.4269  0.1563  0.2429
14089TIP3    H163682   4.630   5.005  13.310  0.6466 -1.1573  2.8571
14089TIP3    H263683   4.716   5.129  13.314  0.1975 -0.7467  0.6979
14090TIP3   OH263684   3.266   0.354  14.448 -0.0225 -0.0362  0.0002
14090TIP3    H163685   3.346   0.316  14.412  0.0071  0.4935 -0.5144
14090TIP3    H263686   3.200   0.342  14.379 -0.5286 -0.9271  0.6209
14091TIP3   OH263687   2.818   1.357   1.208  0.5964  0.6293 -0.1050
14091TIP3    H163688   2.797   1.393   1.122 -1.8201  0.6993  0.4643
14091TIP3    H263689   2.896   1.303   1.192 -0.3551 -0.1762 -2.5315
14092TIP3   OH263690   4.953   4.734  12.874 -0.0736  0.0721  0.1485
14092TIP3    H163691   4.881   4.779  12.830  1.8942  1.8861 -1.4057
14092TIP3    H263692   5.029   4.749  12.819  1.7810 -0.7962  2.2840
14093TIP3   OH263693   3.599   3.251   0.376 -0.1187 -0.1548  0.3257
14093TIP3    H163694   3.677   3.212   0.339  0.8637  1.4077  0.6559
14093TIP3    H263695   3.527   3.212   0.326  1.0183  0.2873 -1.7866
14094TIP3   OH263696   1.679   5.700  16.828  0.0758 -0.0772 -0.1009
14094TIP3    H163697   1.614   5.717  16.761 -0.4079 -1.9839 -0.1611
14094TIP3    H263698   1.637   5.727  16.910  0.0848  0.8081 -0.3838
14095TIP3   OH263699   4.465   6.469  12.892 -0.1696 -0.5704  0.5123
14095TIP3    H163700   4.469   6.409  12.818 -0.4078  0.0764 -0.0402
14095TIP3    H263701   4.539   6.444  12.948  1.0882  0.0253 -0.8029
14096TIP3   OH263702   2.070   2.937   5.571  0.6574 -0.3361  0.1730
14096TIP3    H163703   2.030   2.858   5.608 -1.3158  0.9542  0.9887
14096TIP3    H263704   2.115   2.906   5.492 -1.1366 -2.0992 -0.2631
14097TIP3   OH263705   5.188   1.252   6.004  0.0971  0.0531  0.5004
14097TIP3    H163706   5.257   1.197   5.967  0.3298  0.5682  0.1402
14097TIP3    H263707   5.107   1.207   5.983  0.3327 -0.6221  1.0327
14098TIP3   OH263708   5.973   4.039  13.581 -0.3711 -0.4180 -0.1695
14098TIP3    H163709   5.988   4.083  13.665  1.1584  1.5999 -1.4132
14098TIP3    H263710   6.038   3.969  13.579 -1.5290 -1.5710  1.0031
14099TIP3   OH263711   2.782   2.271  12.810 -0.1595  0.0290  0.3460
14099TIP3    H163712   2.760   2.275  12.717 -0.3480  0.4533  0.4069
14099TIP3    H263713   2.873   2.243  12.812 -0.3266 -0.5502  0.0529
14100TIP3   OH263714   3.343   2.303   4.637  0.5737 -0.4686 -0.3007
14100TIP3    H163715   3.368   2.238   4.571  0.0740  2.1021 -3.2470
14100TIP3    H263716   3.417   2.364   4.639 -1.6702  2.6548 -2.9630
14101TIP3   OH263717   2.269   5.969   3.752 -0.3974 -0.2669 -0.4149
14101TIP3    H163718   2.279   6.060   3.722  0.5275 -0.6715 -1.4167
14101TIP3    H263719   2.290   5.916   3.675  1.8276 -1.3716  0.8421
14102TIP3   OH263720   1.174   0.728   4.872 -0.1805  0.6440  0.0586
14102TIP3    H163721   1.124   0.736   4.953  0.0203 -0.7939  0.3619
14102TIP3    H263722   1.262   0.706   4.901  0.2500  1.5834 -0.5202
14103TIP3   OH263723   4.054   4.608   5.616 -0.5963  0.4797 -0.8304
14103TIP3    H163724   4.143   4.578   5.633 -0.3508  1.0240 -1.1175
14103TIP3    H263725   4.054   4.700   5.645 -0.7948  0.7609 -1.6889
14104TIP3   OH263726   3.789   4.357   3.033 -0.6638 -0.1426 -0.1323
14104TIP3    H163727   3.745   4.365   3.117 -0.2508  0.5651  0.0248
14104TIP3    H263728   3.849   4.282   3.043  0.1091  0.5458  0.5424
14105TIP3   OH263729   3.614   3.985   1.091  0.3791  0.3783 -0.7883
14105TIP3    H163730   3.618   4.076   1.119 -0.4200  0.2099 -0.1060
14105TIP3    H263731   3.659   3.985   1.006  1.1664  1.2339 -0.3905
14106TIP3   OH263732   6.008   5.400   1.748 -0.6054  0.5630  0.4733
14106TIP3    H163733   6.065   5.416   1.824 -2.1883 -0.4175  1.9161
14106TIP3    H263734   5.919   5.412   1.781 -1.4004 -1.1512 -0.8990
14107TIP3   OH263735   5.741   2.068   0.957 -0.0316  0.2306 -0.4121
14107TIP3    H163736   5.809   2.043   1.020  0.3846  2.6570  0.1924
14107TIP3    H263737   5.662   2.081   1.010 -0.6008 -1.0141 -0.9041
14108TIP3   OH263738   5.524   6.722  10.771 -0.2492  0.1777 -0.4399
14108TIP3    H163739   5.460   6.661  10.809  0.9294 -0.9040 -0.1096
14108TIP3    H263740   5.607   6.675  10.775  0.6001  1.5849 -0.7736
14109TIP3   OH263741   1.196   1.567  12.544  0.3969  0.2214 -0.1003
14109TIP3    H163742   1.290   1.581  12.542  0.3146  0.7416 -0.3941
14109TIP3    H263743   1.161   1.630  12.482 -0.2582  0.8926  0.9232
14110TIP3   OH263744   2.962   2.654   3.995 -0.9227 -1.0013  0.2716
14110TIP3    H163745   2.938   2.599   3.921 -0.7477 -1.7825  0.7917
14110TIP3    H263746   3.052   2.629   4.016 -0.3436  0.4379 -0.3308
14111TIP3   OH263747   6.145   2.106   3.401  0.2163  0.0893 -0.2363
14111TIP3    H163748   6.236   2.120   3.374  1.2113 -1.8731  1.8099
14111TIP3    H263749   6.130   2.172   3.469 -0.6584  1.7650 -1.9487
14112TIP3   OH263750   3.793   2.593  15.109 -0.3186 -0.2549 -1.0010
14112TIP3    H163751   3.719   2.535  15.126 -1.0760  0.8706 -0.3654
14112TIP3    H263752   3.808   2.638  15.192  0.5704  0.1067 -1.3476
14113TIP3   OH263753   3.054   1.855  16.714  0.1960  0.4266  0.0751
14113TIP3    H163754   3.067   1.930  16.657  0.0599 -0.2606 -0.8894
14113TIP3    H263755   3.141   1.832  16.745  0.8174 -1.2838 -2.6171
14114TIP3   OH263756   1.983   3.049   5.817  0.1364  0.4889 -0.0163
14114TIP3    H163757   2.019   2.989   5.882 -0.6103  0.7016  0.6097
14114TIP3    H263758   2.014   3.015   5.733  0.1834 -0.4534  0.3697
14115TIP3   OH263759   1.959   2.456   2.607 -0.0825 -0.2855  0.5869
14115TIP3    H163760   2.016   2.400   2.555  0.3280  0.3068  0.3902
14115TIP3    H263761   1.927   2.522   2.546  0.8130  0.7295  1.1743
14116TIP3   OH263762   1.374   2.754  17.000  0.0712 -0.4512  0.7594
14116TIP3    H163763   1.356   2.701  17.078  0.6386 -0.0585  1.1605
14116TIP3    H263764   1.464   2.733  16.977  0.8011  1.3862  1.7574
14117TIP3   OH263765   3.251   4.374  12.436 -0.3212  0.2702 -0.1680
14117TIP3    H163766   3.293   4.292  12.461  0.0924  0.7262  0.6699
14117TIP3    H263767   3.305   4.409  12.366 -0.5803 -0.2341 -0.6278
14118TIP3   OH263768   2.282   0.007   5.198 -0.3321 -0.2420  0.2559
14118TIP3    H163769   2.298  -0.080   5.234  0.6425 -0.0330  0.3522
14118TIP3    H263770   2.331   0.066   5.255 -1.1469  0.4006  0.3132
14119TIP3   OH263771   1.631   3.029   5.577  0.2350  0.0453 -0.3802
14119TIP3    H163772   1.661   2.947   5.536 -2.0582 -1.5124  0.8424
14119TIP3    H263773   1.671   3.029   5.664  1.2966  0.9623 -0.8364
14120TIP3   OH263774   3.688   6.794  12.945 -0.0175  0.2333  0.2139
14120TIP3    H163775   3.656   6.803  12.855  2.6877 -0.9928 -0.9829
14120TIP3    H263776   3.755   6.862  12.954 -0.9923  1.0464  1.7189
14121TIP3   OH263777   0.307   6.646  16.929  0.3832  0.0516  0.1376
14121TIP3    H163778   0.368   6.623  16.999 -1.7094 -1.1051  1.7278
14121TIP3    H263779   0.221   6.625  16.966 -0.8172 -0.9892 -2.9428
14122TIP3   OH263780   6.054   3.948   4.395 -0.4064 -0.3323  0.0726
14122TIP3    H163781   6.056   3.870   4.340  1.0658 -1.6123  1.7807
14122TIP3    H263782   6.050   4.021   4.334 -0.8293 -1.7146 -1.6237
14123TIP3   OH263783   3.742   4.762   3.075 -0.1934  0.3300  0.1694
14123TIP3    H163784   3.701   4.847   3.061 -1.0406 -0.0603  0.1825
14123TIP3    H263785   3.830   4.770   3.038 -0.6445  0.8678 -0.8239
14124TIP3   OH263786   1.321   4.986   1.338 -0.0314 -0.5439  0.0849
14124TIP3    H163787   1.254   4.972   1.271 -0.2968 -0.9083  0.4169
14124TIP3    H263788   1.362   4.900   1.349 -1.4695 -1.0667  1.9353
14125TIP3   OH263789   4.266   3.853  13.766  0.3876  0.1064 -0.1642
14125TIP3    H163790   4.238   3.903  13.842 -0.0146 -0.3879  0.0236
14125TIP3    H263791   4.319   3.914  13.715 -2.0261  1.5206 -1.1582
14126TIP3   OH263792   6.235   2.932   4.760  0.2714  0.2966 -0.2376
14126TIP3    H163793   6.326   2.953   4.781  0.1327  1.7057 -0.8672
14126TIP3    H263794   6.184   2.979   4.826 -0.0028 -1.0735  0.5529
14127TIP3   OH263795   3.278   4.697  16.278 -0.6118  0.4212  0.4417
14127TIP3    H163796   3.206   4.704  16.216 -0.2071 -1.3223 -0.2862
14127TIP3    H263797   3.236   4.677  16.361 -0.9782 -1.5401 -0.1606
14128TIP3   OH263798   2.769   0.924   5.732 -0.1355  0.3297  1.2936
14128TIP3    H163799   2.838   0.881   5.782  0.2978  0.1166  0.5223
14128TIP3    H263800   2.689   0.876   5.755  0.0844  0.1266  1.6397
14129TIP3   OH263801   1.606   3.869   1.651  0.2781 -0.2516  0.1339
14129TIP3    H163802   1.657   3.892   1.729 -1.7586 -2.1726  2.1784
14129TIP3    H263803   1.539   3.937   1.644 -0.5159 -0.9058  1.0832
14130TIP3   OH263804   2.879   0.611   0.210  0.3121 -0.6257  0.2075
14130TIP3    H163805   2.810   0.547   0.224  0.6586 -1.0253  0.1094
14130TIP3    H263806   2.922   0.584   0.129  1.1301 -0.8856  0.7124
14131TIP3   OH263807   2.563   2.498  15.824 -0.2180 -0.0463 -0.0308
14131TIP3    H163808   2.543   2.555  15.750  1.0173 -2.0147 -1.9849
14131TIP3    H263809   2.609   2.555  15.886  1.8726  0.9379 -2.3380
14132TIP3   OH263810   3.424   1.094   0.224  0.0964 -0.1384 -0.7582
14132TIP3    H163811   3.451   1.069   0.136 -0.9941 -1.1809 -0.8259
14132TIP3    H263812   3.400   1.011   0.266 -0.3867  0.4532  0.1738
14133TIP3   OH263813   3.032   5.447  16.570 -0.0736  0.3891 -0.0860
14133TIP3    H163814   3.096   5.501  16.616  0.4992  1.1736 -1.7284
14133TIP3    H263815   2.948   5.475  16.605  0.3716  0.6476  0.7962
14134TIP3   OH263816   6.479   3.486  15.564  0.5087 -0.1848 -0.2031
14134TIP3    H163817   6.470   3.458  15.473  0.7907  0.0587 -0.3061
14134TIP3    H263818   6.491   3.581  15.559 -0.1538 -0.0786  0.1285
14135TIP3   OH263819   4.802   4.887  12.682 -0.1621 -0.0478  0.3331
14135TIP3    H163820   4.795   4.830  12.606 -0.2862  0.1754  0.1766
14135TIP3    H263821   4.715   4.925  12.693 -0.0900  0.0839  0.4586
14136TIP3   OH263822   0.290   1.901   3.092 -0.3207 -0.2064 -0.1368
14136TIP3    H163823   0.266   1.990   3.117 -0.5372 -0.3907  0.3218
14136TIP3    H263824   0.269   1.896   2.998  0.3834  0.4476 -0.3357
14137TIP3   OH263825   1.560   6.320  15.891  0.0341 -0.0232  0.7169
14137TIP3    H163826   1.589   6.353  15.806 -0.6820 -2.2281 -0.4471
14137TIP3    H263827   1.518   6.395  15.932  1.4429  1.4188 -0.3360
14138TIP3   OH263828   3.453   0.216   0.992  0.7707 -0.1218 -0.1283
14138TIP3    H163829   3.406   0.144   1.033  1.0202 -1.2646 -1.7254
14138TIP3    H263830   3.512   0.249   1.060 -0.0490 -0.7654  0.9204
14139TIP3   OH263831   2.578   2.188  16.433  0.6188  0.8642 -0.1741
14139TIP3    H163832   2.555   2.205  16.524 -1.4100 -1.4445 -0.1669
14139TIP3    H263833   2.655   2.131  16.438 -0.9054 -1.2382  0.2347
14140TIP3   OH263834   0.045   4.660   3.414 -0.0802  0.6510  0.5608
14140TIP3    H163835   0.134   4.663   3.449  0.7125 -1.0010 -1.0525
14140TIP3    H263836   0.047   4.720   3.339  0.2848 -0.6825 -0.5562
14141TIP3   OH263837   6.377   2.771   6.491 -0.4230 -0.0625 -0.2146
14141TIP3    H163838   6.359   2.754   6.398  1.0018 -0.1022 -0.4988
14141TIP3    H263839   6.334   2.855   6.508 -1.2142 -0.3460 -0.7331
14142TIP3   OH263840   0.355   5.573   1.847 -0.0510  0.1142 -0.5087
14142TIP3    H163841   0.352   5.668   1.861  1.4209  0.0224  0.6559
14142TIP3    H263842   0.305   5.536   1.920  0.8962 -0.0574  0.0691
14143TIP3   OH263843   1.373   2.006   1.187  0.1932  0.0227 -0.2287
14143TIP3    H163844   1.409   2.067   1.252 -1.3074  0.8165 -0.1141
14143TIP3    H263845   1.300   1.963   1.233 -0.9244  0.6367 -1.3934
14144TIP3   OH263846   5.109   6.562  11.434  0.0837  0.2946 -0.2051
14144TIP3    H163847   5.132   6.647  11.396 -0.5204  0.2692 -0.6537
14144TIP3    H263848   5.149   6.498  11.376  0.6499  0.2709  0.2078
14145TIP3   OH263849   0.344   0.542  13.430  0.3531  0.1212  0.5465
14145TIP3    H163850   0.404   0.581  13.366 -1.1947  0.5222 -0.7292
14145TIP3    H263851   0.308   0.618  13.477  0.0657 -0.0460  0.5933
14146TIP3   OH263852   2.873   1.346  15.065 -0.0813  0.7597  0.4439
14146TIP3    H163853   2.904   1.397  15.140  2.4545  0.4895 -0.3316
14146TIP3    H263854   2.906   1.258  15.080  3.6614  1.3812 -2.4967
14147TIP3   OH263855   0.371   2.245  10.752 -0.1497 -0.0512  0.4029
14147TIP3    H163856   0.306   2.311  10.726 -0.1468  1.2415  3.3422
14147TIP3    H263857   0.319   2.170  10.780 -0.2879  0.0286  0.3649
14148TIP3   OH263858   0.469   4.125   4.015 -0.1989 -0.1259 -0.0071
14148TIP3    H163859   0.510   4.211   4.026 -0.6278  0.1372 -0.4304
14148TIP3    H263860   0.522   4.066   4.069 -0.7094  0.6543  1.4047
14149TIP3   OH263861   5.949   6.545  13.800  0.3171  0.0276  0.4289
14149TIP3    H163862   5.886   6.535  13.872  0.3823  0.8125  0.6157
14149TIP3    H263863   5.957   6.640  13.790 -1.4002 -0.0016 -2.1305
14150TIP3   OH263864   6.193   0.985  11.676 -0.3754  0.0016  0.1569
14150TIP3    H163865   6.220   1.072  11.645 -1.4180  0.0229 -0.7795
14150TIP3    H263866   6.240   0.924  11.621 -1.4220  0.0267 -0.8054
14151TIP3   OH263867   5.143   1.098   5.245  0.1427 -0.0000 -0.0420
14151TIP3    H163868   5.156   1.014   5.202 -1.4733  0.1741 -0.9595
14151TIP3    H263869   5.186   1.089   5.330  0.4221 -1.5628 -0.3266
14152TIP3   OH263870   1.573   1.103   0.815 -1.0266 -0.3806 -0.3050
14152TIP3    H163871   1.607   1.017   0.790  0.4360  0.2407 -0.5887
14152TIP3    H263872   1.519   1.130   0.741 -0.2038 -0.3964 -0.9322
14153TIP3   OH263873   1.561   1.060  14.531  0.0443  0.5638 -0.1943
14153TIP3    H163874   1.606   0.976  14.534 -3.2056 -1.2935  1.0582
14153TIP3    H263875   1.563   1.093  14.621 -0.7188  0.6351 -0.1920
14154TIP3   OH263876   2.319   1.389   0.055  0.1395  0.0911  0.0685
14154TIP3    H163877   2.305   1.313  -0.001 -0.6119  0.9386 -0.9353
14154TIP3    H263878   2.240   1.393   0.110 -0.7256  1.2352 -1.2174
14155TIP3   OH263879   4.513   6.695   3.255  0.2588  0.1043 -0.1636
14155TIP3    H163880   4.604   6.697   3.225  0.0471 -0.4974 -0.8760
14155TIP3    H263881   4.479   6.612   3.222 -0.4358  0.1384  0.4442
14156TIP3   OH263882   2.416   0.044   2.184  0.0204  0.3483 -0.2955
14156TIP3    H163883   2.390   0.131   2.155  2.4277  0.8666 -1.1543
14156TIP3    H263884   2.403   0.044   2.279  0.4510  1.8205 -0.2241
14157TIP3   OH263885   4.349   4.310  13.700 -0.2690 -0.0176 -0.6409
14157TIP3    H163886   4.416   4.363  13.743  1.3254 -2.6094  0.3113
14157TIP3    H263887   4.267   4.338  13.741  0.7949  0.0594  1.5857
14158TIP3   OH263888   2.066   2.799  16.539 -0.5361 -0.1532  0.0455
14158TIP3    H163889   2.116   2.790  16.457 -0.0321 -1.9673  0.4924
14158TIP3    H263890   2.080   2.715  16.584 -0.7658  0.8149  2.0142
14159TIP3   OH263891   4.969   0.915  11.911 -0.1135  0.1584  0.4928
14159TIP3    H163892   4.915   0.873  11.845  0.9213 -1.0401  0.3764
14159TIP3    H263893   5.032   0.848  11.938  2.2110  1.8317 -0.3691
14160TIP3   OH263894   3.662   1.580  15.289 -0.5732  0.0926 -0.1097
14160TIP3    H163895   3.680   1.646  15.221 -0.1135 -0.2096 -0.2851
14160TIP3    H263896   3.736   1.520  15.284 -0.8697 -0.3021  0.2182
14161TIP3   OH263897   0.210   2.375   2.945  0.0158 -0.4730  0.3812
14161TIP3    H163898   0.160   2.294   2.934  0.3552 -0.4474 -1.9782
14161TIP3    H263899   0.143   2.443   2.955 -0.4972 -0.5305 -2.0588
14162TIP3   OH263900   4.339   1.452   3.027 -0.9357 -0.0405  0.5992
14162TIP3    H163901   4.331   1.492   3.113  2.3309 -1.8792  1.9522
14162TIP3    H263902   4.365   1.525   2.969 -1.2854  0.8873  1.5859
14163TIP3   OH263903   2.342   2.853   0.836  0.0242  0.1120 -0.1802
14163TIP3    H163904   2.313   2.805   0.914  1.0530 -1.1953 -0.5729
14163TIP3    H263905   2.436   2.838   0.832  0.0735  0.6423 -1.3560
14164TIP3   OH263906   1.463   3.726  15.960  0.3360  0.4104 -0.4770
14164TIP3    H163907   1.533   3.690  15.905  1.0100  2.2333 -0.9091
14164TIP3    H263908   1.485   3.819  15.968 -2.6915  1.3428 -1.6422
14165TIP3   OH263909   1.691   6.689   5.791  0.4938 -0.0399 -0.2066
14165TIP3    H163910   1.617   6.635   5.765  0.0898  0.2506  0.3105
14165TIP3    H263911   1.652   6.772   5.819  1.1331  0.7198 -1.4644
14166TIP3   OH263912   0.544   1.388   2.470 -0.3987 -0.3034 -0.4023
14166TIP3    H163913   0.486   1.316   2.498  1.0725 -1.6749 -0.7436
14166TIP3    H263914   0.618   1.384   2.530  0.0857  0.4232 -0.9404
14167TIP3   OH263915   4.780   4.313   0.771  0.0904 -0.5081  0.5859
14167TIP3    H163916   4.849   4.372   0.799  1.3214 -0.0074 -3.0190
14167TIP3    H263917   4.703   4.369   0.758  0.7766  0.1017 -1.1580
14168TIP3   OH263918   5.908   4.306   0.319  0.0922  0.4403  0.3467
14168TIP3    H163919   5.893   4.260   0.401  3.2473 -0.3032  0.6191
14168TIP3    H263920   6.003   4.313   0.311 -0.0489  0.5263 -3.2352
14169TIP3   OH263921   5.181   6.169  15.011 -0.5033 -0.4687  0.4433
14169TIP3    H163922   5.197   6.200  14.921  0.2049 -0.1910  0.6604
14169TIP3    H263923   5.147   6.247  15.056 -1.5764 -0.7984  0.2394
14170TIP3   OH263924   3.504   5.117   4.182 -0.2661 -0.3652 -0.3978
14170TIP3    H163925   3.484   5.209   4.165 -0.4892 -0.5870 -1.4009
14170TIP3    H263926   3.426   5.083   4.226 -0.7320 -0.3762 -1.1982
14171TIP3   OH263927   4.154   0.996   5.046  0.8307 -0.3445  0.2407
14171TIP3    H163928   4.074   1.047   5.033  0.8267 -0.7710 -1.6148
14171TIP3    H263929   4.149   0.926   4.981  2.6764 -0.4331  0.1416
14172TIP3   OH263930   1.715   3.255   0.877 -0.4377 -0.7349  0.2132
14172TIP3    H163931   1.688   3.289   0.962  3.3882  0.3832  1.1519
14172TIP3    H263932   1.690   3.322   0.814 -1.9941 -0.9210  0.5909
14173TIP3   OH263933   0.833   4.111   4.816 -0.2247  0.4213 -0.7232
14173TIP3    H163934   0.820   4.017   4.831 -3.1647  0.8287 -0.0535
14173TIP3    H263935   0.916   4.131   4.858  0.2151 -1.7861 -0.4164
14174TIP3   OH263936   1.208   6.527   2.033 -0.0502  0.1596  0.2966
14174TIP3    H163937   1.253   6.499   1.954 -2.1999 -1.8734 -0.3219
14174TIP3    H263938   1.176   6.615   2.013 -0.3753 -0.2481 -1.0267
14175TIP3   OH263939   1.104   0.710  15.364  0.6999 -0.9394  0.0915
14175TIP3    H163940   1.110   0.669  15.450 -0.0927 -0.7638  0.2357
14175TIP3    H263941   1.154   0.791  15.372  1.0027 -1.1417  0.2519
14176TIP3   OH263942   4.335   3.326   2.628 -0.5727  0.6235  0.6188
14176TIP3    H163943   4.285   3.312   2.709 -2.8898 -1.7359 -1.0480
14176TIP3    H263944   4.421   3.290   2.646 -1.1228 -0.0808  1.9745
14177TIP3   OH263945   2.497   1.345  14.476  0.2359  0.4628 -0.9141
14177TIP3    H163946   2.465   1.426  14.437 -0.0363 -0.4325 -2.6626
14177TIP3    H263947   2.590   1.343  14.455  0.0429 -0.1315 -1.7681
14178TIP3   OH263948   3.128   2.807   5.297 -0.0680 -0.3689 -0.0671
14178TIP3    H163949   3.192   2.790   5.366  0.2051  2.2081  0.4028
14178TIP3    H263950   3.182   2.822   5.218 -0.2465 -0.6665 -0.2481
14179TIP3   OH263951   5.043   3.674  14.194 -0.7109  0.2191  0.2673
14179TIP3    H163952   5.076   3.708  14.111 -4.1619  2.1795 -0.4911
14179TIP3    H263953   4.995   3.595  14.170 -4.6198  2.5441 -0.4179
14180TIP3   OH263954   2.001   6.640  11.937 -0.0607 -0.6652  0.4230
14180TIP3    H163955   1.961   6.698  12.002  0.5525 -1.4049  1.4924
14180TIP3    H263956   1.936   6.572  11.921 -1.1130  0.6796 -1.4364
14181TIP3   OH263957   5.681   0.235  15.285  0.5083 -0.1164  0.7882
14181TIP3    H163958   5.735   0.155  15.287 -0.0911 -0.5109  1.4507
14181TIP3    H263959   5.681   0.266  15.375 -1.1343 -0.6540  1.0030
14182TIP3   OH263960   1.487   3.784  10.953 -0.3418 -0.1118  0.1468
14182TIP3    H163961   1.401   3.791  10.994 -0.3458 -0.3582  0.1803
14182TIP3    H263962   1.526   3.705  10.991 -0.5725 -0.6699 -0.7432
14183TIP3   OH263963   1.185   3.181   5.439  0.0297 -0.3500 -0.7317
14183TIP3    H163964   1.280   3.191   5.430  0.2058 -1.6698 -0.4086
14183TIP3    H263965   1.149   3.257   5.391  1.2559  1.8860  1.6413
14184TIP3   OH263966   5.730   4.053   1.133 -0.6336 -0.2611 -0.1371
14184TIP3    H163967   5.657   4.058   1.195 -0.1778  0.0831  0.3755
14184TIP3    H263968   5.732   4.139   1.091 -0.0943 -0.0351  0.3438
14185TIP3   OH263969   4.430   1.980   3.863 -0.0594  0.3099  0.5104
14185TIP3    H163970   4.518   1.946   3.846 -0.4106 -0.8757  0.9478
14185TIP3    H263971   4.443   2.045   3.932  0.4159 -0.2476  0.9664
14186TIP3   OH263972   2.147   4.626   3.117  0.2326 -0.0579 -0.2065
14186TIP3    H163973   2.164   4.552   3.059  1.5033 -1.0151  1.2926
14186TIP3    H263974   2.053   4.641   3.110  0.0103 -1.5509 -0.8728
14187TIP3   OH263975   5.841   1.295   3.088 -0.4763 -0.0730  0.0331
14187TIP3    H163976   5.829   1.316   3.181  0.8274 -0.8489  0.3999
14187TIP3    H263977   5.761   1.248   3.064 -0.0739 -1.4790  1.2769
14188TIP3   OH263978   0.279   2.062  17.058  0.3166 -0.1640  0.0458
14188TIP3    H163979   0.297   2.091  16.968 -1.0483 -0.6904 -0.4181
14188TIP3    H263980   0.214   2.124  17.091  1.5442  0.6354  1.0589
14189TIP3   OH263981   2.940   4.918   1.547 -0.2346 -0.0590  0.7788
14189TIP3    H163982   2.859   4.920   1.597 -1.8652  0.6001 -1.6895
14189TIP3    H263983   2.930   4.990   1.484  3.2830  1.5307  1.7965
14190TIP3   OH263984   0.571   0.929  12.305 -0.2185  0.4587 -0.2713
14190TIP3    H163985   0.548   0.913  12.214 -0.3186 -0.8046 -0.0387
14190TIP3    H263986   0.667   0.933  12.305  0.0837 -3.2798  0.0546
14191TIP3   OH263987   2.270   0.119   6.410  0.2161 -0.9947  0.6506
14191TIP3    H163988   2.344   0.058   6.406  0.1933 -0.9769 -1.8054
14191TIP3    H263989   2.295   0.191   6.352 -1.8764 -1.2326 -0.6385
14192TIP3   OH263990   1.080   6.297   6.398 -0.4778  0.0611  0.1076
14192TIP3    H163991   0.998   6.271   6.441  0.7402 -1.1585  1.8346
14192TIP3    H263992   1.087   6.391   6.414 -0.6477 -0.1539  1.6552
14193TIP3   OH263993   4.714   2.622  13.338 -0.2612 -0.8328  0.1018
14193TIP3    H163994   4.620   2.630  13.356 -0.0546  0.3869  0.7308
14193TIP3    H263995   4.740   2.708  13.306  0.2972 -1.6877 -1.9021
14194TIP3   OH263996   6.447   1.875   2.052  0.2185 -0.3495  0.1164
14194TIP3    H163997   6.487   1.841   2.132 -0.5784  0.1800  0.7565
14194TIP3    H263998   6.361   1.907   2.080  0.4917  1.1613 -0.6499
14195TIP3   OH263999   1.048   4.387   4.980 -0.2299 -0.0472  0.0130
14195TIP3    H164000   1.083   4.302   4.951 -1.3322 -1.6623  2.9652
14195TIP3    H264001   1.065   4.389   5.074 -0.7349  2.8192  0.1169
14196TIP3   OH264002   5.066   4.536   0.496  0.2991 -0.2430 -0.7565
14196TIP3    H164003   5.032   4.620   0.528  2.6871  0.2358  0.7753
14196TIP3    H264004   5.058   4.543   0.400  1.4664  2.2883 -0.7651
14197TIP3   OH264005   2.160   6.430   3.975 -0.3637  0.6000  0.3475
14197TIP3    H164006   2.230   6.372   4.006 -0.7702  0.2032  0.5366
14197TIP3    H264007   2.201   6.483   3.906 -1.0147 -2.8474 -3.0184
14198TIP3   OH264008   6.293   0.153  14.362 -0.5489  0.1603  0.5941
14198TIP3    H164009   6.377   0.199  14.363 -1.2762  1.8919 -2.7178
14198TIP3    H264010   6.234   0.212  14.316 -2.4820 -2.6930 -0.9126
14199TIP3   OH264011   4.664   3.999   2.425  0.2665 -0.0361  0.0009
14199TIP3    H164012   4.711   3.999   2.508 -0.6873  0.7551  0.5557
14199TIP3    H264013   4.712   3.936   2.371  0.7585 -0.7500  1.2205
14200TIP3   OH264014   1.858   2.511   5.923 -0.0344 -0.2233 -0.5977
14200TIP3    H164015   1.951   2.527   5.903  0.0407 -0.0031 -0.0917
14200TIP3    H264016   1.860   2.451   5.998 -0.3071 -0.6154 -0.8984
14201TIP3   OH264017   4.658   0.061  11.427  0.0974 -0.3279  0.3137
14201TIP3    H164018   4.726   0.046  11.493 -0.5637 -1.6766  0.7206
14201TIP3    H264019   4.590   0.111  11.473 -0.2471 -1.0470  0.6057
14202TIP3   OH264020   6.733   4.929  16.770 -0.1703  0.1035 -0.0174
14202TIP3    H164021   6.779   4.903  16.849 -0.5655 -1.2185 -0.2066
14202TIP3    H264022   6.758   4.864  16.704 -1.8663 -0.3566 -0.2650
14203TIP3   OH264023   3.426   2.905  12.266  0.0238  0.1657  0.0114
14203TIP3    H164024   3.468   2.897  12.352  0.5431  0.6628 -0.1935
14203TIP3    H264025   3.427   2.817  12.231 -0.6517 -0.1455  0.7240
14204TIP3   OH264026   4.972   6.067   5.492 -0.0191  0.0834 -0.0137
14204TIP3    H164027   5.043   6.017   5.531 -0.2129  0.8725  1.4007
14204TIP3    H264028   4.920   6.099   5.566 -0.6424  1.2783 -0.9125
14205TIP3   OH264029   2.648   5.650  11.167  0.1139 -0.1815  0.4133
14205TIP3    H164030   2.696   5.593  11.108 -0.5450 -0.0809 -0.2416
14205TIP3    H264031   2.555   5.631  11.149 -0.1074 -0.6004  1.8662
14206TIP3   OH264032   0.472   6.536  17.136  0.3840 -0.1594  0.2691
14206TIP3    H164033   0.411   6.467  17.163 -0.6372  1.2505  1.7622
14206TIP3    H264034   0.548   6.525  17.193 -0.7342  1.2757  2.1634
14207TIP3   OH264035   4.988   1.671  12.793 -0.1077  0.6280 -0.1202
14207TIP3    H164036   4.903   1.660  12.750  0.3326 -0.3680 -0.7832
14207TIP3    H264037   4.993   1.600  12.857  0.2246  0.6744 -0.0905
14208TIP3   OH264038   3.859   4.325   1.937  0.0942 -0.1494 -0.1750
14208TIP3    H164039   3.929   4.313   1.873 -0.4784  2.4231 -1.3876
14208TIP3    H264040   3.882   4.406   1.983 -0.0645 -1.3730  2.2405
14209TIP3   OH264041   3.140   3.154  12.012 -0.4439  0.0152  0.0670
14209TIP3    H164042   3.176   3.069  11.988  1.0644  0.4449  0.6459
14209TIP3    H264043   3.045   3.143  12.007 -0.3176 -1.9576  0.9932
14210TIP3   OH264044   6.637   1.233   5.339  0.0084 -0.5124 -0.5958
14210TIP3    H164045   6.606   1.185   5.262  0.8692  0.0571 -1.3174
14210TIP3    H264046   6.665   1.318   5.304  0.9537 -0.4583  0.2601
14211TIP3   OH264047   2.019   1.447  13.002 -0.6204  0.3346  0.1911
14211TIP3    H164048   2.099   1.397  12.987 -1.1646 -0.7928  0.8892
14211TIP3    H264049   1.961   1.387  13.049 -2.0332  0.9896 -0.6298
14212TIP3   OH264050   0.675   5.735  12.558 -0.2022 -0.3730  0.2038
14212TIP3    H164051   0.639   5.707  12.474 -0.2190 -0.0019  0.0848
14212TIP3    H264052   0.769   5.734  12.546 -0.2107  1.5092 -0.4516
14213TIP3   OH264053   4.424   1.943   2.287 -0.0604  0.2186 -0.3676
14213TIP3    H164054   4.366   2.014   2.317 -0.5980 -0.5125  0.3853
14213TIP3    H264055   4.450   1.898   2.367 -1.1652 -1.5261 -0.9251
14214TIP3   OH264056   1.754   0.907  14.180 -0.3061  0.1474 -0.0533
14214TIP3    H164057   1.732   0.852  14.105 -0.5453  0.8530 -0.5205
14214TIP3    H264058   1.718   0.993  14.157  1.9827  1.1000 -0.3679
14215TIP3   OH264059   5.190   2.802   0.752  0.2981 -0.2232  0.8894
14215TIP3    H164060   5.189   2.706   0.761  0.5866 -0.3954 -0.7002
14215TIP3    H264061   5.282   2.826   0.753  0.2334  0.0222  1.0945
14216TIP3   OH264062   2.371   3.022   3.451  0.4231 -0.1550 -0.2303
14216TIP3    H164063   2.318   3.065   3.518  0.6135  0.5113 -0.5023
14216TIP3    H264064   2.399   3.092   3.393  0.2813 -0.7193 -1.0052
14217TIP3   OH264065   4.116   0.487  16.492  0.2828  0.2007  0.1565
14217TIP3    H164066   4.146   0.553  16.429  1.7953  0.0954  0.7157
14217TIP3    H264067   4.025   0.510  16.510  0.1489  0.8729 -1.2344
14218TIP3   OH264068   2.832   5.451  15.856  0.3307  0.4337 -0.3837
14218TIP3    H164069   2.771   5.408  15.916  3.8706 -2.0136  1.8256
14218TIP3    H264070   2.841   5.540  15.891 -0.9316  0.4281  0.0088
14219TIP3   OH264071   1.168   2.861   4.987  0.3541  0.2599  0.3307
14219TIP3    H164072   1.189   2.770   5.008 -4.3445 -0.8551  1.4434
14219TIP3    H264073   1.131   2.858   4.899  2.6436  1.6729 -0.7469
14220TIP3   OH264074   0.646   6.452  12.809 -0.4390  0.0544  0.3726
14220TIP3    H164075   0.706   6.521  12.780 -0.1291  0.2418  1.4051
14220TIP3    H264076   0.687   6.371  12.777  0.7034  0.1299  1.5335
14221TIP3   OH264077   6.635   2.649  10.700 -0.3137  0.3766 -0.1791
14221TIP3    H164078   6.689   2.584  10.654 -0.3292  0.5142 -0.3936
14221TIP3    H264079   6.560   2.662  10.642 -0.4715  0.3423  0.0189
14222TIP3   OH264080   5.389   4.121  11.675  0.2591 -0.4719  0.1322
14222TIP3    H164081   5.303   4.160  11.664  0.7300  0.4670 -0.3767
14222TIP3    H264082   5.384   4.075  11.759 -0.7487 -0.4929  0.0741
14223TIP3   OH264083   3.614   1.811   0.663  0.1015  0.3459 -0.9198
14223TIP3    H164084   3.660   1.855   0.735  2.4484 -0.2822 -1.9323
14223TIP3    H264085   3.532   1.781   0.702 -0.1837  2.8091  0.6127
14224TIP3   OH264086   1.302   5.633   1.261  0.1121 -0.7678  0.3799
14224TIP3    H164087   1.336   5.569   1.199  1.4874  1.1596 -0.9505
14224TIP3    H264088   1.237   5.682   1.211 -0.0932 -0.3688  1.0293
14225TIP3   OH264089   0.713   6.116   3.254 -0.2232 -0.3583 -1.0972
14225TIP3    H164090   0.765   6.044   3.218  0.9254 -1.1133  1.7437
14225TIP3    H264091   0.740   6.121   3.346 -0.6941  3.3392 -0.9954
14226TIP3   OH264092   1.835   2.796   3.449 -0.2317  0.2894 -0.3924
14226TIP3    H164093   1.877   2.882   3.456 -0.8816  0.6493 -0.8583
14226TIP3    H264094   1.797   2.782   3.536 -0.5732  0.7122 -0.4691
14227TIP3   OH264095   1.620   1.320  11.116  0.5741  0.5009  0.3817
14227TIP3    H164096   1.610   1.353  11.027  2.0122 -1.0446 -0.4081
14227TIP3    H264097   1.554   1.251  11.124 -1.5087  2.4891  1.5711
14228TIP3   OH264098   2.961   6.555  12.476  0.1730 -0.0568 -0.2743
14228TIP3    H164099   2.898   6.626  12.485  1.5672  1.1271  0.5463
14228TIP3    H264100   3.001   6.546  12.563 -0.8815 -2.7793  0.0328
14229TIP3   OH264101   1.882   0.112  12.889  0.1409  0.4516 -0.3378
14229TIP3    H164102   1.925   0.038  12.933 -0.1370  0.3796 -0.1834
14229TIP3    H264103   1.812   0.072  12.839  1.1385  0.4018 -1.7583
14230TIP3   OH264104   6.240   0.317  14.753  0.5388  0.0354  0.0947
14230TIP3    H164105   6.301   0.364  14.810  0.4951 -0.1261  0.2765
14230TIP3    H264106   6.292   0.244  14.719  0.1934 -0.6263  0.9592
14231TIP3   OH264107   0.865   4.415  11.738 -0.0264  0.5729  0.6887
14231TIP3    H164108   0.931   4.369  11.685  1.2114  1.0138  1.7743
14231TIP3    H264109   0.819   4.471  11.676 -1.1593 -1.6216 -0.5558
14232TIP3   OH264110   1.079   3.244   0.171 -0.3097 -0.2499  0.1508
14232TIP3    H164111   1.081   3.169   0.231 -1.6381  1.0973  1.9521
14232TIP3    H264112   1.000   3.231   0.118  0.7951 -1.3708 -1.3259
14233TIP3   OH264113   5.484   3.604  14.748  0.1472  0.2090 -0.1505
14233TIP3    H164114   5.546   3.531  14.742 -0.5560 -0.3643 -0.4692
14233TIP3    H264115   5.398   3.563  14.741 -0.2653  1.0264  0.0945
14234TIP3   OH264116   4.712   4.359   2.857 -1.1685 -0.4547  0.0382
14234TIP3    H164117   4.727   4.279   2.908 -2.3810 -0.6218  0.1675
14234TIP3    H264118   4.779   4.357   2.789 -0.7041 -1.1884  0.5012
14235TIP3   OH264119   4.278   0.964  12.372  0.6203 -0.5794 -0.3586
14235TIP3    H164120   4.343   1.027  12.342 -0.0361 -0.9473 -2.7420
14235TIP3    H264121   4.230   1.010  12.440  1.0514  0.9912 -1.0690
14236TIP3   OH264122   3.123   2.197  12.506 -0.2531  0.4949 -0.0873
14236TIP3    H164123   3.194   2.190  12.442 -1.4211  2.0803 -1.6644
14236TIP3    H264124   3.163   2.242  12.580  0.9688 -0.7861  0.0805
14237TIP3   OH264125   2.075   4.843   2.495  0.5366 -0.1665  0.4115
14237TIP3    H164126   2.118   4.877   2.574 -0.6747  0.5266  0.8006
14237TIP3    H264127   2.037   4.760   2.522 -0.6887  0.5151  0.8478
14238TIP3   OH264128   3.246   5.183   5.743  0.7723  0.1302 -0.5188
14238TIP3    H164129   3.264   5.113   5.680 -1.4788 -0.9785 -0.0734
14238TIP3    H264130   3.235   5.138   5.826  2.1415  1.3912  0.3842
14239TIP3   OH264131   3.760   0.812   3.275  0.2652 -0.0997  0.6345
14239TIP3    H164132   3.692   0.872   3.245  0.8210 -0.1224 -0.7426
14239TIP3    H264133   3.797   0.854   3.352 -0.8932  0.1945  1.0565
14240TIP3   OH264134   4.430   0.005  15.545 -0.0085  0.1258  0.1635
14240TIP3    H164135   4.410   0.056  15.624 -0.3670 -0.9515  0.7910
14240TIP3    H264136   4.355  -0.054  15.535  0.0185  0.2855 -1.0119
14241TIP3   OH264137   2.994   3.977  15.254  0.4195  0.6022 -0.3432
14241TIP3    H164138   2.940   3.903  15.280 -2.5367  2.5009 -0.6040
14241TIP3    H264139   2.975   4.045  15.318  1.3568  1.8194 -1.3007
14242TIP3   OH264140   3.015   3.991   3.937  0.3467 -0.2849 -0.4283
14242TIP3    H164141   2.993   4.068   3.885  0.1232  0.9156  1.3447
14242TIP3    H264142   3.105   4.007   3.968 -0.3244  0.1868  1.4211
14243TIP3   OH264143   6.738   0.888  12.617  0.1244 -0.1009 -0.7062
14243TIP3    H164144   6.773   0.968  12.655  2.1450 -1.0119 -0.5157
14243TIP3    H264145   6.728   0.828  12.691 -0.8688 -0.2139 -0.9182
14244TIP3   OH264146   5.849   4.275   5.178  0.0003 -0.0285  0.0999
14244TIP3    H164147   5.799   4.317   5.248  1.0395  0.9899  0.2505
14244TIP3    H264148   5.792   4.284   5.101 -0.0800  1.0829  0.2740
14245TIP3   OH264149   4.604   1.957   1.515  0.0063 -0.1541 -0.4914
14245TIP3    H164150   4.667   1.928   1.581  0.2280 -1.2004 -1.1433
14245TIP3    H264151   4.608   1.891   1.447 -0.0390  1.0332 -1.6882
14246TIP3   OH264152   3.346   3.936  10.836 -0.3043 -0.1868  0.2110
14246TIP3    H164153   3.266   3.968  10.879 -0.7951 -0.7247 -0.2754
14246TIP3    H264154   3.380   3.870  10.897 -0.2873 -0.0252  0.3768
14247TIP3   OH264155   1.711   2.998   0.835  0.4039  0.3013 -0.0749
14247TIP3    H164156   1.700   3.085   0.874 -2.0595 -0.3762  0.9024
14247TIP3    H264157   1.715   3.015   0.741 -3.1413  1.3752 -0.1667
14248TIP3   OH264158   5.103   6.590   4.494  0.5469  0.5660  0.0325
14248TIP3    H164159   5.148   6.540   4.563 -1.1086 -3.2679 -1.4191
14248TIP3    H264160   5.166   6.594   4.422 -0.0606 -1.5336 -0.6600
14249TIP3   OH264161   0.853   3.002   0.312 -0.3457  0.2160  0.2773
14249TIP3    H164162   0.794   3.075   0.294 -0.3188 -0.3328 -2.5367
14249TIP3    H264163   0.794   2.930   0.335 -0.7426 -0.0366 -1.4305
14250TIP3   OH264164   4.510   4.336   0.335  0.2740  0.5311  0.1603
14250TIP3    H164165   4.489   4.401   0.403 -2.4569 -0.4415  0.3855
14250TIP3    H264166   4.565   4.271   0.380 -0.4663  0.5459  1.1274
14251TIP3   OH264167   5.825   5.135  16.980 -0.0865 -0.2537 -0.5043
14251TIP3    H164168   5.785   5.222  16.990 -2.0409 -1.2373  0.9918
14251TIP3    H264169   5.756   5.082  16.939  1.8248 -0.6365 -3.4456
14252TIP3   OH264170   1.509   1.377  12.301 -0.2997  0.3877  0.1018
14252TIP3    H164171   1.477   1.294  12.336  0.8258 -0.7568 -1.4339
14252TIP3    H264172   1.590   1.393  12.349 -0.7293  0.8250  0.6882
14253TIP3   OH264173   6.472   5.438  12.750  0.1827  0.1351 -0.5088
14253TIP3    H164174   6.493   5.524  12.715 -2.0259  0.9086 -0.0628
14253TIP3    H264175   6.462   5.452  12.844 -2.3061 -0.0855 -0.6710
14254TIP3   OH264176   6.277   5.641  14.892 -0.1520 -0.7082 -0.2630
14254TIP3    H164177   6.307   5.700  14.962  1.3933 -1.1007 -0.5564
14254TIP3    H264178   6.214   5.584  14.935 -0.9554  0.5192  0.2575
14255TIP3   OH264179   1.108   6.250   6.016 -0.3775 -0.6977  0.0946
14255TIP3    H164180   1.127   6.343   6.032 -0.1938 -0.9158  1.1817
14255TIP3    H264181   1.192   6.212   5.994 -0.3651 -0.7050  0.1540
14256TIP3   OH264182   0.141   2.322   4.464 -0.6654  0.2969  0.5990
14256TIP3    H164183   0.185   2.329   4.549  1.3125 -0.7932 -0.2601
14256TIP3    H264184   0.203   2.360   4.402 -1.8905  0.6736 -0.4416
14257TIP3   OH264185   6.717   0.462   3.948  0.3593  0.1006 -0.1822
14257TIP3    H164186   6.790   0.506   3.991  1.0276  1.4435 -2.5222
14257TIP3    H264187   6.641   0.516   3.967  0.0863 -0.7773  1.4485
14258TIP3   OH264188   0.384   0.602   3.342 -1.2550 -0.3381  0.2899
14258TIP3    H164189   0.462   0.572   3.388 -1.9528 -3.0056 -0.0460
14258TIP3    H264190   0.332   0.645   3.409  0.0720  0.6572  0.7199
14259TIP3   OH264191   3.032   0.088   4.611  0.3198  0.0993  0.8508
14259TIP3    H164192   3.074   0.165   4.573  0.9561 -0.6148  0.0811
14259TIP3    H264193   2.960   0.123   4.663  0.7298  1.2236  0.6813
14260TIP3   OH264194   5.509   5.992   2.127  0.6083 -0.2174  0.3686
14260TIP3    H164195   5.443   5.968   2.192 -0.7598  0.3329 -0.7655
14260TIP3    H264196   5.517   5.915   2.071  0.8599 -0.2526  0.4529
14261TIP3   OH264197   3.610   2.494   5.240 -0.5883  0.9997 -0.6702
14261TIP3    H164198   3.636   2.416   5.289 -2.9216  0.7686  0.3457
14261TIP3    H264199   3.553   2.461   5.171 -1.5005  1.7516 -0.3090
14262TIP3   OH264200   4.388   4.616  10.792 -0.3748  0.2579 -0.7322
14262TIP3    H164201   4.310   4.602  10.739 -0.9935  0.6596  0.0494
14262TIP3    H264202   4.368   4.694  10.844 -1.7167 -2.4859  3.4154
14263TIP3   OH264203   2.647   0.525  15.616 -0.1504  0.2931  0.0768
14263TIP3    H164204   2.645   0.431  15.599 -2.0955  0.5277 -1.4782
14263TIP3    H264205   2.624   0.533  15.708 -0.1231 -0.7468  0.1906
14264TIP3   OH264206   4.603   3.512  14.555 -0.1297 -0.1695 -0.0768
14264TIP3    H164207   4.687   3.501  14.601  0.9135  1.2110 -1.5624
14264TIP3    H264208   4.537   3.489  14.621  1.2240  2.6791  2.5284
14265TIP3   OH264209   6.506   5.141  15.496 -0.8419 -0.1992  0.0099
14265TIP3    H164210   6.554   5.107  15.571 -1.6347  0.4761  0.8604
14265TIP3    H264211   6.485   5.232  15.520 -1.8722 -0.2388 -0.6350
14266TIP3   OH264212   3.341   1.876   4.903  0.4237 -0.3178 -0.1247
14266TIP3    H164213   3.389   1.957   4.884 -0.2644 -0.4852 -3.0571
14266TIP3    H264214   3.342   1.869   4.998  0.6348  3.0575  0.2357
14267TIP3   OH264215   5.724   3.530  13.054  0.5298 -0.0230 -0.4930
14267TIP3    H164216   5.667   3.512  13.129  2.0394 -0.1596  0.6819
14267TIP3    H264217   5.809   3.493  13.080  1.5793  1.5800 -1.4918
14268TIP3   OH264218   0.791   1.749   5.570 -0.3398 -0.3570 -0.0292
14268TIP3    H164219   0.768   1.842   5.573  0.1501 -0.1923 -0.8459
14268TIP3    H264220   0.872   1.742   5.621 -0.4377 -0.3523  0.1252
14269TIP3   OH264221   6.045   1.056   5.084  0.1080  0.1063 -0.2038
14269TIP3    H164222   6.077   0.998   5.015 -1.0421  1.3843 -1.8835
14269TIP3    H264223   5.968   1.012   5.119  0.2773 -0.2077 -0.2204
14270TIP3   OH264224   5.772   3.725  10.434  0.2483 -0.9596 -1.5554
14270TIP3    H164225   5.841   3.785  10.461  0.1456 -1.0088 -1.1790
14270TIP3    H264226   5.812   3.638  10.439 -0.4915 -1.2443  0.9694
14271TIP3   OH264227   3.600   3.283   5.209 -0.5934 -0.2841  0.1588
14271TIP3    H164228   3.690   3.304   5.230 -0.6834  1.3385 -0.9102
14271TIP3    H264229   3.552   3.300   5.290 -0.4001  2.2176 -0.1676
14272TIP3   OH264230   2.385   3.954   1.423  0.3471  0.1717  0.1071
14272TIP3    H164231   2.340   3.872   1.404 -3.2648  1.2201  2.9903
14272TIP3    H264232   2.456   3.930   1.482 -0.4902 -0.9474  0.6879
14273TIP3   OH264233   3.572   3.276  14.768 -0.3697  0.5856 -0.5339
14273TIP3    H164234   3.559   3.183  14.750  3.0742 -0.0234 -0.4288
14273TIP3    H264235   3.608   3.312  14.687 -1.2853  1.7815 -0.4412
14274TIP3   OH264236   3.172   4.928  14.169  0.3057  0.1388  1.1043
14274TIP3    H164237   3.236   4.862  14.144 -0.5422 -0.7035  1.1179
14274TIP3    H264238   3.097   4.911  14.113  0.5900  2.0228  0.0616
14275TIP3   OH264239   2.551   2.385   5.840  0.3015  0.1453  0.0910
14275TIP3    H164240   2.609   2.458   5.814 -0.7852  1.0898  0.2174
14275TIP3    H264241   2.505   2.362   5.759 -0.1869  0.3800  0.2991
14276TIP3   OH264242   5.760   1.801  16.296  0.1674 -1.0786 -0.2655
14276TIP3    H164243   5.839   1.803  16.351  1.4089  0.4013 -2.0184
14276TIP3    H264244   5.787   1.756  16.216 -0.1316  1.2274 -1.7355
14277TIP3   OH264245   5.384   4.401  12.616 -0.2482 -0.5440 -0.3153
14277TIP3    H164246   5.418   4.411  12.528 -1.5808  0.0810 -0.7870
14277TIP3    H264247   5.330   4.322  12.613 -0.4112 -0.4445 -0.1072
14278TIP3   OH264248   3.421   4.486  13.061 -0.4737 -0.1900  0.4891
14278TIP3    H164249   3.358   4.506  13.130 -0.0983  0.1331  0.7457
14278TIP3    H264250   3.502   4.529  13.089 -0.8960  1.9361 -1.2793
14279TIP3   OH264251   5.817   5.078   4.315 -0.3200 -0.5294  0.0204
14279TIP3    H164252   5.862   5.141   4.371 -1.8246 -0.6385  1.4428
14279TIP3    H264253   5.725   5.105   4.318 -0.5340 -0.9065 -1.9618
14280TIP3   OH264254   3.273   3.020   3.626  0.6173  0.6815 -0.0503
14280TIP3    H164255   3.355   3.069   3.622  1.2831 -0.1482  1.8537
14280TIP3    H264256   3.235   3.045   3.710 -0.1558 -0.3272 -0.0829
14281TIP3   OH264257   3.786   6.157  11.716 -0.3655  0.4886 -0.3372
14281TIP3    H164258   3.826   6.181  11.633 -1.3988  1.1204 -0.6593
14281TIP3    H264259   3.854   6.174  11.781 -0.5823  3.0883 -0.6824
14282TIP3   OH264260   1.763   5.616  14.080 -0.0672  0.5047  0.6987
14282TIP3    H164261   1.840   5.617  14.023 -0.1062 -0.1542  0.6290
14282TIP3    H264262   1.712   5.692  14.052  0.4150  0.7743  0.5439
14283TIP3   OH264263   4.039   6.262  14.440 -0.3025  0.1139 -0.2553
14283TIP3    H164264   4.093   6.298  14.511 -0.6151  1.4181 -0.6456
14283TIP3    H264265   4.003   6.181  14.476 -0.8094  0.9622  1.2623
14284TIP3   OH264266   2.483   3.292   3.404 -0.1290  0.1589 -0.7782
14284TIP3    H164267   2.535   3.288   3.484 -0.1990 -0.3030 -0.7553
14284TIP3    H264268   2.400   3.332   3.431  0.4317  1.4807 -0.9369
14285TIP3   OH264269   4.940   1.965  16.908  0.1794  1.2331  0.2511
14285TIP3    H164270   4.851   1.982  16.879 -0.6460  0.5823  2.2272
14285TIP3    H264271   4.931   1.939  16.999  2.3517  0.5928  0.3422
14286TIP3   OH264272   0.791   4.932  11.094 -0.7658  0.2008  0.0539
14286TIP3    H164273   0.739   4.922  11.173  2.5772 -1.2042  2.3200
14286TIP3    H264274   0.800   4.843  11.059 -1.0503  0.6186 -1.1231
14287TIP3   OH264275   4.849   6.392   4.222 -0.2984  0.1011  0.1815
14287TIP3    H164276   4.883   6.303   4.208 -0.4045 -0.2975  2.1979
14287TIP3    H264277   4.928   6.447   4.228 -0.0151 -0.4351  2.3256
14288TIP3   OH264278   4.932   4.094  14.530  0.5119 -0.3953 -0.6241
14288TIP3    H164279   4.909   4.002  14.514  1.6662 -0.9540  0.7298
14288TIP3    H264280   4.894   4.115  14.615 -0.9468  0.8562 -1.5313
14289TIP3   OH264281   3.940   3.254   5.644 -0.2305 -0.8156  0.0937
14289TIP3    H164282   4.016   3.310   5.659 -0.3196 -0.1663 -1.6167
14289TIP3    H264283   3.913   3.225   5.732  1.2060 -0.0392  0.8212
14290TIP3   OH264284   4.727   6.334  15.977  0.0035 -0.4221  0.2025
14290TIP3    H164285   4.717   6.265  15.911 -0.0158 -1.1307  0.9262
14290TIP3    H264286   4.690   6.412  15.936  1.5767 -0.4063 -1.3146
14291TIP3   OH264287   6.298   3.886  15.129 -0.0086  0.2717 -0.5675
14291TIP3    H164288   6.226   3.947  15.113  0.2887  0.5738 -0.7879
14291TIP3    H264289   6.262   3.800  15.111 -0.1690  0.4654 -1.1817
14292TIP3   OH264290   3.589   1.234   1.674  0.5751  0.0838 -0.2267
14292TIP3    H164291   3.608   1.249   1.581  1.8606  2.0448  0.2796
14292TIP3    H264292   3.588   1.322   1.712 -2.3636 -0.4542  1.2231
14293TIP3   OH264293   5.304   3.386   5.205 -0.0929  0.2060 -0.4594
14293TIP3    H164294   5.218   3.429   5.198  0.0693  1.0112  1.6689
14293TIP3    H264295   5.358   3.449   5.252  1.7423 -0.2504 -1.8619
14294TIP3   OH264296   3.621   0.451  14.502 -0.5694  0.2829  0.8361
14294TIP3    H164297   3.612   0.357  14.488 -0.3808  0.2594  0.8716
14294TIP3    H264298   3.632   0.461  14.596 -1.2471  0.3946  0.9020
14295TIP3   OH264299   5.622   6.321   1.420  0.2743  0.9139  0.0075
14295TIP3    H164300   5.716   6.338   1.428  0.2828  0.5532  0.8483
14295TIP3    H264301   5.598   6.283   1.505 -0.4787  0.2811 -0.4821
14296TIP3   OH264302   6.128   4.132   3.005 -0.4217  0.6594  0.6339
14296TIP3    H164303   6.134   4.106   2.913 -2.6043  2.0714 -0.0085
14296TIP3    H264304   6.036   4.117   3.028 -0.1161  1.1461  2.3368
14297TIP3   OH264305   3.898   4.932   3.395  0.2416  0.1589  0.3505
14297TIP3    H164306   3.924   4.858   3.449  0.8311 -0.5024 -0.8050
14297TIP3    H264307   3.810   4.954   3.424  1.0402  0.7240  2.5279
14298TIP3   OH264308   1.304   6.261   2.260 -0.1387  0.2783  0.3359
14298TIP3    H164309   1.364   6.218   2.321 -0.0853  2.6153  2.0695
14298TIP3    H264310   1.236   6.299   2.316  0.0951  2.8438 -0.9533
14299TIP3   OH264311   0.145   3.973  13.375 -0.1095 -0.5429  0.6889
14299TIP3    H164312   0.199   3.948  13.300 -2.2194 -0.0234 -1.1070
14299TIP3    H264313   0.102   3.891  13.401  0.1474 -0.6014  0.9307
14300TIP3   OH264314   5.804   3.762  15.322  0.2969  0.2911  0.7883
14300TIP3    H164315   5.729   3.760  15.380 -0.8219  1.3678 -0.5570
14300TIP3    H264316   5.865   3.824  15.363  0.0550  0.1226  1.4110
14301TIP3   OH264317   4.593   5.281   1.807  0.3557  0.1771 -0.2750
14301TIP3    H164318   4.559   5.210   1.753 -0.7009 -1.3318  2.2214
14301TIP3    H264319   4.688   5.279   1.791  0.5112 -2.5014  0.4091
14302TIP3   OH264320   0.680   6.284  10.995 -0.0871 -0.0108  0.2598
14302TIP3    H164321   0.735   6.287  10.916 -0.1501  0.0939  0.2189
14302TIP3    H264322   0.592   6.263  10.961 -0.2431  0.6688  0.2322
14303TIP3   OH264323   2.072   5.352  13.512 -0.2927  0.2256  0.0899
14303TIP3    H164324   2.139   5.414  13.481  0.1598 -0.5703 -0.5579
14303TIP3    H264325   2.010   5.407  13.560 -0.5513  1.3865 -1.4804
14304TIP3   OH264326   1.279   4.389   0.750  0.4447  0.1436 -0.2611
14304TIP3    H164327   1.263   4.476   0.786 -0.4006  0.3171 -1.0116
14304TIP3    H264328   1.313   4.405   0.662 -0.1174 -0.2659 -0.5690
14305TIP3   OH264329   0.944   2.214  13.233 -0.1635  0.1004 -0.1262
14305TIP3    H164330   1.036   2.196  13.213 -0.1994 -0.4296  0.1550
14305TIP3    H264331   0.897   2.193  13.152 -0.1363 -0.5565  0.0171
14306TIP3   OH264332   0.914   0.455   5.211 -0.3630  0.5988  0.6644
14306TIP3    H164333   0.975   0.433   5.282 -0.9316 -0.2697  0.8969
14306TIP3    H264334   0.836   0.486   5.255 -0.6084  0.3417  0.4131
14307TIP3   OH264335   6.369   6.434  15.655 -0.2136  0.2813  0.5782
14307TIP3    H164336   6.375   6.343  15.624  0.6065  0.1330  1.1364
14307TIP3    H264337   6.402   6.486  15.582 -0.3913  0.1035  0.3698
14308TIP3   OH264338   2.621   5.364   4.729  0.3787  0.2869  0.3506
14308TIP3    H164339   2.528   5.350   4.710  0.9353 -0.6231 -2.0229
14308TIP3    H264340   2.625   5.371   4.824 -2.1552  0.6638  0.5000
14309TIP3   OH264341   4.956   3.514  10.398 -0.0690  0.0991 -0.2180
14309TIP3    H164342   4.992   3.601  10.379  1.8388 -0.7544 -0.8265
14309TIP3    H264343   4.969   3.465  10.317 -1.4018 -0.6794  0.0165
14310TIP3   OH264344   0.262   3.946  11.223  0.1893 -0.9067 -0.0791
14310TIP3    H164345   0.216   3.965  11.142  1.4571  1.2770 -0.3494
14310TIP3    H264346   0.195   3.905  11.279 -0.9843 -1.4377 -1.7878
14311TIP3   OH264347   1.171   2.665  13.476 -0.3956 -0.4642  0.5995
14311TIP3    H164348   1.097   2.712  13.515  0.2434  0.4776  0.7040
14311TIP3    H264349   1.130   2.595  13.425 -1.4462  0.9305 -0.5686
14312TIP3   OH264350   0.100   2.231   1.532 -0.0275 -0.0742 -0.3127
14312TIP3    H164351   0.102   2.241   1.437 -0.6463 -2.1868 -0.5939
14312TIP3    H264352   0.166   2.293   1.563  1.1012 -0.2343 -2.2011
14313TIP3   OH264353   6.206   6.410  13.973  0.6038  0.0133 -0.5137
14313TIP3    H164354   6.134   6.461  14.011  0.8404 -0.9958  1.3701
14313TIP3    H264355   6.256   6.474  13.922 -0.3396  1.1927 -0.0005
14314TIP3   OH264356   2.663   3.566   3.441 -0.0377  0.4781  0.0856
14314TIP3    H164357   2.704   3.574   3.355 -0.0902 -1.5031 -0.1645
14314TIP3    H264358   2.698   3.484   3.477 -1.4929  0.2714  1.1273
14315TIP3   OH264359   0.191   5.711  11.936 -0.1077 -0.9101 -0.0523
14315TIP3    H164360   0.105   5.672  11.922  0.2688 -2.1276  0.8135
14315TIP3    H264361   0.223   5.731  11.848 -1.2757 -0.4032 -0.3794
14316TIP3   OH264362   0.931   4.901  12.824  0.2196 -0.3305  0.5373
14316TIP3    H164363   0.880   4.847  12.763 -1.6783 -0.1576  1.8591
14316TIP3    H264364   0.985   4.838  12.872 -0.9223 -0.9281  1.0851
14317TIP3   OH264365   5.849   4.254  13.406 -0.4887  0.1653  0.2349
14317TIP3    H164366   5.896   4.316  13.463  0.0789  1.0011 -1.0889
14317TIP3    H264367   5.880   4.168  13.434  0.1564  0.5822  0.8479
14318TIP3   OH264368   5.093   2.742   1.776 -0.2495 -0.3386 -0.3628
14318TIP3    H164369   5.091   2.655   1.816  0.1825 -1.1627 -2.0124
14318TIP3    H264370   5.184   2.754   1.750 -0.1001  1.0573  0.7301
14319TIP3   OH264371   0.665   2.305   0.400  0.4583 -0.2492 -0.8036
14319TIP3    H164372   0.625   2.228   0.360  0.3589  0.0801 -1.3471
14319TIP3    H264373   0.741   2.324   0.344  0.9239 -0.3967 -0.2375
14320TIP3   OH264374   6.580   6.136  13.279  0.7641  0.0557  0.3619
14320TIP3    H164375   6.583   6.145  13.183  1.1867  0.5546  0.4168
14320TIP3    H264376   6.602   6.045  13.295  0.0527 -0.2012 -0.0468
14321TIP3   OH264377   1.530   4.476   3.544 -0.2495 -0.1404  0.4451
14321TIP3    H164378   1.536   4.398   3.489 -0.7351  0.0218  0.1542
14321TIP3    H264379   1.596   4.535   3.509 -0.3621 -0.1503  0.2087
14322TIP3   OH264380   5.910   2.133  14.424  0.3533 -0.2294 -0.1157
14322TIP3    H164381   5.954   2.087  14.353 -1.1803 -0.7037 -0.7938
14322TIP3    H264382   5.835   2.078  14.447  0.2987  0.3675  1.2466
14323TIP3   OH264383   1.972   1.152  12.482 -0.0505 -0.0485 -0.2594
14323TIP3    H164384   1.933   1.188  12.561  0.5299 -0.8876  0.4405
14323TIP3    H264385   1.898   1.130  12.426 -0.4742  0.4551  0.0922
14324TIP3   OH264386   0.409   2.895   5.917  0.1889  0.3971 -0.3623
14324TIP3    H164387   0.467   2.896   5.993  1.7052  1.8870 -1.4593
14324TIP3    H264388   0.321   2.889   5.954  0.8004  2.3319  1.6125
14325TIP3   OH264389   1.284   6.298   3.811  0.0480  0.2130  0.2654
14325TIP3    H164390   1.278   6.208   3.779  2.0833 -0.1182  0.6810
14325TIP3    H264391   1.372   6.326   3.786 -1.0554  2.6738 -1.2493
14326TIP3   OH264392   6.063   6.179  16.456 -0.3985  0.2078 -0.1649
14326TIP3    H164393   6.075   6.085  16.444 -1.1029  0.0733  0.1559
14326TIP3    H264394   6.049   6.190  16.550 -0.6737  0.5880 -0.2470
14327TIP3   OH264395   2.288   0.389  11.603 -0.2471  0.3842 -0.4377
14327TIP3    H164396   2.272   0.379  11.510  0.0326 -1.3377 -0.3377
14327TIP3    H264397   2.201   0.398  11.642 -0.4000  0.5346 -0.8153
14328TIP3   OH264398   3.790   1.720  13.691 -0.0219 -0.3443 -0.1068
14328TIP3    H164399   3.852   1.784  13.727  1.3222 -1.0315 -1.1289
14328TIP3    H264400   3.798   1.644  13.749 -1.5388  0.2860  1.0406
14329TIP3   OH264401   3.967   6.649  16.340  0.0242 -0.0870  0.3853
14329TIP3    H164402   3.978   6.629  16.247  0.0831 -1.3089  0.6326
14329TIP3    H264403   3.931   6.737  16.342  1.4621  0.5565 -0.7409
14330TIP3   OH264404   4.209   0.867   0.336  0.1084  0.0254  0.6541
14330TIP3    H164405   4.269   0.938   0.362 -1.1695  1.9388 -1.3433
14330TIP3    H264406   4.265   0.805   0.289  0.8246  0.9535  0.2482
14331TIP3   OH264407   4.574   1.941  14.072  0.0337  0.0982 -0.3920
14331TIP3    H164408   4.502   1.911  14.016 -0.4592  1.1569 -0.3387
14331TIP3    H264409   4.567   2.036  14.072  0.4791  0.1480  0.8942
14332TIP3   OH264410   5.813   2.944   0.738 -0.0834 -0.3995  0.2981
14332TIP3    H164411   5.752   2.920   0.668 -0.1598  3.9768 -1.4168
14332TIP3    H264412   5.895   2.901   0.714 -0.1755  0.7463 -2.4463
14333TIP3   OH264413   1.707   2.613   3.262  0.1379 -0.6697  0.3485
14333TIP3    H164414   1.756   2.670   3.322  0.3875 -0.2052 -0.2903
14333TIP3    H264415   1.750   2.528   3.269 -0.5760 -0.9561  1.7252
14334TIP3   OH264416   0.389   6.117   0.712 -0.1382  0.0927 -0.1234
14334TIP3    H164417   0.385   6.191   0.651  0.8569  0.7391  0.5680
14334TIP3    H264418   0.412   6.042   0.657  0.8618  0.6893 -0.5447
14335TIP3   OH264419   0.774   1.955  15.493  0.0637  0.5774  0.2279
14335TIP3    H164420   0.793   1.870  15.454  0.8405  2.1364 -3.1009
14335TIP3    H264421   0.857   2.001  15.494 -0.9888  2.7610 -2.0741
14336TIP3   OH264422   5.911   2.703  12.172 -0.2430  0.4489  0.1032
14336TIP3    H164423   5.920   2.733  12.082  0.8611 -1.6311 -0.5339
14336TIP3    H264424   5.997   2.668  12.195 -1.4449 -2.4656  0.6137
14337TIP3   OH264425   1.548   0.736  12.899  0.0860  0.3408 -0.1156
14337TIP3    H164426   1.617   0.800  12.881 -0.8063  1.2656 -0.3557
14337TIP3    H264427   1.516   0.711  12.813  0.0766 -0.0469 -0.0025
14338TIP3   OH264428   4.255   6.048  14.640 -0.0517 -0.1057  0.0689
14338TIP3    H164429   4.307   6.029  14.561 -0.4510  0.8732 -0.4362
14338TIP3    H264430   4.279   6.137  14.664 -1.1847  0.2106  0.0759
14339TIP3   OH264431   6.507   2.173  11.893  0.0525  0.2958 -0.3546
14339TIP3    H164432   6.511   2.222  11.975  0.9619 -0.1344 -0.1289
14339TIP3    H264433   6.414   2.156  11.879 -0.1855  1.1385  0.1222
14340TIP3   OH264434   6.538   2.868  16.177 -0.2117  0.6053 -0.2912
14340TIP3    H164435   6.452   2.895  16.146  0.1631  0.4639 -1.4786
14340TIP3    H264436   6.596   2.940  16.153 -0.3043  1.6890  2.3553
14341TIP3   OH264437   6.239   6.066   3.684 -0.3703 -0.1212  0.5921
14341TIP3    H164438   6.238   6.107   3.770  0.8034  1.7843 -0.2229
14341TIP3    H264439   6.158   6.097   3.642 -0.3852 -0.1352  0.6105
14342TIP3   OH264440   6.492   2.949   0.821 -0.4106 -0.1423 -0.2898
14342TIP3    H164441   6.572   2.953   0.872  1.1138  1.3022 -2.6248
14342TIP3    H264442   6.458   2.860   0.837  1.4637 -0.7003  0.9703
14343TIP3   OH264443   1.152   5.001  11.606  0.0365  0.1930 -0.5845
14343TIP3    H164444   1.237   4.974  11.641  0.5068  2.2386 -0.0574
14343TIP3    H264445   1.166   5.004  11.511  0.8128  1.3059 -0.4490
14344TIP3   OH264446   2.021   0.387   5.405 -0.0709  0.1738  0.2315
14344TIP3    H164447   2.028   0.429   5.490  0.3065  0.4402  0.0742
14344TIP3    H264448   2.094   0.324   5.403 -0.9971 -0.9677  0.7153
14345TIP3   OH264449   1.065   6.395  11.075  0.2157 -0.3461  0.3430
14345TIP3    H164450   1.008   6.462  11.037 -0.5370 -2.2465 -2.1152
14345TIP3    H264451   1.147   6.401  11.024 -0.2238 -1.8785 -0.6113
14346TIP3   OH264452   2.822   4.909   4.522 -0.1474 -0.1503  0.7141
14346TIP3    H164453   2.858   4.927   4.436 -0.6088  1.2508  0.7802
14346TIP3    H264454   2.740   4.863   4.504 -0.7726  1.0527  0.3169
14347TIP3   OH264455   2.995   0.335   0.181 -0.2444  0.3942  0.5279
14347TIP3    H164456   3.036   0.255   0.215  0.1454  0.0548 -0.6761
14347TIP3    H264457   2.908   0.337   0.220  0.4651  0.4817  2.1873
14348TIP3   OH264458   0.684   2.802  11.182  0.7109  0.2920 -0.5499
14348TIP3    H164459   0.668   2.714  11.149  0.9154  0.9437 -2.5349
14348TIP3    H264460   0.606   2.824  11.232  0.5560 -0.9158 -0.2357
14349TIP3   OH264461   6.436   1.158   0.955  0.1350 -0.2332  0.1424
14349TIP3    H164462   6.471   1.172   1.043 -0.4445 -2.7147  0.8611
14349TIP3    H264463   6.349   1.120   0.970  0.9096 -2.8957 -1.3799
14350TIP3   OH264464   6.375   0.383  12.248 -0.0212  0.1292 -0.4799
14350TIP3    H164465   6.425   0.369  12.328 -0.9014 -0.9846 -0.0841
14350TIP3    H264466   6.383   0.476  12.230  1.1223  0.1940  0.2720
14351TIP3   OH264467   3.571   1.997   5.757  0.3631 -0.1693 -0.1171
14351TIP3    H164468   3.559   2.091   5.746  2.1395  0.1598  0.5269
14351TIP3    H264469   3.521   1.958   5.685  0.4184  1.3068 -0.9879
14352TIP3   OH264470   6.446   2.228   3.836 -0.3600  0.3079 -0.5815
14352TIP3    H164471   6.351   2.224   3.839 -0.3096 -0.9301  0.7291
14352TIP3    H264472   6.475   2.155   3.891  1.3283  1.6000  0.3658
14353TIP3   OH264473   5.162   2.011   2.299 -0.0055  0.0533 -0.4262
14353TIP3    H164474   5.150   2.057   2.216  2.2487  2.9705  0.6859
14353TIP3    H264475   5.242   1.960   2.286  0.6265  0.8977  0.0560
14354TIP3   OH264476   2.480   2.682   3.156  0.1909 -0.4719  0.0794
14354TIP3    H164477   2.407   2.717   3.207 -0.0432 -1.9598  0.8453
14354TIP3    H264478   2.554   2.684   3.216  0.5116 -0.0249 -0.3230
14355TIP3   OH264479   2.023   2.149   2.057  0.3619  0.8763  0.1510
14355TIP3    H164480   2.051   2.090   2.126  0.0797  1.1602  0.5142
14355TIP3    H264481   2.053   2.236   2.086 -0.8027  1.1819  0.5198
14356TIP3   OH264482   0.211   3.243   2.399 -0.3412  0.4613  0.6786
14356TIP3    H164483   0.259   3.206   2.325 -0.8854 -1.3569  1.2001
14356TIP3    H264484   0.277   3.293   2.448  0.5230 -0.2150  0.2204
14357TIP3   OH264485   1.428   2.616   1.423  0.3693 -0.0286 -0.1157
14357TIP3    H164486   1.402   2.706   1.442 -0.0843  0.0274 -0.9726
14357TIP3    H264487   1.347   2.572   1.396  0.7532 -0.4453 -0.6142
14358TIP3   OH264488   6.586   2.974   3.050  0.2774  0.2797 -0.1858
14358TIP3    H164489   6.521   2.990   2.981 -2.4632 -0.6346  1.9980
14358TIP3    H264490   6.637   2.899   3.019 -0.1817  0.5344 -1.6342
14359TIP3   OH264491   0.824   3.634   1.731  0.2056 -0.7374 -0.3354
14359TIP3    H164492   0.800   3.726   1.723  0.6412 -0.5971 -0.0819
14359TIP3    H264493   0.900   3.623   1.674 -1.2240 -1.4962 -2.1859
14360TIP3   OH264494   4.357   5.884   5.596  0.2371 -0.1553 -0.2994
14360TIP3    H164495   4.329   5.955   5.540  3.1866 -0.0218 -1.7939
14360TIP3    H264496   4.400   5.927   5.670 -1.1030 -0.3844  0.6492
14361TIP3   OH264497   3.021   2.665  13.364  0.3671 -0.0965  0.1895
14361TIP3    H164498   2.951   2.616  13.321  1.6893 -1.5346 -0.4136
14361TIP3    H264499   3.054   2.724  13.297  0.9271 -0.7265 -0.0999
14362TIP3   OH264500   3.782   3.013   0.723  0.5389 -0.1203 -0.5707
14362TIP3    H164501   3.853   3.054   0.773  0.3252  0.1559 -0.4901
14362TIP3    H264502   3.756   2.937   0.776  0.5531 -0.0319 -0.4358
14363TIP3   OH264503   2.278   5.337   3.880 -0.6506  0.5519 -0.3776
14363TIP3    H164504   2.359   5.308   3.920 -1.5219 -0.3211  0.8198
14363TIP3    H264505   2.270   5.284   3.801 -0.5650 -0.0921  0.0432
14364TIP3   OH264506   3.720   1.035  10.926 -0.3506 -0.1000 -0.2984
14364TIP3    H164507   3.760   1.051  10.841  1.1281 -0.8470  0.2187
14364TIP3    H264508   3.693   1.122  10.956 -0.7027  0.1975 -1.4223
14365TIP3   OH264509   1.635   2.424  12.307  0.5274  0.5892  0.1892
14365TIP3    H164510   1.604   2.358  12.370  0.4800  1.4622  1.1178
14365TIP3    H264511   1.688   2.375  12.244 -0.5339 -0.5209  0.1260
14366TIP3   OH264512   2.754   0.936   2.191 -0.4384  0.4063 -1.2265
14366TIP3    H164513   2.747   0.842   2.177 -0.3178  0.6007 -2.7744
14366TIP3    H264514   2.704   0.975   2.119  0.2005  1.5341 -1.0881
14367TIP3   OH264515   1.363   5.096  12.501  0.2355  0.0941  0.1995
14367TIP3    H164516   1.432   5.056  12.553 -0.6703 -2.0004 -0.1111
14367TIP3    H264517   1.284   5.088  12.555 -0.1888  0.4115 -0.3622
14368TIP3   OH264518   5.151   4.731  16.068 -0.0650 -0.0556  0.4699
14368TIP3    H164519   5.057   4.747  16.070  0.0232  0.8027 -1.0663
14368TIP3    H264520   5.159   4.638  16.049 -0.5817 -0.4217  1.9101
14369TIP3   OH264521   2.638   3.755  15.926 -0.0145  0.2867  0.3876
14369TIP3    H164522   2.557   3.704  15.932  0.6584 -0.8812  0.0001
14369TIP3    H264523   2.708   3.691  15.945  0.8678  1.0424 -0.2055
14370TIP3   OH264524   2.471   3.456  12.261 -0.1353 -0.7334 -0.3341
14370TIP3    H164525   2.409   3.520  12.225  0.6635  1.9625  2.6904
14370TIP3    H264526   2.533   3.441  12.189 -0.3392  1.9569 -1.1877
14371TIP3   OH264527   3.836   2.898  13.603  0.9385 -0.2972 -0.0232
14371TIP3    H164528   3.875   2.812  13.622  0.4222 -0.6533 -0.5468
14371TIP3    H264529   3.746   2.878  13.577  1.2412  0.2777 -1.6070
14372TIP3   OH264530   0.295   2.123  12.550  0.0023  0.0031  0.2076
14372TIP3    H164531   0.228   2.167  12.498  0.2283  1.2575  0.9455
14372TIP3    H264532   0.375   2.131  12.498  0.2025  1.1462  0.6748
14373TIP3   OH264533   0.236   3.491  16.266 -0.0779  0.0865  0.3479
14373TIP3    H164534   0.210   3.471  16.356  0.1760 -2.2115 -0.0392
14373TIP3    H264535   0.318   3.443  16.253 -0.7602 -0.6494 -1.5048
14374TIP3   OH264536   2.065   5.151   0.752  0.3827  0.5189  0.1123
14374TIP3    H164537   2.038   5.131   0.841 -0.7659  0.2110 -0.2775
14374TIP3    H264538   2.015   5.229   0.728  2.3393  1.9532  0.4705
14375TIP3   OH264539   5.361   1.171  15.521  0.6999  0.0114  0.4221
14375TIP3    H164540   5.279   1.219  15.516  0.0377 -1.1640 -0.2719
14375TIP3    H264541   5.346   1.104  15.588  1.1352 -0.1282  0.3850
14376TIP3   OH264542   3.103   5.732   0.406  0.3518 -0.1014 -0.2643
14376TIP3    H164543   3.130   5.824   0.401 -0.5246  0.3371  1.9201
14376TIP3    H264544   3.007   5.734   0.401  0.1102 -0.5476  2.5275
14377TIP3   OH264545   0.789   4.203  16.859  0.1009 -0.3613 -0.3557
14377TIP3    H164546   0.877   4.241  16.855 -0.3959  0.8688 -0.0842
14377TIP3    H264547   0.751   4.242  16.938 -1.3283  0.5421 -1.4647
14378TIP3   OH264548   1.289   2.660   1.798  0.3279 -1.0295  0.4191
14378TIP3    H164549   1.250   2.747   1.784  1.0035 -0.0135  3.9332
14378TIP3    H264550   1.375   2.678   1.835 -0.1950 -3.0919  2.9390
14379TIP3   OH264551   0.839   5.378   4.549 -0.4284 -0.4338 -0.4480
14379TIP3    H164552   0.754   5.345   4.580 -0.0884  0.2621  1.3261
14379TIP3    H264553   0.893   5.299   4.539 -0.1590 -0.6607  2.1028
14380TIP3   OH264554   3.398   5.193  12.505  0.0301  0.7892 -0.0808
14380TIP3    H164555   3.318   5.158  12.467  0.9678 -1.4332 -0.1502
14380TIP3    H264556   3.455   5.210  12.429  0.4956 -0.0105  0.0703
14381TIP3   OH264557   4.077   1.836  13.775  0.3623  0.7725  0.3411
14381TIP3    H164558   4.081   1.853  13.869 -0.1179  1.3170  0.2708
14381TIP3    H264559   4.097   1.920  13.734  2.6044  0.0958 -0.0904
14382TIP3   OH264560   5.993   0.532  15.000 -0.3761  0.2211 -0.1996
14382TIP3    H164561   6.005   0.627  15.002 -0.9231  0.2989 -0.4081
14382TIP3    H264562   5.969   0.514  14.909 -0.0679 -0.1461 -0.2100
14383TIP3   OH264563   2.253   2.407   1.728  0.7084  0.6494 -0.2657
14383TIP3    H164564   2.334   2.449   1.755  1.9953 -1.4211 -0.6919
14383TIP3    H264565   2.256   2.406   1.633  0.2245  0.4789 -0.2865
14384TIP3   OH264566   1.738   2.261   2.037  0.0391 -0.3429  0.1450
14384TIP3    H164567   1.791   2.212   1.975 -1.4684 -0.6578 -0.9720
14384TIP3    H264568   1.800   2.294   2.101  1.3900 -1.7707 -0.3614
14385TIP3   OH264569   0.845   2.877   2.538  1.0121 -0.1951 -0.2544
14385TIP3    H164570   0.829   2.968   2.515 -0.2109  0.0736  1.4636
14385TIP3    H264571   0.760   2.843   2.564  0.8434 -2.7101 -3.4190
14386TIP3   OH264572   5.931   0.921  11.763  0.6779  0.1785  0.3496
14386TIP3    H164573   6.021   0.940  11.737  0.6949  0.1404  0.3801
14386TIP3    H264574   5.930   0.827  11.780  0.8596  0.3244  1.2233
14387TIP3   OH264575   6.290   1.507  12.646  0.2797  0.3189  0.0049
14387TIP3    H164576   6.366   1.450  12.659  1.1314  1.4657  0.2383
14387TIP3    H264577   6.328   1.593  12.629 -0.9777  1.0683  0.8333
14388TIP3   OH264578   4.035   6.231  15.074  0.3494  0.4075  0.1326
14388TIP3    H164579   4.117   6.192  15.041  0.1353 -1.2219  1.3715
14388TIP3    H264580   4.059   6.320  15.099  0.7882  1.3409 -3.1867
14389TIP3   OH264581   4.390   3.241   4.628  0.4754 -0.2551  0.1301
14389TIP3    H164582   4.438   3.283   4.557 -0.0142 -1.1903 -0.7803
14389TIP3    H264583   4.424   3.283   4.708 -1.1316  3.0052 -0.7413
14390TIP3   OH264584   1.986   5.802   1.156 -0.8455  0.1231  0.7724
14390TIP3    H164585   1.962   5.722   1.109 -1.2823  1.0549 -0.6568
14390TIP3    H264586   1.969   5.873   1.094 -0.2021  1.3200  1.8988
14391TIP3   OH264587   4.683   0.290  15.823  0.0396 -0.1911 -0.1440
14391TIP3    H164588   4.732   0.210  15.845  0.5227 -0.2311 -1.2852
14391TIP3    H264589   4.738   0.361  15.856  0.0191 -0.2952  0.1197
14392TIP3   OH264590   5.270   5.206  16.586  0.1409 -0.0559 -0.3905
14392TIP3    H164591   5.342   5.146  16.606  0.8479  0.7199 -0.5180
14392TIP3    H264592   5.297   5.248  16.504 -0.1136  0.7610 -0.0684
14393TIP3   OH264593   6.061   5.676  11.544  0.2790 -0.2164 -0.5950
14393TIP3    H164594   5.967   5.696  11.542  0.0788 -0.8759  0.7743
14393TIP3    H264595   6.096   5.715  11.464 -1.3610 -0.9085 -1.7016
14394TIP3   OH264596   5.626   2.677  11.639 -0.3600 -0.5056 -0.6716
14394TIP3    H164597   5.700   2.686  11.699 -0.8825 -2.1071  0.2936
14394TIP3    H264598   5.666   2.664  11.553  0.5073 -1.3702 -0.1674
14395TIP3   OH264599   5.133   3.042   3.057  0.1900 -0.6811  0.2548
14395TIP3    H164600   5.205   2.992   3.018  0.5190 -0.5519  0.6894
14395TIP3    H264601   5.115   2.998   3.140  0.8708  0.2445  0.9159
14396TIP3   OH264602   6.695   1.732  10.996  0.2857  0.5890 -0.4130
14396TIP3    H164603   6.640   1.808  11.016 -2.3818 -1.7796  2.2317
14396TIP3    H264604   6.784   1.763  11.009 -0.7201  3.1598  1.1236
14397TIP3   OH264605   5.661   5.396  17.077  0.0029 -0.2179 -0.0115
14397TIP3    H164606   5.629   5.486  17.081 -0.1890 -0.2062 -1.3624
14397TIP3    H264607   5.587   5.346  17.042  0.0643 -0.9339  0.8492
14398TIP3   OH264608   5.876   3.188   1.325 -0.4625  0.0183  0.5648
14398TIP3    H164609   5.896   3.205   1.233 -0.9007 -1.1894  0.2281
14398TIP3    H264610   5.848   3.273   1.360 -0.3507  0.4725 -0.4260
14399TIP3   OH264611   4.183   6.136  11.521 -0.2619 -0.4560  0.2655
14399TIP3    H164612   4.268   6.180  11.532 -1.0203  1.0557  0.2571
14399TIP3    H264613   4.189   6.059  11.578  1.2534 -0.6015 -0.0387
14400TIP3   OH264614   1.248   3.366   4.317  0.3445 -0.7524 -0.1081
14400TIP3    H164615   1.230   3.395   4.406  1.2410 -1.1126  0.2049
14400TIP3    H264616   1.339   3.337   4.319  0.0955 -1.6501 -0.9178
14401TIP3   OH264617   5.020   2.713  12.979  0.2507 -0.0702 -0.2337
14401TIP3    H164618   4.982   2.634  12.941  1.6039 -0.3915 -1.0124
14401TIP3    H264619   5.036   2.691  13.071  1.0465 -0.9065 -0.5474
14402TIP3   OH264620   1.359   2.083   4.255  0.1892 -0.1358  0.0363
14402TIP3    H164621   1.365   2.163   4.202 -2.7201  0.2663  0.1391
14402TIP3    H264622   1.381   2.013   4.194 -2.6543  0.3487 -1.7742
14403TIP3   OH264623   2.506   2.972  13.276 -0.0381  0.2983 -0.1689
14403TIP3    H164624   2.474   2.882  13.268 -1.2267  0.3667  2.6648
14403TIP3    H264625   2.451   3.023  13.217 -3.1975 -0.0841  2.2142
14404TIP3   OH264626   5.273   4.277  13.626  0.1275  0.5873 -0.3205
14404TIP3    H164627   5.322   4.358  13.643 -0.4990  0.9488 -0.2305
14404TIP3    H264628   5.251   4.281  13.533 -1.0267  1.1535 -0.0389
14405TIP3   OH264629   0.821   6.065   2.669  0.3061 -0.0155 -0.4869
14405TIP3    H164630   0.753   6.129   2.647  0.4892  0.2338 -0.3285
14405TIP3    H264631   0.810   6.050   2.763  0.0973 -0.4139 -0.5700
14406TIP3   OH264632   4.644   5.933   1.596  0.2120  0.1147 -0.0955
14406TIP3    H164633   4.652   5.879   1.517  0.5465 -0.8675  0.5842
14406TIP3    H264634   4.618   6.019   1.564  0.4733 -0.2288 -1.2891
14407TIP3   OH264635   0.227   3.666  12.954 -0.8656  0.1816 -0.0285
14407TIP3    H164636   0.138   3.700  12.956 -0.5572  1.0502 -0.5016
14407TIP3    H264637   0.265   3.704  12.874 -0.3805 -0.9750 -0.3707
14408TIP3   OH264638   5.268   0.809  14.028  0.4507  0.0811 -0.4078
14408TIP3    H164639   5.227   0.742  14.083  0.4088  0.9047  0.5763
14408TIP3    H264640   5.358   0.779  14.017 -0.0830 -1.1923 -1.7034
14409TIP3   OH264641   4.817   6.710   4.992 -0.2632 -0.0849 -0.5438
14409TIP3    H164642   4.887   6.669   4.940 -1.8230 -1.2630 -1.8289
14409TIP3    H264643   4.858   6.786   5.033  1.8652 -0.9781 -0.8998
14410TIP3   OH264644   2.673   2.313  14.840  0.1402 -0.0305 -0.0106
14410TIP3    H164645   2.663   2.222  14.810 -1.3839  0.6367 -1.7451
14410TIP3    H264646   2.636   2.312  14.928  0.3103 -1.1300  0.0701
14411TIP3   OH264647   0.991   3.006  16.199  0.6338  0.0017 -0.3382
14411TIP3    H164648   1.081   2.974  16.199  1.1354  1.1990 -2.4108
14411TIP3    H264649   0.946   2.951  16.135  0.3867  0.5741 -0.6685
14412TIP3   OH264650   1.423   5.523   3.664  0.9881  0.6465 -0.6130
14412TIP3    H164651   1.442   5.456   3.598  0.2745  0.1476 -0.3290
14412TIP3    H264652   1.488   5.509   3.732 -0.5912 -1.3857  0.6037
14413TIP3   OH264653   1.340   6.700  15.318  0.1559 -0.7077 -0.2087
14413TIP3    H164654   1.275   6.739  15.377  1.9598  2.3383 -0.0129
14413TIP3    H264655   1.292   6.683  15.237 -1.2746 -0.3052  0.5174
14414TIP3   OH264656   3.675   4.370  10.716 -0.2525 -0.2281  0.0759
14414TIP3    H164657   3.696   4.455  10.752  0.6815 -0.7567  0.8228
14414TIP3    H264658   3.757   4.339  10.677 -0.6352 -0.6873 -0.3932
14415TIP3   OH264659   4.094   6.008   5.732 -0.0936 -0.2066  0.4153
14415TIP3    H164660   4.123   6.006   5.823  2.6359  0.1437 -0.3548
14415TIP3    H264661   4.122   5.923   5.696  0.1891  0.2318 -0.4375
14416TIP3   OH264662   5.854   2.537   6.491 -0.0185  0.3743 -0.1302
14416TIP3    H164663   5.805   2.460   6.461  0.8216 -0.2623  0.0658
14416TIP3    H264664   5.946   2.510   6.486  0.3595  1.7613 -1.0987
14417TIP3   OH264665   1.682   2.059  13.654  1.1510  0.5430 -0.9661
14417TIP3    H164666   1.730   2.138  13.678  1.5470 -0.3414  1.4964
14417TIP3    H264667   1.725   1.989  13.704 -1.7582 -0.5298  0.2270
14418TIP3   OH264668   0.352   1.559   3.181  0.5576 -0.0170  0.1968
14418TIP3    H164669   0.402   1.480   3.201 -0.7117 -0.1857  3.2707
14418TIP3    H264670   0.336   1.600   3.266 -1.1062  2.1526 -1.0429
14419TIP3   OH264671   5.369   5.480  12.928  0.4997 -0.3671 -0.0870
14419TIP3    H164672   5.389   5.570  12.951  2.1636 -1.0135  1.2198
14419TIP3    H264673   5.317   5.447  13.001 -0.9314 -0.2365 -1.0028
14420TIP3   OH264674   4.349   3.460   4.427 -0.4408  0.0274 -0.0205
14420TIP3    H164675   4.299   3.456   4.508  0.1142  0.2498  0.3463
14420TIP3    H264676   4.369   3.553   4.416  0.8199 -0.1647  0.4399
14421TIP3   OH264677   0.038   2.606  14.255 -0.5850  0.3399 -0.8458
14421TIP3    H164678  -0.012   2.617  14.335  1.4471 -1.2143  0.7416
14421TIP3    H264679   0.047   2.512  14.244  0.4320  0.5423 -2.0697
14422TIP3   OH264680   4.044   5.191  14.699  0.1332 -0.0348 -0.2337
14422TIP3    H164681   4.064   5.124  14.764 -0.8495 -1.7285 -1.6127
14422TIP3    H264682   4.073   5.273  14.740  1.4589 -1.2787  1.4615
14423TIP3   OH264683   2.909   3.004  13.020  0.1618  0.0976  0.0761
14423TIP3    H164684   2.826   2.973  12.983  1.3370 -0.0516 -2.6731
14423TIP3    H264685   2.962   2.925  13.027 -0.0655  0.0917  2.4311
14424TIP3   OH264686   3.133   4.055  10.974  0.5487 -0.3178  0.1536
14424TIP3    H164687   3.039   4.043  10.985 -0.1815  4.1057  0.5902
14424TIP3    H264688   3.141   4.108  10.894  2.7532 -1.0459 -0.1891
14425TIP3   OH264689   3.755   0.948   1.597 -0.2613 -0.2020 -0.0535
14425TIP3    H164690   3.743   0.863   1.640 -0.0102 -1.0306 -1.5281
14425TIP3    H264691   3.769   1.010   1.668  0.1498 -1.5040  1.0379
14426TIP3   OH264692   5.022   4.692   1.036 -0.1666 -0.0363 -0.3440
14426TIP3    H164693   4.976   4.695   1.120  0.8130 -0.9693  0.2490
14426TIP3    H264694   5.115   4.694   1.060  0.1382 -1.2044 -1.3475
14427TIP3   OH264695   0.316   0.862   2.140  0.3732 -0.2040 -0.1912
14427TIP3    H164696   0.306   0.767   2.141  1.5212 -0.3415  0.3218
14427TIP3    H264697   0.370   0.880   2.063 -0.4691  0.1157 -0.7175
14428TIP3   OH264698   3.432   2.065   0.800  0.2090 -0.4319  0.4620
14428TIP3    H164699   3.414   1.972   0.813 -0.5394 -0.4122 -0.3855
14428TIP3    H264700   3.418   2.080   0.707  3.0537 -0.0485  0.0277
14429TIP3   OH264701   4.714   3.013  14.293  0.0305  0.2690 -0.0619
14429TIP3    H164702   4.714   2.939  14.354  0.5924 -0.5459 -1.0210
14429TIP3    H264703   4.761   2.980  14.216  1.8233  2.1660  0.1408
14430TIP3   OH264704   3.175   4.549  10.373 -0.0202  0.1244 -0.1486
14430TIP3    H164705   3.265   4.572  10.396  0.2330 -0.6398 -0.3217
14430TIP3    H264706   3.135   4.631  10.343 -0.7086  1.4674  3.8751
14431TIP3   OH264707   5.066   5.643  13.805 -0.0058 -0.3263 -0.8344
14431TIP3    H164708   5.037   5.732  13.828  0.1603 -0.3844 -0.3941
14431TIP3    H264709   4.989   5.589  13.817 -0.2313 -0.1691 -1.5498
14432TIP3   OH264710   0.707   3.485   3.830 -0.7808 -0.7099 -0.3656
14432TIP3    H164711   0.657   3.424   3.885 -2.0113 -0.0323 -0.6995
14432TIP3    H264712   0.685   3.571   3.864  0.4741 -0.3934 -0.2950
14433TIP3   OH264713   2.050   3.471   2.888 -0.5051  0.3337  0.3837
14433TIP3    H164714   2.003   3.391   2.864 -0.4003  1.0971 -2.7677
14433TIP3    H264715   2.018   3.538   2.828 -0.1369  2.5823  2.5185
14434TIP3   OH264716   4.865   4.009   5.399  0.5910 -0.1875  0.1497
14434TIP3    H164717   4.943   3.960   5.424 -0.9127 -2.1217  1.4458
14434TIP3    H264718   4.841   3.976   5.313  0.2698 -0.8880  0.4967
14435TIP3   OH264719   1.702   2.292   3.016 -0.8483  0.7745  0.7173
14435TIP3    H164720   1.757   2.217   3.039 -0.0482  1.5935  1.5744
14435TIP3    H264721   1.700   2.292   2.921 -1.7234 -0.9260  0.6892
14436TIP3   OH264722   6.177   2.287  15.504  0.4010 -0.1820 -1.1763
14436TIP3    H164723   6.267   2.290  15.538  0.6814 -0.4737 -1.8778
14436TIP3    H264724   6.162   2.195  15.483 -0.7777 -0.4851  0.7582
14437TIP3   OH264725   1.289   5.691  11.735 -0.3558  0.2537 -0.2066
14437TIP3    H164726   1.326   5.605  11.752  0.1244  0.5170  0.0940
14437TIP3    H264727   1.332   5.721  11.656  1.3659  1.2686  1.0448
14438TIP3   OH264728   6.533   0.659  13.374 -0.0339  0.1103  0.2372
14438TIP3    H164729   6.520   0.706  13.291 -1.3477  1.0817  0.9463
14438TIP3    H264730   6.448   0.617  13.390  0.9333 -2.0720 -0.0789
14439TIP3   OH264731   0.856   3.605   0.733 -0.5707 -0.9276  0.0713
14439TIP3    H164732   0.951   3.598   0.746 -0.1127  2.0246 -0.9254
14439TIP3    H264733   0.828   3.668   0.800 -1.6853 -1.0970 -0.2225
14440TIP3   OH264734   0.113   2.963   3.480 -0.7046  0.4137 -0.5064
14440TIP3    H164735   0.208   2.956   3.486 -0.7407  0.3975  0.1575
14440TIP3    H264736   0.093   2.949   3.388 -0.1119 -0.1694 -0.5515
14441TIP3   OH264737   0.028   1.103  12.437  0.8521  0.7911  0.1487
14441TIP3    H164738   0.079   1.028  12.467  3.4041  2.4417  0.2766
14441TIP3    H264739   0.025   1.161  12.513 -1.3091  0.7723  0.1407
14442TIP3   OH264740   2.258   4.680  12.771 -0.3343 -0.3035 -0.1270
14442TIP3    H164741   2.245   4.758  12.716 -0.8389  0.1221  0.5757
14442TIP3    H264742   2.178   4.629  12.758  0.0041 -0.7331 -0.6006
14443TIP3   OH264743   2.626   1.533  16.845  0.0776 -0.5697  0.0697
14443TIP3    H164744   2.669   1.612  16.812 -0.3903 -0.4337 -0.2313
14443TIP3    H264745   2.621   1.546  16.940 -1.3533  0.4645 -0.1256
14444TIP3   OH264746   3.660   5.877   1.056 -0.2514  0.3546 -0.2203
14444TIP3    H164747   3.738   5.908   1.103 -0.6071 -0.1411  0.7146
14444TIP3    H264748   3.630   5.801   1.106  0.4909 -1.4444 -2.3389
14445TIP3   OH264749   2.249   4.611  15.839 -0.5480 -0.1618 -0.3725
14445TIP3    H164750   2.245   4.518  15.815  1.6010 -0.3620 -0.1805
14445TIP3    H264751   2.290   4.653  15.764 -1.4997  0.6569 -0.4524
14446TIP3   OH264752   2.650   5.283  10.977  0.1159  0.4761  0.1634
14446TIP3    H164753   2.630   5.189  10.974 -1.7078  0.6797  2.9573
14446TIP3    H264754   2.564   5.326  10.979  0.9092  2.3037 -1.6596
14447TIP3   OH264755   5.490   2.464  11.153 -0.0803  0.5611 -0.1680
14447TIP3    H164756   5.396   2.453  11.162 -0.0704  0.3830 -0.2702
14447TIP3    H264757   5.510   2.432  11.065  0.1838 -0.1370  0.1329
14448TIP3   OH264758   0.495   2.713  15.846 -0.2664 -0.7210 -0.5270
14448TIP3    H164759   0.487   2.783  15.911 -1.2390 -0.8323 -0.5143
14448TIP3    H264760   0.548   2.752  15.776 -2.2671  0.6670 -1.3385
14449TIP3   OH264761   3.875   4.321   1.334 -0.0038  0.0374 -0.2378
14449TIP3    H164762   3.952   4.287   1.379  0.0234 -0.9020 -0.9748
14449TIP3    H264763   3.897   4.317   1.241  0.4315  3.1278 -0.3655
14450TIP3   OH264764   4.649   3.601  16.911  1.0261 -0.2306  0.3662
14450TIP3    H164765   4.600   3.558  16.981  0.8294  0.4987  0.6930
14450TIP3    H264766   4.717   3.539  16.886 -0.0131 -1.2333 -0.0387
14451TIP3   OH264767   1.157   1.258  12.991 -0.7291 -0.4343 -0.4943
14451TIP3    H164768   1.240   1.293  12.958 -0.1674 -1.8671 -0.6681
14451TIP3    H264769   1.167   1.258  13.086 -0.6329 -0.3815 -0.5046
14452TIP3   OH264770   1.176   5.408   6.156 -0.6392  0.3948 -0.2670
14452TIP3    H164771   1.185   5.450   6.242  1.2343  0.4989 -0.4755
14452TIP3    H264772   1.124   5.470   6.104 -0.4673  1.0547  0.3296
14453TIP3   OH264773   0.293   3.431  15.589 -0.5341 -0.0897 -0.3918
14453TIP3    H164774   0.243   3.495  15.639  1.2988 -0.0016  1.4914
14453TIP3    H264775   0.365   3.482  15.550 -1.8020 -0.1850 -3.1332
14454TIP3   OH264776   5.344   1.298   4.119 -0.6710 -0.0092 -0.4804
14454TIP3    H164777   5.358   1.365   4.185  1.4905 -0.0476 -0.8317
14454TIP3    H264778   5.415   1.311   4.055 -0.5308 -2.2205 -0.8719
14455TIP3   OH264779   0.888   3.002   1.204 -0.2564  0.5427  0.1669
14455TIP3    H164780   0.885   3.039   1.115 -1.3095 -1.5405 -0.7293
14455TIP3    H264781   0.796   2.995   1.229 -0.0941 -1.0937  0.4186
14456TIP3   OH264782   2.995   0.734   1.734  0.4460 -0.3302 -0.0460
14456TIP3    H164783   2.965   0.728   1.825  0.3370  1.6716  0.0923
14456TIP3    H264784   3.084   0.769   1.741  0.4967 -0.3146 -0.7102
14457TIP3   OH264785   5.255   2.713   2.462  0.0844 -0.8166  0.3739
14457TIP3    H164786   5.290   2.684   2.378  0.0566  0.7639 -0.2263
14457TIP3    H264787   5.226   2.803   2.446  0.1994 -0.4302  2.1035
14458TIP3   OH264788   3.536   3.257   6.010  0.4557 -0.3340 -0.2707
14458TIP3    H164789   3.469   3.190   5.998 -0.2200  0.2477  0.1790
14458TIP3    H264790   3.605   3.212   6.059  0.3708 -0.9218 -0.6736
14459TIP3   OH264791   5.001   3.303  12.106  0.0021  0.1806 -0.5056
14459TIP3    H164792   4.955   3.385  12.124 -0.0324 -0.0239  0.3771
14459TIP3    H264793   5.068   3.299  12.174 -0.5129 -0.9189 -0.0497
14460TIP3   OH264794   4.615   1.524   4.101  0.3469 -0.8836  0.2959
14460TIP3    H164795   4.634   1.430   4.108 -0.2722 -1.0804 -0.5175
14460TIP3    H264796   4.538   1.537   4.155 -0.9081 -1.2927 -1.2996
14461TIP3   OH264797   5.189   6.239  13.323 -0.2857  0.7185  0.2865
14461TIP3    H164798   5.228   6.288  13.251 -0.2706  1.5262  0.8346
14461TIP3    H264799   5.101   6.219  13.293  0.4084 -0.8577 -0.8369
14462TIP3   OH264800   0.019   5.642   2.844 -0.5104 -0.6505  0.0845
14462TIP3    H164801  -0.006   5.733   2.826  1.4842  0.0428  0.6035
14462TIP3    H264802   0.111   5.637   2.820  0.2397 -1.7358  2.8164
14463TIP3   OH264803   1.813   5.981   1.012  0.0234 -0.2354  0.2956
14463TIP3    H164804   1.749   5.951   0.948 -0.5668  0.3425  0.6097
14463TIP3    H264805   1.797   6.075   1.021  1.3004  0.0479 -0.0648
14464TIP3   OH264806   6.346   5.027  14.034  0.4195 -0.4869  0.0301
14464TIP3    H164807   6.376   4.954  13.981 -0.4639 -0.1250 -1.0117
14464TIP3    H264808   6.327   5.096  13.971  0.2080  0.2751  0.9006
14465TIP3   OH264809   0.169   3.324  13.183 -0.1560  0.4181  0.1861
14465TIP3    H164810   0.217   3.247  13.211 -0.1256  0.1895 -0.4815
14465TIP3    H264811   0.158   3.376  13.263 -0.2078 -0.2869  0.6395
14466TIP3   OH264812   0.816   5.868  14.530 -0.0172 -0.3130 -0.2553
14466TIP3    H164813   0.844   5.847  14.441  1.2963 -0.2418  0.1140
14466TIP3    H264814   0.723   5.846  14.532 -0.1288 -0.0864 -1.7093
14467TIP3   OH264815   1.937   6.555   3.853 -0.4756 -0.5074 -0.4290
14467TIP3    H164816   2.010   6.532   3.910 -1.3533 -0.9048  0.5816
14467TIP3    H264817   1.973   6.555   3.765  0.5158 -1.6341 -0.0426
14468TIP3   OH264818   3.339   1.896  14.760  0.0033 -0.3936 -0.1623
14468TIP3    H164819   3.343   1.863  14.849 -0.6968  0.2526  0.1228
14468TIP3    H264820   3.426   1.931  14.742  0.4367 -1.4219 -0.0958
14469TIP3   OH264821   6.510   1.143   5.103  0.5021 -0.5235  0.0634
14469TIP3    H164822   6.482   1.053   5.117  0.2721 -0.1970  2.1329
14469TIP3    H264823   6.469   1.169   5.021 -0.6239 -1.8559  0.1752
14470TIP3   OH264824   1.396   0.146  12.422  0.1331  0.0023  0.4891
14470TIP3    H164825   1.342   0.225  12.418  0.7865  0.4492  0.3715
14470TIP3    H264826   1.348   0.082  12.369  0.7059  1.0191 -1.3545
14471TIP3   OH264827   4.230   6.213   0.760 -0.0168  0.3472 -0.1805
14471TIP3    H164828   4.296   6.149   0.732  0.7360  1.0136  0.0528
14471TIP3    H264829   4.193   6.247   0.678 -1.0810 -1.0336 -0.3108
14472TIP3   OH264830   0.203   1.630  16.885 -0.1032 -0.2064 -0.0195
14472TIP3    H164831   0.170   1.562  16.943  2.8435 -1.8615 -0.0938
14472TIP3    H264832   0.130   1.690  16.875 -2.0702 -2.0680  2.0031
14473TIP3   OH264833   0.422   6.092  11.951 -0.0847 -0.5053  0.3218
14473TIP3    H164834   0.402   6.177  11.911  0.7729 -0.4093  0.0729
14473TIP3    H264835   0.469   6.044  11.882 -1.2933 -1.5069  0.1621
14474TIP3   OH264836   2.519   6.596   6.133 -0.8427  0.0882  0.0217
14474TIP3    H164837   2.546   6.655   6.203 -0.5986  0.4802 -0.3963
14474TIP3    H264838   2.511   6.511   6.175 -0.7454  0.3297  0.5354
14475TIP3   OH264839   1.013   5.972  15.080  0.5689  0.2870 -0.5381
14475TIP3    H164840   1.097   5.949  15.120 -0.2154 -3.4549 -0.6505
14475TIP3    H264841   1.032   5.977  14.986  0.9359  0.9761 -0.4294
14476TIP3   OH264842   5.152   0.192   2.166 -0.0242 -0.2531 -0.0067
14476TIP3    H164843   5.242   0.166   2.186  0.6154  1.9800  0.2865
14476TIP3    H264844   5.127   0.138   2.091  1.7478 -0.5474 -0.4241
14477TIP3   OH264845   4.778   1.373  14.619  0.1474 -0.1070 -0.6282
14477TIP3    H164846   4.700   1.332  14.580 -0.0592  1.1741 -1.6318
14477TIP3    H264847   4.816   1.304  14.674 -2.7696 -0.2446  1.4950
14478TIP3   OH264848   5.666   3.798  14.665  0.8335  0.6697  0.1792
14478TIP3    H164849   5.586   3.751  14.691  1.0862  1.2077  2.1025
14478TIP3    H264850   5.727   3.729  14.639  0.2661  0.1289  0.2516
14479TIP3   OH264851   3.712   5.942  15.646  1.0427  0.0528  0.4092
14479TIP3    H164852   3.655   6.008  15.684 -0.7375 -1.5481  0.7235
14479TIP3    H264853   3.709   5.869  15.708 -0.9317 -2.1415 -2.0055
14480TIP3   OH264854   3.002   0.967   0.303 -0.2357 -0.6483 -0.0599
14480TIP3    H164855   3.007   0.937   0.394  0.9755 -0.9852 -0.2204
14480TIP3    H264856   3.059   1.044   0.300 -0.4074 -0.5360 -0.4968
14481TIP3   OH264857   6.137   5.285  16.325  0.1007  0.2404 -0.3936
14481TIP3    H164858   6.117   5.293  16.419 -0.9308 -1.5564 -0.4118
14481TIP3    H264859   6.232   5.291  16.321  0.2157 -0.2766  0.8823
14482TIP3   OH264860   1.313   5.750   0.132  0.0262 -0.3075  0.0018
14482TIP3    H164861   1.345   5.835   0.165  2.5079 -0.9374 -0.5431
14482TIP3    H264862   1.390   5.693   0.136 -0.8359 -1.7638 -2.2115
14483TIP3   OH264863   2.902   3.257  16.475 -0.3946  0.9466  0.0928
14483TIP3    H164864   2.894   3.345  16.513 -2.9583  0.6101  0.5451
14483TIP3    H264865   2.944   3.205  16.544  0.2870  1.5983  0.1816
14484TIP3   OH264866   4.813   3.823   4.428  0.1350  0.1598 -0.2543
14484TIP3    H164867   4.891   3.877   4.441 -0.8369  1.3600  0.7975
14484TIP3    H264868   4.832   3.772   4.349  2.1142  0.1597  0.1872
14485TIP3   OH264869   5.516   1.500   2.830 -0.2658 -0.0499  0.8712
14485TIP3    H164870   5.610   1.494   2.847 -0.1257  3.5403  2.0474
14485TIP3    H264871   5.506   1.460   2.743  2.8030  1.7483 -0.4932
14486TIP3   OH264872   1.647   3.029  12.492  0.2263 -0.6395  0.1066
14486TIP3    H164873   1.734   3.054  12.520  0.3924 -1.1776  0.0850
14486TIP3    H264874   1.598   3.015  12.573  0.1607 -0.3502  0.1194
14487TIP3   OH264875   5.597   6.620  12.637 -0.2864 -0.4600 -0.0909
14487TIP3    H164876   5.671   6.563  12.620  0.1477 -0.3221  1.2411
14487TIP3    H264877   5.616   6.660  12.722 -0.3438  2.0109 -1.1584
14488TIP3   OH264878   2.441   0.725  15.212  0.6847  0.2307 -0.1949
14488TIP3    H164879   2.440   0.648  15.269 -1.3676  1.0576  1.0071
14488TIP3    H264880   2.468   0.797  15.269 -1.2848  1.0516 -0.2195
14489TIP3   OH264881   3.885   3.814   4.252  0.2499  0.5347 -0.6037
14489TIP3    H164882   3.857   3.803   4.343 -0.1122 -0.9568 -0.8769
14489TIP3    H264883   3.820   3.874   4.215  1.4786  2.7461  0.5685
14490TIP3   OH264884   0.986   4.014   1.713  0.0049  0.0541  0.1215
14490TIP3    H164885   0.967   4.044   1.802 -0.9249 -0.3746  0.0728
14490TIP3    H264886   1.063   4.066   1.687  0.5781 -0.1523  1.3328
14491TIP3   OH264887   2.515   2.704  11.867  0.0532 -0.0870  0.3045
14491TIP3    H164888   2.560   2.620  11.870  1.6550  0.6956 -0.7441
14491TIP3    H264889   2.557   2.757  11.935  2.3193  1.3447 -2.0322
14492TIP3   OH264890   5.446   4.411   0.505  0.3845 -0.3993  0.0169
14492TIP3    H164891   5.473   4.370   0.423 -0.0849 -0.3698 -0.1552
14492TIP3    H264892   5.519   4.467   0.529  0.5159 -0.3928 -0.3911
14493TIP3   OH264893   0.557   5.148   2.150 -0.2040 -1.4684 -0.3750
14493TIP3    H164894   0.550   5.065   2.198 -1.2616 -0.7018  0.8706
14493TIP3    H264895   0.525   5.214   2.212  2.3590  0.1521 -0.6423
14494TIP3   OH264896   6.423   0.743   6.141 -0.2275  0.3516 -0.2769
14494TIP3    H164897   6.482   0.676   6.176  0.0936 -0.0325 -1.5043
14494TIP3    H264898   6.338   0.724   6.180 -0.2952 -1.1900 -1.1015
14495TIP3   OH264899   3.826   5.540   2.209 -0.2304 -0.3245  0.1742
14495TIP3    H164900   3.768   5.493   2.150 -1.0509  1.6650 -0.6949
14495TIP3    H264901   3.882   5.593   2.151  0.0827  0.4068  1.1091
14496TIP3   OH264902   3.910   6.609   3.210  0.4657  0.3443 -0.8434
14496TIP3    H164903   3.842   6.549   3.180  0.3369  0.7327 -1.3550
14496TIP3    H264904   3.978   6.553   3.247 -0.8582  0.0117  1.2596
14497TIP3   OH264905   0.787   4.619  15.083 -0.2610 -0.2932  0.1999
14497TIP3    H164906   0.774   4.587  15.172  2.3613 -0.5943  0.5465
14497TIP3    H264907   0.880   4.604  15.065 -0.7673 -0.5838 -2.7328
14498TIP3   OH264908   1.172   3.890   2.475 -0.1273  0.2977  0.2109
14498TIP3    H164909   1.178   3.824   2.406 -0.7997 -0.1974  0.6059
14498TIP3    H264910   1.107   3.855   2.536  1.2626  0.1841  1.7032
14499TIP3   OH264911   4.898   0.381   2.403  0.7064  0.3580  0.1772
14499TIP3    H164912   4.803   0.394   2.398  0.6522 -0.3149 -0.9561
14499TIP3    H264913   4.925   0.366   2.313  1.4424 -2.3491  0.7543
14500TIP3   OH264914   5.152   0.701  11.996  0.5407 -0.4473 -0.1480
14500TIP3    H164915   5.154   0.642  12.072  0.8170  0.1529  0.3276
14500TIP3    H264916   5.220   0.766  12.016  2.0556 -1.4122 -1.8618
14501TIP3   OH264917   3.693   5.605   1.164  0.4853 -0.1620 -0.3645
14501TIP3    H164918   3.609   5.560   1.157  0.2496  0.5156 -2.7889
14501TIP3    H264919   3.735   5.592   1.078  1.3703  2.2825 -0.3883
14502TIP3   OH264920   2.537   0.221   4.774 -0.2362  0.1929 -0.0887
14502TIP3    H164921   2.598   0.173   4.718 -1.3900 -0.0619 -1.1819
14502TIP3    H264922   2.580   0.226   4.859  0.5881 -1.4262 -0.3811
14503TIP3   OH264923   5.402   3.005   3.306 -0.3487  0.3202  0.2179
14503TIP3    H164924   5.348   3.068   3.354  0.3693 -1.3655  3.5305
14503TIP3    H264925   5.450   3.058   3.242 -1.1820  2.8082  1.5265
14504TIP3   OH264926   5.766   4.158  17.049 -0.0740 -0.4143 -0.2794
14504TIP3    H164927   5.856   4.157  17.016 -0.7428 -1.3378 -2.2380
14504TIP3    H264928   5.774   4.145  17.143  1.8650  0.1822 -0.3262
14505TIP3   OH264929   2.525   5.667  16.373  0.2110 -0.0146 -0.4822
14505TIP3    H164930   2.620   5.673  16.360  0.1750  0.6474 -0.4943
14505TIP3    H264931   2.515   5.621  16.456  0.6567  2.6811  1.2044
14506TIP3   OH264932   0.321   5.321  12.759  0.0463 -0.1038  0.0597
14506TIP3    H164933   0.314   5.374  12.679  1.6418 -0.3505 -0.2630
14506TIP3    H264934   0.407   5.281  12.754 -0.1360 -0.7334  1.5520
14507TIP3   OH264935   1.474   1.821   5.496  0.1878  0.1102 -0.4264
14507TIP3    H164936   1.475   1.747   5.556  0.9714  1.6254  1.5646
14507TIP3    H264937   1.566   1.841   5.481  0.0530  1.7925  0.6396
14508TIP3   OH264938   3.372   3.209  13.546 -0.0156  0.0062 -0.2560
14508TIP3    H164939   3.340   3.119  13.553  1.2114 -0.4653 -0.4767
14508TIP3    H264940   3.346   3.237  13.458 -0.3361 -0.1515 -0.2143
14509TIP3   OH264941   3.850   2.004  17.129  0.1989  0.3237  0.3950
14509TIP3    H164942   3.821   1.914  17.120 -1.5497  1.0409 -2.5309
14509TIP3    H264943   3.911   2.017  17.057 -0.8336  1.8509 -0.2706
14510TIP3   OH264944   5.329   2.276   2.228  0.2046 -0.1580 -0.1458
14510TIP3    H164945   5.327   2.181   2.217  1.7076 -0.4050  1.3035
14510TIP3    H264946   5.420   2.300   2.214  0.2554  0.7666  1.5093
14511TIP3   OH264947   1.484   6.238   5.143 -0.1607  0.3986 -0.4879
14511TIP3    H164948   1.479   6.170   5.076 -0.9435 -0.1784  0.1375
14511TIP3    H264949   1.563   6.288   5.121  0.7261 -1.0389 -0.6517
14512TIP3   OH264950   1.029   0.530   0.803  0.0645  0.2292  0.0262
14512TIP3    H164951   0.963   0.577   0.753  1.1151  2.1474  0.3367
14512TIP3    H264952   1.061   0.463   0.744 -0.4562  0.8498 -0.9888
14513TIP3   OH264953   6.100   0.155   1.292  0.4275 -0.1195  0.7519
14513TIP3    H164954   6.195   0.158   1.284  0.3178 -0.2482 -1.1226
14513TIP3    H264955   6.078   0.062   1.286  0.0871  0.0325 -1.0530
14514TIP3   OH264956   5.886   6.038  14.777 -0.4332  0.3287  0.2146
14514TIP3    H164957   5.964   5.986  14.759  0.2405  1.5249 -0.4346
14514TIP3    H264958   5.871   6.027  14.871  1.1911  0.9643  0.5862
14515TIP3   OH264959   0.777   5.083  16.371  0.3737 -0.4806 -0.6203
14515TIP3    H164960   0.830   5.130  16.436  0.3107  0.1012 -0.9835
14515TIP3    H264961   0.786   5.134  16.291 -0.5103 -0.5388 -0.7655
14516TIP3   OH264962   4.298   4.114  16.551 -0.2573  0.6380  0.2584
14516TIP3    H164963   4.368   4.159  16.599  0.9747  0.8725 -1.6507
14516TIP3    H264964   4.324   4.021  16.554  1.5897  0.9355 -2.4759
14517TIP3   OH264965   4.092   5.535  16.818  0.1306 -0.0773 -0.4434
14517TIP3    H164966   4.007   5.577  16.808 -1.1561 -2.0480  1.2711
14517TIP3    H264967   4.155   5.607  16.822 -1.6684  1.5309 -0.0836
14518TIP3   OH264968   1.120   0.973   4.012 -0.5753  0.3053 -0.4473
14518TIP3    H164969   1.120   1.042   4.079  1.9713  1.5791 -1.6142
14518TIP3    H264970   1.173   0.903   4.050 -0.2972  0.4485 -0.5642
14519TIP3   OH264971   2.833   3.768   2.173  0.2018 -0.1170  0.0411
14519TIP3    H164972   2.773   3.832   2.134 -0.5588 -1.0079 -0.2878
14519TIP3    H264973   2.776   3.703   2.215  0.9710 -0.3060  0.8208
14520TIP3   OH264974   4.455   4.535  14.605  0.3832  0.3451  0.2304
14520TIP3    H164975   4.375   4.525  14.554 -0.3017  1.3573  1.0521
14520TIP3    H264976   4.463   4.629  14.619  0.6801  0.1253  1.7557
14521TIP3   OH264977   3.664   3.912  13.891  0.1838  0.1204 -0.6569
14521TIP3    H164978   3.591   3.854  13.872  0.9818 -1.3152  0.4855
14521TIP3    H264979   3.659   3.927  13.986  1.3092  0.0762 -0.5807
14522TIP3   OH264980   4.625   0.148   1.709  0.0290 -0.0485  0.9387
14522TIP3    H164981   4.717   0.165   1.726  0.7002 -1.0884 -1.3062
14522TIP3    H264982   4.592   0.108   1.790  1.0214  1.9982  2.4340
14523TIP3   OH264983   4.387   0.571   1.061  0.0923 -0.3952  0.1447
14523TIP3    H164984   4.461   0.630   1.047 -0.3898  0.4169  0.9099
14523TIP3    H264985   4.427   0.488   1.087  0.7895 -0.5226 -1.2582
14524TIP3   OH264986   6.583   0.721  14.162 -0.0314 -0.2651  0.1590
14524TIP3    H164987   6.504   0.771  14.185 -0.4244 -2.1367  3.4815
14524TIP3    H264988   6.560   0.675  14.081 -2.2596 -0.5126  0.8775
14525TIP3   OH264989   0.566   5.068  16.081 -0.9071 -0.0611 -0.0855
14525TIP3    H164990   0.509   4.999  16.046  0.6645 -0.6556 -1.6388
14525TIP3    H264991   0.521   5.098  16.160 -1.9493 -2.4617  0.3468
14526TIP3   OH264992   3.191   3.670   1.845  0.0230 -0.7167 -0.4399
14526TIP3    H164993   3.263   3.607   1.839 -0.7451 -1.6282 -0.3153
14526TIP3    H264994   3.113   3.616   1.859 -0.4309  0.3383  1.4695
14527TIP3   OH264995   6.227   6.734   1.941  0.0560 -0.6026  0.2405
14527TIP3    H164996   6.316   6.725   1.974 -0.0786 -0.9974  0.5031
14527TIP3    H264997   6.171   6.718   2.017 -0.2395 -0.1768  0.1177
14528TIP3   OH264998   4.041   5.681  12.095  0.1225 -0.2799  0.3709
14528TIP3    H164999   4.055   5.590  12.068  2.1263  0.8597 -3.1763
14528TIP3    H265000   4.128   5.714  12.115 -0.5075  0.9933  1.1734
14529TIP3   OH265001   4.005   4.684  14.794 -0.3908  0.4098  0.0688
14529TIP3    H165002   4.085   4.733  14.813 -0.3794  0.3999  0.0449
14529TIP3    H265003   4.004   4.615  14.861  1.1264 -1.3901 -1.6443
14530TIP3   OH265004   4.202   0.865  12.827  0.1883  0.6062  0.6351
14530TIP3    H165005   4.111   0.875  12.855 -1.4888  0.0097 -3.7492
14530TIP3    H265006   4.220   0.944  12.775  1.6520  0.0218  0.2000
14531TIP3   OH265007   4.889   2.489   3.420  0.0719 -0.3140 -0.0932
14531TIP3    H165008   4.954   2.471   3.488  1.8505 -0.0617 -1.6274
14531TIP3    H265009   4.847   2.405   3.403  1.4153 -0.9530 -0.4123
14532TIP3   OH265010   0.698   6.043   5.316 -0.3140  0.1999  0.1122
14532TIP3    H165011   0.620   6.035   5.371  0.1819 -0.7434  0.7248
14532TIP3    H265012   0.764   6.081   5.375 -0.0887  0.2415 -0.1662
14533TIP3   OH265013   3.193   0.348   5.023  0.7700  0.1572 -0.7038
14533TIP3    H165014   3.203   0.428   5.074 -1.0611 -1.6011  2.8210
14533TIP3    H265015   3.278   0.305   5.029  1.4593  1.2934 -1.7769
14534TIP3   OH265016   1.225   0.950   6.656 -0.2756 -0.2974  0.2739
14534TIP3    H165017   1.235   0.878   6.593 -0.2586 -0.3005  0.2802
14534TIP3    H265018   1.302   1.005   6.641  0.2313 -0.8030  0.9454
14535TIP3   OH265019   4.136   0.209  13.903 -0.2527  0.5231  0.4591
14535TIP3    H165020   4.060   0.154  13.921 -0.4777  0.5057 -0.4881
14535TIP3    H265021   4.151   0.257  13.984 -1.0706  0.2806  0.7628
14536TIP3   OH265022   3.143   3.624   3.562  0.4010  0.5180  0.3768
14536TIP3    H165023   3.061   3.667   3.537  1.3238  1.8594 -0.4287
14536TIP3    H265024   3.211   3.689   3.547  1.7193 -0.8041  0.3195
14537TIP3   OH265025   6.090   5.844  14.574 -0.6842  0.3601  0.0663
14537TIP3    H165026   6.093   5.750  14.554  0.4301  0.4732 -0.3854
14537TIP3    H265027   6.097   5.849  14.669  0.8202  0.0095  0.0013
14538TIP3   OH265028   6.329   0.716   0.870  0.6439  0.0943 -0.0532
14538TIP3    H165029   6.385   0.707   0.947  0.6339 -2.0412 -0.2358
14538TIP3    H265030   6.391   0.721   0.796  0.6188  0.5651 -0.0487
14539TIP3   OH265031   3.553   6.755  11.345  0.0780 -0.3367 -0.1444
14539TIP3    H165032   3.512   6.709  11.271 -1.8572  0.6200  0.2552
14539TIP3    H265033   3.518   6.712  11.422 -0.3263  0.6167  0.2179
14540TIP3   OH265034   2.952   2.524  16.652 -0.3362  0.5033 -0.0786
14540TIP3    H165035   2.988   2.607  16.684  0.1885  0.3643 -0.3037
14540TIP3    H265036   2.882   2.549  16.593 -0.5628  0.7790  0.3042
14541TIP3   OH265037   5.495   1.983  14.732  0.0620  0.2329 -0.2912
14541TIP3    H165038   5.462   1.912  14.785 -2.0130 -0.2725 -2.1308
14541TIP3    H265039   5.497   2.059  14.791 -2.8182 -0.1208  0.3860
14542TIP3   OH265040   6.639   3.572   5.638 -0.9568 -0.0569  0.0834
14542TIP3    H165041   6.693   3.566   5.717 -1.4690 -0.7984  0.3877
14542TIP3    H265042   6.551   3.590   5.670 -1.1969 -0.5186 -0.3052
14543TIP3   OH265043   1.595   4.909  14.762  0.1395  0.3251  0.2681
14543TIP3    H165044   1.690   4.922  14.770  0.0262  0.2139  2.6494
14543TIP3    H265045   1.586   4.820  14.729  0.8678  0.3651 -0.0598
14544TIP3   OH265046   0.082   6.195   0.107 -0.1297 -0.1698 -0.0003
14544TIP3    H165047   0.039   6.115   0.076 -1.5710  0.6309 -0.1380
14544TIP3    H265048   0.108   6.175   0.197 -0.0568 -0.9487 -0.1881
14545TIP3   OH265049   5.390   2.256   5.015  0.2532  0.2681 -0.8010
14545TIP3    H165050   5.294   2.261   5.014  0.2715  1.4256  0.3692
14545TIP3    H265051   5.412   2.206   4.937 -1.3104 -0.1376 -1.0233
14546TIP3   OH265052   5.361   0.356  16.484  0.4382  0.5941  0.0311
14546TIP3    H165053   5.316   0.272  16.475  1.4827  0.2062 -2.2233
14546TIP3    H265054   5.365   0.371  16.578  0.0742 -1.7924  0.4876
14547TIP3   OH265055   5.817   6.023  15.057 -0.5520  0.9230 -0.1489
14547TIP3    H165056   5.815   6.033  15.152 -0.2233 -2.6182  0.3580
14547TIP3    H265057   5.730   5.993  15.034 -0.5140  1.3866 -0.9384
14548TIP3   OH265058   4.139   2.745  16.029  0.0918 -0.5437  0.1702
14548TIP3    H165059   4.085   2.816  15.994  2.1690  1.4506  0.7261
14548TIP3    H265060   4.156   2.770  16.119  1.9075 -1.0605  0.0181
14549TIP3   OH265061   1.377   1.650   4.537 -0.2213 -0.1100  0.0132
14549TIP3    H165062   1.284   1.630   4.524 -0.4239  0.0626  1.1493
14549TIP3    H265063   1.401   1.603   4.617  1.0307 -1.2745 -0.9928
14550TIP3   OH265064   6.592   4.966  12.521 -0.1105  0.2193  0.2418
14550TIP3    H165065   6.603   4.957  12.426  0.4629 -1.1067  0.4060
14550TIP3    H265066   6.598   5.060  12.538  1.6055  0.3291 -0.8281
14551TIP3   OH265067   3.536   0.992   5.095 -0.3708 -0.1228 -0.7418
14551TIP3    H165068   3.495   1.027   5.016 -0.5200  1.1507 -0.1260
14551TIP3    H265069   3.501   1.046   5.166  1.4359  0.2023 -0.0500
14552TIP3   OH265070   1.386   0.030   5.352 -0.8142  0.1995 -0.4513
14552TIP3    H165071   1.297   0.064   5.362 -2.3675 -3.1622 -1.3891
14552TIP3    H265072   1.394   0.014   5.258 -0.3620 -2.1682 -0.0542
14553TIP3   OH265073   0.185   3.592   5.053 -0.0947  0.6447  0.0012
14553TIP3    H165074   0.169   3.685   5.039 -1.9294  0.5787  1.3400
14553TIP3    H265075   0.233   3.564   4.975 -0.1354  2.5532 -0.7514
14554TIP3   OH265076   2.509   1.279   3.708  0.2571  0.2212 -0.6439
14554TIP3    H165077   2.604   1.270   3.717  0.1814 -1.5284 -1.2165
14554TIP3    H265078   2.473   1.232   3.783 -0.1543 -0.7711 -1.4349
14555TIP3   OH265079   0.945   0.071  12.218 -0.2330  0.3486 -0.3549
14555TIP3    H165080   0.870   0.053  12.275  0.5484 -0.1287  0.5488
14555TIP3    H265081   0.923   0.155  12.176  0.1967  2.0291  2.4990
14556TIP3   OH265082   5.758   0.959   0.318 -0.3133  0.1432 -0.1645
14556TIP3    H165083   5.665   0.938   0.322 -0.5240  1.1134  0.4928
14556TIP3    H265084   5.770   1.028   0.383  1.1854 -1.0387  0.8749
14557TIP3   OH265085   2.998   3.109  16.703 -0.2581 -0.5694  0.0975
14557TIP3    H165086   2.968   3.137  16.790  0.0454 -3.5989  1.3147
14557TIP3    H265087   3.093   3.101  16.712 -0.3346 -1.9505 -0.1353
14558TIP3   OH265088   6.505   2.721   2.430  0.6452  0.6775  0.0934
14558TIP3    H165089   6.504   2.760   2.517  2.8215  0.5999  0.2054
14558TIP3    H265090   6.413   2.701   2.412  0.1363  0.6959  2.3498
14559TIP3   OH265091   2.138   0.990  12.349  0.1287  0.1083  0.0409
14559TIP3    H165092   2.140   0.914  12.407 -2.5746 -0.5021 -0.4880
14559TIP3    H265093   2.072   1.047  12.388  1.5277  1.8466 -0.0262
14560TIP3   OH265094   6.128   5.150   4.671  0.2171 -0.3690  0.2943
14560TIP3    H165095   6.113   5.177   4.761 -0.0112  1.1410 -0.1615
14560TIP3    H265096   6.223   5.156   4.660  0.2014 -0.1066  0.3021
14561TIP3   OH265097   4.665   4.365  15.509  0.2398  0.0693 -0.2493
14561TIP3    H165098   4.676   4.413  15.591  0.4245  0.0821 -0.2823
14561TIP3    H265099   4.611   4.289  15.534 -1.1117  0.9307 -0.4304
14562TIP3   OH265100   2.363   1.557  16.076 -0.1135 -0.6646 -0.0656
14562TIP3    H165101   2.313   1.636  16.096  0.4453 -0.5205  0.8257
14562TIP3    H265102   2.344   1.538  15.985 -0.3798  0.4110 -0.2376
14563TIP3   OH265103   0.374   4.876   0.381 -0.5185 -0.2426 -0.3519
14563TIP3    H165104   0.382   4.884   0.286  0.7231 -4.1037 -0.7911
14563TIP3    H265105   0.464   4.887   0.413 -0.6580 -0.5204  0.1473
14564TIP3   OH265106   4.562   4.366   2.621  0.0774  0.5460 -0.2309
14564TIP3    H165107   4.651   4.376   2.586  0.1544 -3.9807 -1.9004
14564TIP3    H265108   4.574   4.366   2.716  2.2336 -1.5340 -0.4086
14565TIP3   OH265109   2.480   5.826  12.864 -0.1737  0.2460  0.3965
14565TIP3    H165110   2.562   5.801  12.822 -0.2696 -0.2484  0.5018
14565TIP3    H265111   2.453   5.905  12.818  0.5547  0.6343  0.6091
14566TIP3   OH265112   1.788   4.279  11.847 -0.3011 -0.1071  0.1875
14566TIP3    H165113   1.756   4.261  11.936 -1.2323  3.2190  0.6592
14566TIP3    H265114   1.725   4.341  11.812  1.3997  0.5206 -1.9162
14567TIP3   OH265115   3.764   6.410   3.969 -0.4904 -0.4455 -0.3362
14567TIP3    H165116   3.710   6.372   3.900 -1.7760  0.3889  0.1737
14567TIP3    H265117   3.854   6.401   3.936 -1.0039 -0.7788 -1.7488
14568TIP3   OH265118   2.531   6.297  13.547  0.2083 -0.0114  0.1298
14568TIP3    H165119   2.508   6.204  13.540 -2.0734  0.3608  1.6241
14568TIP3    H265120   2.537   6.327  13.457 -1.8125 -1.0255 -0.4006
14569TIP3   OH265121   1.179   0.941  14.177  0.4998 -0.1363  0.1859
14569TIP3    H165122   1.262   0.925  14.132  0.5118 -0.6534  0.3863
14569TIP3    H265123   1.114   0.949  14.106  0.7885  0.7781  0.0002
14570TIP3   OH265124   5.966   6.024  11.952 -0.2012 -0.4773  0.5501
14570TIP3    H165125   5.941   5.979  12.032  0.7450  1.1553  1.8282
14570TIP3    H265126   5.894   6.006  11.891 -0.8465 -1.9142  1.6639
14571TIP3   OH265127   2.390   0.316   2.824 -0.2417 -0.1299  0.2046
14571TIP3    H165128   2.441   0.258   2.766  2.3790  2.3158 -0.1635
14571TIP3    H265129   2.321   0.350   2.768  0.2661 -0.3109 -0.5562
14572TIP3   OH265130   3.886   1.805  16.509  0.0613  0.5966  0.1704
14572TIP3    H165131   3.881   1.898  16.531  1.6934  0.7015  0.1971
14572TIP3    H265132   3.889   1.803  16.413 -0.9410  0.4924  0.1285
14573TIP3   OH265133   0.261   0.051  14.400  0.0689 -0.1474  0.3256
14573TIP3    H165134   0.189   0.000  14.361 -0.8036 -0.4802  2.2431
14573TIP3    H265135   0.340   0.007  14.369 -0.6264 -1.4762  0.3478
14574TIP3   OH265136   6.793   2.769   3.022  0.2031 -0.1700 -0.8452
14574TIP3    H165137   6.865   2.805   2.970  1.8085  0.5769  1.7436
14574TIP3    H265138   6.835   2.727   3.097 -2.0403 -0.0590  0.5792
14575TIP3   OH265139   2.594   1.538   2.212  0.0458  0.5072  0.7639
14575TIP3    H165140   2.572   1.628   2.186 -0.1351 -0.1799 -1.6655
14575TIP3    H265141   2.660   1.510   2.148 -0.8698 -1.5221  0.6468
14576TIP3   OH265142   2.436   6.294   2.257  0.2200  0.1960  0.3556
14576TIP3    H165143   2.363   6.232   2.249 -0.3678  1.0053 -1.2054
14576TIP3    H265144   2.395   6.374   2.292  0.7970 -0.0265  1.5441
14577TIP3   OH265145   5.877   0.565   0.685  0.0683  0.2159  0.4290
14577TIP3    H165146   5.784   0.566   0.709  0.2012 -0.5480  1.0007
14577TIP3    H265147   5.921   0.611   0.756  0.3173 -0.9453  1.0485
14578TIP3   OH265148   6.144   1.696  12.864  0.4900 -0.2611  0.1023
14578TIP3    H165149   6.227   1.696  12.912 -0.8740  0.6153  2.6493
14578TIP3    H265150   6.146   1.776  12.813  0.7241  0.3859  1.1017
14579TIP3   OH265151   3.176   1.003   1.494  0.5799  0.1711  0.6406
14579TIP3    H165152   3.105   1.061   1.522  0.7338  0.8664 -0.3288
14579TIP3    H265153   3.226   0.986   1.573  0.9061  1.9260  0.8616
14580TIP3   OH265154   0.141   1.760   4.908  0.8325 -0.1759 -0.5048
14580TIP3    H165155   0.119   1.667   4.914  2.0457 -0.4909 -0.5679
14580TIP3    H265156   0.062   1.805   4.935 -0.2838 -1.1858 -1.9270
14581TIP3   OH265157   4.098   0.353  12.870 -0.5015 -0.5692  0.2211
14581TIP3    H165158   4.083   0.335  12.777 -0.7251  0.4692  0.0472
14581TIP3    H265159   4.122   0.445  12.873  0.5103 -0.8519  1.0986
14582TIP3   OH265160   2.994   4.440  12.501 -0.1051 -0.1572 -0.3149
14582TIP3    H165161   3.088   4.421  12.493  0.2712  1.2454  0.5932
14582TIP3    H265162   2.960   4.427  12.412  0.8968 -0.8487 -0.6184
14583TIP3   OH265163   1.562   3.303  12.541  0.2094 -0.3619  0.0436
14583TIP3    H165164   1.621   3.371  12.575  0.5723 -0.2268 -0.8221
14583TIP3    H265165   1.614   3.222  12.546 -0.3166 -0.6446  1.3276
14584TIP3   OH265166   3.584   2.521   1.837 -0.4294 -0.3828 -0.0969
14584TIP3    H165167   3.545   2.475   1.912 -2.5699 -0.5494 -1.2414
14584TIP3    H265168   3.552   2.474   1.760  0.5144  0.6798 -1.1843
14585TIP3   OH265169   0.134   1.289   5.892  0.6532 -0.2030 -0.4217
14585TIP3    H165170   0.167   1.331   5.972  0.8341  1.6269 -1.4114
14585TIP3    H265171   0.141   1.356   5.825 -3.3195 -0.2633 -1.1581
14586TIP3   OH265172   0.513   2.964   2.061  0.3428 -0.3957 -0.2642
14586TIP3    H165173   0.522   2.881   2.015 -1.5155 -1.3761  1.0206
14586TIP3    H265174   0.498   2.939   2.153  4.1219  1.4450  1.0783
14587TIP3   OH265175   5.086   3.708   1.597  0.5769  0.4394  0.2242
14587TIP3    H165176   5.117   3.658   1.672 -2.8269 -0.0236  1.4880
14587TIP3    H265177   5.075   3.643   1.527  0.3647  0.2087  0.4694
14588TIP3   OH265178   2.096   3.133   4.932 -0.0263  0.4868 -0.2197
14588TIP3    H165179   2.129   3.089   5.010 -0.9656  1.1797  0.6002
14588TIP3    H265180   2.174   3.168   4.889  0.3771  1.7994  1.4819
14589TIP3   OH265181   4.999   4.293   2.767  0.4358 -0.4019 -0.1211
14589TIP3    H165182   5.056   4.340   2.706 -1.7975 -0.4665 -2.4155
14589TIP3    H265183   5.056   4.226   2.806  2.8759  2.0183  0.8158
14590TIP3   OH265184   6.756   2.161  11.692  0.1469 -0.1381  0.2513
14590TIP3    H165185   6.727   2.215  11.766  1.1718  0.3355  0.3132
14590TIP3    H265186   6.674   2.130  11.652 -0.4821  1.4931  0.1824
14591TIP3   OH265187   2.259   1.254  12.911 -0.0817 -0.5761 -0.4448
14591TIP3    H165188   2.205   1.244  12.832 -2.4432  1.2260  0.7920
14591TIP3    H265189   2.301   1.339  12.901 -0.4741 -0.2894  0.2260
14592TIP3   OH265190   0.747   2.063  16.356 -0.1304 -0.0814  0.1463
14592TIP3    H165191   0.757   2.120  16.432 -0.4952  0.7693 -0.4158
14592TIP3    H265192   0.743   1.975  16.391  0.4050  0.2452  1.0511
14593TIP3   OH265193   2.332   4.388  14.699 -0.8914 -0.0978  0.0390
14593TIP3    H165194   2.415   4.341  14.689 -1.5692 -1.4414  0.4573
14593TIP3    H265195   2.304   4.406  14.609  1.1780  2.9399 -0.1525
14594TIP3   OH265196   0.900   4.269   3.012 -0.1019  0.3193 -0.3964
14594TIP3    H165197   0.842   4.342   2.990 -3.2167 -1.1558  1.9699
14594TIP3    H265198   0.841   4.199   3.039  2.7584 -0.9643  3.5094
14595TIP3   OH265199   4.611   0.162   5.357  0.2919 -0.2708  0.0727
14595TIP3    H165200   4.611   0.220   5.281  1.7717 -1.4071 -0.8506
14595TIP3    H265201   4.693   0.182   5.402  0.0589 -0.5404  0.6186
14596TIP3   OH265202   6.543   5.295   2.911  0.1145 -0.1735 -0.2164
14596TIP3    H165203   6.565   5.214   2.957  0.2785  0.4184  0.7863
14596TIP3    H265204   6.603   5.360   2.947 -0.1578  0.4443 -0.8546
14597TIP3   OH265205   5.204   3.919  11.462  0.8305  0.0850 -0.2877
14597TIP3    H165206   5.233   3.960  11.543  0.7993 -0.7526  0.1523
14597TIP3    H265207   5.177   3.831  11.487 -0.5610  0.2872 -0.9613
14598TIP3   OH265208   4.035   6.086   3.242 -0.8462 -0.6071 -0.6157
14598TIP3    H165209   4.041   6.031   3.164  2.1509 -1.5454  0.1654
14598TIP3    H265210   3.946   6.071   3.274 -1.4068 -1.9525 -2.5820
14599TIP3   OH265211   2.578   5.454  15.453 -0.2464 -0.0971  0.1226
14599TIP3    H165212   2.565   5.373  15.502 -2.9407  0.1146 -0.0786
14599TIP3    H265213   2.666   5.483  15.477 -0.3244 -1.5551  2.4833
14600TIP3   OH265214   1.048   5.110   3.022 -0.0279 -0.3150  0.2677
14600TIP3    H165215   0.965   5.065   3.038  0.4423 -0.8610  1.2860
14600TIP3    H265216   1.104   5.084   3.096  0.2169  2.0860  0.9893
14601TIP3   OH265217   2.300   2.899  11.015 -0.2081 -0.0073 -0.2057
14601TIP3    H165218   2.233   2.957  10.980 -0.9484 -0.9986 -0.4929
14601TIP3    H265219   2.258   2.813  11.019  0.1001 -0.1101  2.4287
14602TIP3   OH265220   5.454   1.584  11.521 -0.4602 -0.9109 -0.4754
14602TIP3    H165221   5.469   1.671  11.556 -1.6840 -1.0139  0.3491
14602TIP3    H265222   5.488   1.588  11.431 -0.1137  0.2704 -0.3057
14603TIP3   OH265223   5.996   0.295  12.480 -0.2833 -0.1804  0.0058
14603TIP3    H165224   5.927   0.229  12.468  0.2411 -0.6375 -0.6120
14603TIP3    H265225   6.052   0.285  12.403 -0.1665  0.9711 -0.0711
14604TIP3   OH265226   0.347   4.833  14.886  0.1181 -0.4502 -0.4508
14604TIP3    H165227   0.442   4.844  14.879 -0.2234  2.8027 -1.3371
14604TIP3    H265228   0.330   4.750  14.840  2.5169 -1.3712  0.1393
14605TIP3   OH265229   1.251   0.536   0.457 -0.0940  0.1967 -0.0477
14605TIP3    H165230   1.269   0.474   0.387 -1.3945 -0.2436 -0.0002
14605TIP3    H265231   1.203   0.486   0.523 -0.3170  1.0139  0.4263
14606TIP3   OH265232   4.286   3.918   4.529  0.4737 -0.2766  0.7517
14606TIP3    H165233   4.369   3.905   4.575  2.2206  1.8293 -1.5326
14606TIP3    H265234   4.219   3.891   4.592  2.8608 -2.7014  2.4565
14607TIP3   OH265235   5.928   3.934  16.483  0.1044  0.0164 -0.4224
14607TIP3    H165236   5.836   3.962  16.490  0.0438 -0.4371  0.7280
14607TIP3    H265237   5.969   4.002  16.430 -0.7721  0.5281 -0.4752
14608TIP3   OH265238   1.539   0.298   4.563 -0.0312 -0.1842  0.1320
14608TIP3    H165239   1.460   0.351   4.555 -0.0651 -0.0480  1.2966
14608TIP3    H265240   1.519   0.218   4.514 -0.7595 -0.0195  0.1471
14609TIP3   OH265241   3.711   5.830  11.624  0.0390 -0.2044 -0.1625
14609TIP3    H165242   3.766   5.885  11.568 -2.0113  0.6376 -1.5092
14609TIP3    H265243   3.735   5.853  11.713  1.2858  0.7128 -0.7135
14610TIP3   OH265244   5.601   4.467  16.329 -0.0544 -0.2957 -0.7205
14610TIP3    H165245   5.546   4.407  16.380 -0.3277 -0.3411 -1.0670
14610TIP3    H265246   5.628   4.416  16.253  0.4662 -0.2697 -0.5564
14611TIP3   OH265247   3.005   4.598   0.740  0.8685  0.3317  0.7997
14611TIP3    H165248   3.039   4.628   0.656  1.8025  1.5932  1.5883
14611TIP3    H265249   2.913   4.626   0.740  0.0627 -2.0357 -0.8471
14612TIP3   OH265250   5.841   4.294   3.865  0.6550 -0.2078 -0.4071
14612TIP3    H165251   5.759   4.256   3.833  0.4666  0.0627 -0.2454
14612TIP3    H265252   5.901   4.219   3.871  0.0455 -0.6367  0.6891
14613TIP3   OH265253   0.131   0.568  11.846  0.0127 -0.0064 -0.7355
14613TIP3    H165254   0.058   0.527  11.892 -1.3645  1.2089 -1.7176
14613TIP3    H265255   0.136   0.523  11.762  2.0215 -1.7032  0.2126
14614TIP3   OH265256   2.518   5.410   4.264  0.3935  0.2549 -0.0569
14614TIP3    H165257   2.551   5.464   4.335  0.6995 -0.4626  0.3524
14614TIP3    H265258   2.423   5.426   4.264  0.5837  1.5672 -0.6109
14615TIP3   OH265259   6.320   3.412  16.792  0.7934  0.4532 -0.0720
14615TIP3    H165260   6.371   3.346  16.839  3.4310  2.3513 -0.0031
14615TIP3    H265261   6.382   3.484  16.777 -1.2016  1.8749 -2.3714
14616TIP3   OH265262   1.859   5.749  12.039  0.3182  0.4240 -0.4191
14616TIP3    H165263   1.954   5.747  12.053  0.1913 -0.2812  0.4567
14616TIP3    H265264   1.845   5.817  11.974  1.5405 -0.2236 -1.3914
14617TIP3   OH265265   2.436   0.232  13.900  0.0087 -0.1886 -0.2765
14617TIP3    H165266   2.414   0.180  13.977 -0.8733 -0.4881 -0.7224
14617TIP3    H265267   2.368   0.299  13.895  1.0216  0.9273  0.1817
14618TIP3   OH265268   3.273   4.154  11.174 -0.8407  0.6708 -0.2453
14618TIP3    H165269   3.241   4.245  11.177  0.7615  1.2478  0.4294
14618TIP3    H265270   3.243   4.121  11.090 -1.6986  1.7348 -0.3839
14619TIP3   OH265271   3.112   6.057   2.543  0.1411 -0.0682  0.3268
14619TIP3    H165272   3.201   6.021   2.540  0.2371 -0.6995  4.5613
14619TIP3    H265273   3.118   6.132   2.603 -1.7876  1.4518 -1.2359
14620TIP3   OH265274   3.745   5.064   4.076 -0.0388  0.3638  0.1906
14620TIP3    H165275   3.773   5.154   4.066  0.7540  0.1638  0.5711
14620TIP3    H265276   3.665   5.070   4.129 -1.5443  1.0333 -2.0450
14621TIP3   OH265277   5.856   6.700  13.461 -0.5710  0.4473 -0.2618
14621TIP3    H165278   5.777   6.748  13.486  0.5324  1.1789  2.1274
14621TIP3    H265279   5.854   6.620  13.514 -0.8407 -0.7130 -1.9349
14622TIP3   OH265280   3.964   4.517   2.082  0.1099 -0.7353 -0.3495
14622TIP3    H165281   3.917   4.560   2.153 -1.2333 -0.9292 -1.0978
14622TIP3    H265282   4.025   4.583   2.050 -0.7578  0.0626 -0.3927
14623TIP3   OH265283   6.660   2.882  13.258  0.2315  0.4540  0.0089
14623TIP3    H165284   6.567   2.860  13.259 -0.7833  4.0774  1.4983
14623TIP3    H265285   6.690   2.856  13.171 -1.7819 -1.8964 -0.1037
14624TIP3   OH265286   6.032   4.761   5.063 -0.5073  0.1161  0.6223
14624TIP3    H165287   6.099   4.820   5.098 -0.3719  0.1534  0.3055
14624TIP3    H265288   6.030   4.781   4.969 -0.4762 -0.3672  0.5160
14625TIP3   OH265289   0.511   5.644   2.592  0.1942  0.0230 -0.3529
14625TIP3    H165290   0.561   5.613   2.668  1.5925 -0.6340 -1.4748
14625TIP3    H265291   0.566   5.712   2.554 -0.1562 -0.1255 -1.1390
14626TIP3   OH265292   3.738   6.380   6.349  0.6746  0.0548 -0.2310
14626TIP3    H165293   3.705   6.467   6.327  0.4198  0.0278  0.0357
14626TIP3    H265294   3.659   6.327   6.363  0.7640 -0.7014 -2.1868
14627TIP3   OH265295   4.448   0.788   1.644  0.2097  0.2514  0.1832
14627TIP3    H165296   4.447   0.713   1.705 -1.0399 -0.1846 -0.3269
14627TIP3    H265297   4.373   0.841   1.671 -0.3841  0.0336 -0.9879
14628TIP3   OH265298   6.181   5.013  13.559 -0.4266  0.2443  0.4539
14628TIP3    H165299   6.140   4.952  13.621 -0.9294 -2.5970 -2.3876
14628TIP3    H265300   6.157   5.100  13.590 -3.1326 -1.1169  2.5549
14629TIP3   OH265301   1.993   2.290   3.148  0.5887 -0.3751 -0.2710
14629TIP3    H165302   1.994   2.278   3.053 -0.7715 -0.5381 -0.2909
14629TIP3    H265303   1.992   2.201   3.183 -0.2749 -0.3303 -0.1564
14630TIP3   OH265304   1.360   2.862   1.494  0.0633 -0.5179 -0.4477
14630TIP3    H165305   1.286   2.870   1.554 -0.3995  0.0696 -1.0815
14630TIP3    H265306   1.429   2.917   1.533 -1.4117  2.8779 -2.1885
14631TIP3   OH265307   0.314   2.449  15.366 -0.1499 -0.1118  0.4225
14631TIP3    H165308   0.289   2.390  15.294  0.6235  1.1639 -0.9594
14631TIP3    H265309   0.329   2.533  15.323  0.2094  0.7333  2.1265
14632TIP3   OH265310   3.239   0.841  14.497 -0.9163  0.3385  0.1645
14632TIP3    H165311   3.295   0.764  14.500 -1.1537  0.0703 -1.5756
14632TIP3    H265312   3.301   0.914  14.487 -0.7652  0.2522  0.4562
14633TIP3   OH265313   3.433   2.756   1.893  0.2950  0.5186  0.3258
14633TIP3    H165314   3.341   2.749   1.870  0.7535  2.0672 -2.3718
14633TIP3    H265315   3.474   2.679   1.853  0.2501 -0.0609  1.3496
14634TIP3   OH265316   1.208   5.448  11.587  0.7705  0.2224  0.0532
14634TIP3    H165317   1.263   5.372  11.564  0.0694 -0.6781  1.2694
14634TIP3    H265318   1.192   5.491  11.503  0.2729 -1.6036 -0.8420
14635TIP3   OH265319   5.785   6.668   1.157 -0.3912  0.0129 -0.1170
14635TIP3    H165320   5.862   6.693   1.209 -0.3879 -0.4456  0.1094
14635TIP3    H265321   5.812   6.681   1.066  0.2114 -0.8290 -0.0727
14636TIP3   OH265322   3.719   6.213  13.843 -0.2029  0.7107  0.0664
14636TIP3    H165323   3.686   6.126  13.817  2.3524 -0.2258 -0.2774
14636TIP3    H265324   3.790   6.230  13.782  0.5149  2.2478  1.2964
14637TIP3   OH265325   0.207   6.207   1.537 -0.0165  0.5494  0.5164
14637TIP3    H165326   0.245   6.292   1.513  3.2932 -1.6635 -3.2885
14637TIP3    H265327   0.136   6.194   1.474  1.0436 -0.3730 -0.5488
14638TIP3   OH265328   6.095   4.808   5.815 -0.4717  0.2596  0.2588
14638TIP3    H165329   6.185   4.800   5.847 -0.3219 -1.1972 -0.4494
14638TIP3    H265330   6.095   4.890   5.765  1.1056 -0.7787 -1.5915
14639TIP3   OH265331   2.123   5.292  15.031  0.0772  0.0272 -0.1898
14639TIP3    H165332   2.176   5.239  15.091  0.0625 -1.1991 -1.2135
14639TIP3    H265333   2.087   5.361  15.086 -0.1747 -1.2183  1.2869
14640TIP3   OH265334   3.743   4.324   5.726 -0.0762  0.7720  0.7429
14640TIP3    H165335   3.738   4.294   5.817  0.7629  0.0412  0.5606
14640TIP3    H265336   3.655   4.307   5.691  0.0481 -0.4738  0.9651
14641TIP3   OH265337   0.136   1.834  11.029  0.3286 -0.3412 -0.2415
14641TIP3    H165338   0.179   1.894  10.967 -0.5630  2.8691  1.9928
14641TIP3    H265339   0.101   1.891  11.096 -0.7253 -3.4782  2.0838
14642TIP3   OH265340   3.580   1.938  16.274 -0.1154 -0.0656  0.3822
14642TIP3    H165341   3.664   1.906  16.242 -0.1231  0.2586  0.0300
14642TIP3    H265342   3.594   2.032  16.287 -0.2653 -0.1019  0.8414
14643TIP3   OH265343   3.903   6.124   1.470 -0.2246 -0.2428  0.3360
14643TIP3    H165344   3.813   6.144   1.442 -0.3470 -0.8546  0.2842
14643TIP3    H265345   3.947   6.209   1.469 -0.6678 -0.0090 -0.1323
14644TIP3   OH265346   3.610   4.994  16.199  0.3555  0.0580 -0.0999
14644TIP3    H165347   3.540   4.942  16.159  0.3275 -2.5966  2.9532
14644TIP3    H265348   3.569   5.078  16.219 -0.5769  0.2034 -2.3308
14645TIP3   OH265349   4.004   1.643  13.340  0.4250  0.2525  0.0549
14645TIP3    H165350   3.916   1.611  13.359 -0.6958  0.7519 -3.5075
14645TIP3    H265351   3.999   1.675  13.250  3.8594  1.8564  0.2641
14646TIP3   OH265352   6.791   1.706  12.423  0.0552 -0.3640  0.5676
14646TIP3    H165353   6.877   1.744  12.438  1.0147 -1.2468 -2.1317
14646TIP3    H265354   6.732   1.781  12.420  1.2670  0.5867 -0.7780
14647TIP3   OH265355   4.956   0.418  11.339 -0.7459  0.1936 -0.1852
14647TIP3    H165356   4.862   0.436  11.341 -1.1200 -0.9597 -2.6526
14647TIP3    H265357   4.974   0.368  11.418 -1.3405  3.6139  2.3656
14648TIP3   OH265358   5.816   0.709   5.521  0.6164  0.1617 -0.0761
14648TIP3    H165359   5.757   0.681   5.451 -0.4657  1.1636  0.3987
14648TIP3    H265360   5.806   0.643   5.589 -0.4887  0.6788  0.2762
14649TIP3   OH265361   5.334   2.125   0.775 -0.0857 -0.3057  1.1710
14649TIP3    H165362   5.331   2.110   0.681  0.2502  0.7249  0.9840
14649TIP3    H265363   5.405   2.188   0.787 -0.7329  0.2759  2.0179
14650TIP3   OH265364   2.051   6.583  12.336 -0.5189  0.3041 -0.1629
14650TIP3    H165365   2.079   6.672  12.311  1.0365 -0.2795 -0.6163
14650TIP3    H265366   2.037   6.589  12.431 -0.6005  1.0726 -0.2121
14651TIP3   OH265367   6.089   5.430  16.945 -0.2142  0.0818  0.2822
14651TIP3    H165368   6.117   5.484  17.019  1.5493  1.5178 -1.3391
14651TIP3    H265369   6.164   5.374  16.927 -0.3621  0.2162 -0.8136
14652TIP3   OH265370   5.506   3.499  12.882 -0.3652  0.2193 -0.3254
14652TIP3    H165371   5.587   3.489  12.933 -0.7050 -0.1536  0.1496
14652TIP3    H265372   5.462   3.574  12.922 -1.6945 -1.3900  1.4249
14653TIP3   OH265373   5.405   5.764   3.912  0.1107 -0.3370 -0.0639
14653TIP3    H165374   5.332   5.711   3.879  0.7259 -0.9060 -0.5446
14653TIP3    H265375   5.482   5.726   3.871  0.8611 -0.7031  1.6101
14654TIP3   OH265376   3.054   2.616  13.673 -0.1747 -0.3857 -0.4575
14654TIP3    H165377   3.051   2.614  13.577 -0.2529  0.5982 -0.4811
14654TIP3    H265378   2.966   2.643  13.699  0.4142  1.3814 -0.1929
14655TIP3   OH265379   5.862   4.987  14.742 -0.5807  0.1038  0.0797
14655TIP3    H165380   5.869   5.039  14.822  0.7061  1.5532 -0.9018
14655TIP3    H265381   5.811   5.042  14.682  0.3032  0.0180 -0.7887
14656TIP3   OH265382   3.743   6.718  14.806 -0.1142  0.5961  0.5395
14656TIP3    H165383   3.739   6.778  14.880  1.9559  1.0743  0.3107
14656TIP3    H265384   3.830   6.731  14.768 -0.5435 -0.7460 -1.0490
14657TIP3   OH265385   0.294   3.964   2.672  0.3439 -0.5989 -0.1617
14657TIP3    H165386   0.211   3.994   2.634  0.9736  2.0071  0.3150
14657TIP3    H265387   0.357   3.973   2.600  0.8058  0.6963  0.3654
14658TIP3   OH265388   4.630   0.517  12.605  0.5399 -0.1169  0.7896
14658TIP3    H165389   4.588   0.433  12.591 -0.8028  0.1585  2.7587
14658TIP3    H265390   4.664   0.512  12.695  0.2453  1.4871  1.0179
14659TIP3   OH265391   5.662   6.420  13.774  0.2840 -0.0817 -0.1680
14659TIP3    H165392   5.707   6.414  13.690  1.0394  2.1186 -0.0118
14659TIP3    H265393   5.579   6.463  13.753 -1.1961 -2.7843 -0.2375
14660TIP3   OH265394   0.781   6.641   1.414 -0.4052  0.1636  0.5155
14660TIP3    H165395   0.763   6.640   1.508 -2.1523 -0.3291  0.2041
14660TIP3    H265396   0.855   6.701   1.405  0.1892 -0.2386  2.2559
14661TIP3   OH265397   5.045   5.133  16.293  0.0279  0.3524  0.2764
14661TIP3    H165398   4.984   5.204  16.275 -0.5771 -0.2519 -0.1101
14661TIP3    H265399   5.027   5.108  16.384 -0.4610  0.0290  0.0921
14662TIP3   OH265400   1.532   2.704  15.178 -0.2728  0.0531 -0.1514
14662TIP3    H165401   1.516   2.614  15.208  0.1356 -0.0752 -0.3171
14662TIP3    H265402   1.519   2.701  15.083  0.8012 -0.0712 -0.2998
14663TIP3   OH265403   0.560   1.706   3.433 -0.5727 -0.1933  0.2911
14663TIP3    H165404   0.643   1.663   3.412 -0.8021 -0.5486  0.1050
14663TIP3    H265405   0.518   1.721   3.348 -0.5382  0.3153  0.3616
14664TIP3   OH265406   5.906   5.726   2.378 -0.3119 -0.0246  0.2519
14664TIP3    H165407   5.997   5.700   2.387 -0.0926  0.1520 -1.1116
14664TIP3    H265408   5.877   5.747   2.467  1.3247  1.0348  0.5770
14665TIP3   OH265409   5.188   2.195  11.858 -0.8633  0.0635 -0.1574
14665TIP3    H165410   5.174   2.143  11.778 -1.3184 -1.1870  0.6918
14665TIP3    H265411   5.282   2.195  11.871 -0.8714 -0.8561 -0.0057
14666TIP3   OH265412   1.655   3.630   3.242 -0.5954 -0.2402 -0.5565
14666TIP3    H165413   1.593   3.703   3.245  0.3497  0.5539  0.3924
14666TIP3    H265414   1.694   3.636   3.154  0.0575  0.9223 -0.2075
14667TIP3   OH265415   3.350   3.871   4.021 -0.2788  0.1632  0.3811
14667TIP3    H165416   3.296   3.803   3.980 -0.8791  0.4737  0.6399
14667TIP3    H265417   3.440   3.842   4.007 -0.5272 -0.6513  0.4334
14668TIP3   OH265418   4.430   5.266  11.626  0.0783  0.1864  0.0021
14668TIP3    H165419   4.383   5.230  11.550 -1.9759 -0.9814  1.7043
14668TIP3    H265420   4.467   5.189  11.669  1.3097  0.8477  0.1659
14669TIP3   OH265421   2.610   3.405   5.390 -0.2870 -0.2722 -0.2896
14669TIP3    H165422   2.524   3.445   5.387  0.7970  2.1670 -0.9110
14669TIP3    H265423   2.663   3.456   5.329  1.2654 -2.6037 -1.0431
14670TIP3   OH265424   2.432   4.278   5.706 -0.4599  0.3224 -0.1486
14670TIP3    H165425   2.344   4.261   5.741 -1.5645  2.7276 -1.4783
14670TIP3    H265426   2.463   4.353   5.757  1.4055 -1.1993  1.1019
14671TIP3   OH265427   1.036   6.462   0.298 -0.1472 -0.6442 -0.4345
14671TIP3    H165428   1.017   6.378   0.340 -0.1971 -1.2539 -1.6417
14671TIP3    H265429   1.041   6.442   0.205  1.9881  0.2916 -0.5837
14672TIP3   OH265430   1.788   4.662  14.292  0.1302 -0.3996  0.0816
14672TIP3    H165431   1.852   4.639  14.224 -0.2981 -0.3114 -0.3603
14672TIP3    H265432   1.839   4.700  14.362  0.6915 -1.3353  0.1903
14673TIP3   OH265433   3.438   4.142  11.405  0.5042 -0.3685  0.3751
14673TIP3    H165434   3.398   4.190  11.332  1.0583  0.8207  0.8255
14673TIP3    H265435   3.502   4.084  11.363  1.3656  0.8560 -0.0567
14674TIP3   OH265436   2.342   3.807   1.950  0.3080 -0.5999  0.1525
14674TIP3    H165437   2.339   3.753   1.872  0.6614 -2.5261  1.3908
14674TIP3    H265438   2.383   3.889   1.922 -0.4981 -0.8432 -1.8529
14675TIP3   OH265439   2.071   4.795   4.008 -0.0110 -0.0134 -0.2112
14675TIP3    H165440   2.156   4.771   4.046 -1.4144  0.7050  3.8337
14675TIP3    H265441   2.031   4.711   3.985  0.9203 -0.5079 -0.0871
14676TIP3   OH265442   1.943   0.544   6.615  0.4991 -0.8234 -0.3213
14676TIP3    H165443   1.849   0.540   6.634  0.2801 -0.4715 -1.2611
14676TIP3    H265444   1.969   0.453   6.606  0.1554 -0.9087 -0.4859
14677TIP3   OH265445   3.736   3.708   1.010  0.1453  0.1312  0.2084
14677TIP3    H165446   3.660   3.752   1.049  0.3485  1.3239 -0.6857
14677TIP3    H265447   3.707   3.618   0.998  0.5086 -0.7414  4.3039
14678TIP3   OH265448   5.028   4.704   1.413 -0.0106  0.2056 -0.1560
14678TIP3    H165449   4.991   4.792   1.400 -1.4452 -0.1892  1.0679
14678TIP3    H265450   4.979   4.649   1.352  1.6867  0.4011 -1.7782
14679TIP3   OH265451   2.550   0.365  16.247 -0.1143  0.5026 -0.3324
14679TIP3    H165452   2.645   0.357  16.248 -0.1648 -0.2505 -0.8139
14679TIP3    H265453   2.520   0.296  16.187 -0.9492  0.8557 -0.3420
14680TIP3   OH265454   3.707   0.268   3.315 -0.5838  0.2052 -0.3423
14680TIP3    H165455   3.630   0.217   3.291  0.4813 -1.4935 -0.3063
14680TIP3    H265456   3.774   0.203   3.336  0.2691  1.6204  1.6486
14681TIP3   OH265457   0.199   3.074  12.112 -1.0864  0.1321 -0.0851
14681TIP3    H165458   0.282   3.035  12.140 -1.0202 -0.1952 -0.7274
14681TIP3    H265459   0.213   3.169  12.120 -1.1363  0.0478  1.1625
14682TIP3   OH265460   1.192   3.838   4.518  0.1280  0.4722  0.1702
14682TIP3    H165461   1.216   3.929   4.506 -0.0347  0.4289 -0.5087
14682TIP3    H265462   1.106   3.829   4.476  0.7604 -0.3000 -1.0498
14683TIP3   OH265463   0.674   3.917  12.120 -0.0250  0.4550 -0.3584
14683TIP3    H165464   0.597   3.867  12.095  1.3878 -2.0589 -0.0543
14683TIP3    H265465   0.696   3.885  12.208  3.0511 -1.2872 -1.5807
14684TIP3   OH265466   2.104   2.504   1.936  0.5810  0.1011 -1.0622
14684TIP3    H165467   2.152   2.462   1.864  0.1169 -1.3361 -0.5664
14684TIP3    H265468   2.139   2.464   2.015  1.2359  1.8242 -0.4374
14685TIP3   OH265469   0.825   2.662  10.111 -0.0666  0.1840  0.3532
14685TIP3    H165470   0.823   2.604  10.187  0.4496  0.8630  0.8904
14685TIP3    H265471   0.750   2.721  10.125  0.0153  0.2939  0.3245
14686TIP3   OH265472   4.837   5.740  12.992  0.2509  0.0838 -0.4276
14686TIP3    H165473   4.910   5.720  12.933 -0.1073 -0.0848 -0.8212
14686TIP3    H265474   4.862   5.822  13.034  1.9357 -1.3189  1.5087
14687TIP3   OH265475   4.702   2.694   3.700 -0.1618 -0.5908  0.4389
14687TIP3    H165476   4.758   2.700   3.623 -1.7774  1.1449 -0.6827
14687TIP3    H265477   4.712   2.778   3.744  1.1708 -1.7424  2.5415
14688TIP3   OH265478   3.190   5.788   5.857 -0.1236  0.0464  0.2647
14688TIP3    H165479   3.164   5.715   5.801 -1.5728 -1.7990  3.0813
14688TIP3    H265480   3.279   5.767   5.884  1.4611  2.0505 -2.7742
14689TIP3   OH265481   3.662   5.625  14.913 -0.1391  0.7713  0.0364
14689TIP3    H165482   3.751   5.628  14.878 -0.4043 -1.9314 -1.0761
14689TIP3    H265483   3.670   5.576  14.995 -0.7914 -1.0621 -0.9487
14690TIP3   OH265484   0.609   1.188   5.026 -0.4440 -0.1469 -0.1267
14690TIP3    H165485   0.626   1.181   4.932  1.8666  0.1877  0.2169
14690TIP3    H265486   0.601   1.282   5.042 -2.1721 -0.2490 -0.1419
14691TIP3   OH265487   1.221   2.866  16.259 -0.0855  0.1849 -0.4975
14691TIP3    H165488   1.305   2.893  16.297 -0.1738 -0.6828  0.3413
14691TIP3    H265489   1.170   2.834  16.334 -2.0541  2.7572 -0.5697
14692TIP3   OH265490   4.812   4.749  12.407  0.3724 -0.4044 -1.1666
14692TIP3    H165491   4.826   4.669  12.458  2.0262  1.5734  1.7339
14692TIP3    H265492   4.899   4.774  12.378 -0.4259 -0.9777 -4.4241
14693TIP3   OH265493   2.108   0.601   2.598 -0.4554 -0.2837  0.1595
14693TIP3    H165494   2.192   0.619   2.556  0.4558  0.1160  2.0500
14693TIP3    H265495   2.042   0.628   2.534  0.8540 -0.0905 -1.1342
14694TIP3   OH265496   6.521   4.075  11.925  0.2946 -0.5074  0.4774
14694TIP3    H165497   6.538   4.157  11.973 -1.2030  0.2886 -0.2666
14694TIP3    H265498   6.437   4.044  11.960 -1.0190  0.2805 -1.7625
14695TIP3   OH265499   3.426   0.916   5.441 -0.5260 -0.5797 -0.1420
14695TIP3    H165500   3.478   0.986   5.479 -0.7895  0.2923 -1.3377
14695TIP3    H265501   3.382   0.956   5.366 -1.5742 -1.7370 -0.1821
14696TIP3   OH265502   6.156   5.287  12.095  0.5499  1.2835  0.0569
14696TIP3    H165503   6.176   5.352  12.028  0.6613  1.2009  0.0104
14696TIP3    H265504   6.081   5.239  12.060  0.2303  1.6292  0.2577
14697TIP3   OH265505   3.745   2.952   0.460 -0.0450  0.1204 -0.3648
14697TIP3    H165506   3.770   2.863   0.486  2.0063  0.2938 -1.4926
14697TIP3    H265507   3.776   3.008   0.532  1.2738  0.1461 -0.9132
14698TIP3   OH265508   4.962   4.442  14.908  0.1324  0.3605  0.1904
14698TIP3    H165509   4.926   4.360  14.943  1.4730 -0.0534  0.6720
14698TIP3    H265510   5.000   4.485  14.985  0.1041  1.0787 -0.1934
14699TIP3   OH265511   0.545   6.581   1.025  0.2113  0.1808  0.0912
14699TIP3    H165512   0.582   6.500   1.061 -3.3140 -2.0006 -0.7569
14699TIP3    H265513   0.502   6.623   1.099 -2.5295 -1.6123 -0.3461
14700TIP3   OH265514   4.582   1.012   5.861 -0.1205  0.9916  0.1585
14700TIP3    H165515   4.670   0.977   5.844  0.0717  0.8890  1.3041
14700TIP3    H265516   4.553   1.045   5.776  0.2012 -0.8104 -0.6970
14701TIP3   OH265517   4.084   0.549   2.386 -0.1187  0.8290  0.1246
14701TIP3    H165518   4.018   0.515   2.447  0.3682 -1.4170 -0.5108
14701TIP3    H265519   4.167   0.537   2.431  0.3332 -1.6456 -1.2014
14702TIP3   OH265520   5.437   4.750   1.686  0.1812 -0.3703 -0.4124
14702TIP3    H165521   5.519   4.774   1.641  0.2643  0.0947 -0.0259
14702TIP3    H265522   5.463   4.681   1.746  0.9740  1.8002  1.9226
14703TIP3   OH265523   4.264   2.333   4.807 -0.4251  0.2438 -0.3947
14703TIP3    H165524   4.252   2.307   4.715  0.3609  1.7028 -0.9278
14703TIP3    H265525   4.252   2.428   4.807 -0.0247  0.3107  0.9617
14704TIP3   OH265526   6.090   0.730  16.569  0.3517  0.0546 -0.1596
14704TIP3    H165527   6.137   0.685  16.639  1.7868  0.0464 -1.0803
14704TIP3    H265528   6.003   0.690  16.569  0.8444 -1.0778  0.5564
14705TIP3   OH265529   2.192   5.942   4.010 -0.0851  0.6033 -0.2134
14705TIP3    H165530   2.228   5.953   3.922 -0.8566 -0.0956 -0.6251
14705TIP3    H265531   2.269   5.942   4.067  0.3691  1.9539 -0.7787
14706TIP3   OH265532   6.451   5.532   4.803 -0.1512 -0.5199 -0.2008
14706TIP3    H165533   6.430   5.602   4.866 -2.6977 -0.8220 -0.5958
14706TIP3    H265534   6.415   5.563   4.720  1.0264 -1.1836 -0.9892
14707TIP3   OH265535   6.558   5.116   6.295 -0.4599 -0.0286  0.4705
14707TIP3    H165536   6.512   5.057   6.354 -0.6586 -0.2548  0.0934
14707TIP3    H265537   6.633   5.066   6.264  0.5997  0.6560  1.8127
14708TIP3   OH265538   1.819   1.606  13.088  0.4206 -0.2400 -0.0644
14708TIP3    H165539   1.848   1.697  13.083  0.3211 -0.1949  0.1818
14708TIP3    H265540   1.867   1.562  13.017 -1.4563  0.5041 -1.9100
14709TIP3   OH265541   1.177   1.326  16.208  0.3192 -0.0021  0.3209
14709TIP3    H165542   1.196   1.233  16.219  2.5716 -0.0341 -2.5814
14709TIP3    H265543   1.082   1.330  16.198  0.1355 -1.9360  0.9338
14710TIP3   OH265544   1.106   1.689  12.930  0.4210 -0.2290 -0.2566
14710TIP3    H165545   1.027   1.635  12.922  0.6609 -0.7352  0.6503
14710TIP3    H265546   1.175   1.636  12.892  0.4631 -0.1021 -0.3578
14711TIP3   OH265547   4.188   1.234  16.485 -0.5078 -0.0260  0.4682
14711TIP3    H165548   4.130   1.181  16.539 -0.3476 -0.2841  0.3898
14711TIP3    H265549   4.134   1.308  16.457 -0.8900 -0.4270  0.1429
14712TIP3   OH265550   2.681   0.505  13.503  0.5189 -0.0754 -0.0192
14712TIP3    H165551   2.744   0.563  13.460  0.7323  0.0957  0.5197
14712TIP3    H265552   2.596   0.542  13.481  0.6350  0.1470 -0.1046
14713TIP3   OH265553   4.899   6.012   0.318 -0.2667  0.1230 -0.7842
14713TIP3    H165554   4.942   6.009   0.404 -1.7979  0.7608  0.0465
14713TIP3    H265555   4.855   5.927   0.311 -2.4927  1.1051  0.3898
14714TIP3   OH265556   4.904   0.257  14.713 -0.5070 -0.0266  0.3253
14714TIP3    H165557   4.874   0.335  14.665  0.3217  0.2525  0.2365
14714TIP3    H265558   4.835   0.240  14.777 -1.9672 -0.7887 -1.3671
14715TIP3   OH265559   1.085   2.461   0.809  0.1685 -0.4861 -0.4514
14715TIP3    H165560   1.083   2.508   0.892  0.4330  2.0383 -1.7595
14715TIP3    H265561   0.996   2.465   0.776  0.7518  1.9918 -1.9828
14716TIP3   OH265562   3.967   6.212   5.613 -0.1309 -0.5653 -0.5662
14716TIP3    H165563   4.011   6.127   5.621  0.3151 -0.1925  1.1700
14716TIP3    H265564   3.896   6.196   5.550  0.7128 -1.8921 -1.2313
14717TIP3   OH265565   3.329   3.590   0.408  0.7130 -0.1905  0.1438
14717TIP3    H165566   3.420   3.566   0.429  0.6560 -0.8490 -0.3105
14717TIP3    H265567   3.334   3.627   0.320  0.6461  0.5363  0.4345
14718TIP3   OH265568   4.924   3.537  15.484 -0.2164  0.2150  0.1898
14718TIP3    H165569   4.929   3.626  15.519 -1.4397 -0.4925  2.3179
14718TIP3    H265570   5.016   3.510  15.477  0.1354  1.1783  0.7674
14719TIP3   OH265571   5.618   3.658  12.652 -0.2207 -0.8267  0.6714
14719TIP3    H165572   5.577   3.649  12.566  2.5047  0.2142 -0.8561
14719TIP3    H265573   5.582   3.585  12.704 -3.0236 -0.6294 -0.8272
14720TIP3   OH265574   5.524   5.365   4.732 -0.3585  0.5620  0.3760
14720TIP3    H165575   5.504   5.329   4.819  0.7146 -1.2925 -0.0940
14720TIP3    H265576   5.456   5.431   4.717 -1.7201 -0.4431  1.8113
14721TIP3   OH265577   0.484   4.453  11.302 -0.4615  0.1388 -0.2410
14721TIP3    H165578   0.523   4.405  11.228  0.0971 -0.0567  0.1723
14721TIP3    H265579   0.544   4.437  11.375 -1.3743 -0.2540  0.4431
14722TIP3   OH265580   2.490   5.953   0.325 -0.1971 -0.0245  0.0424
14722TIP3    H165581   2.515   5.918   0.411  0.5626 -3.1577 -1.2978
14722TIP3    H265582   2.451   5.878   0.280 -4.1400  2.4581 -1.1088
14723TIP3   OH265583   2.874   4.371  12.882  0.5190  0.0204  0.8098
14723TIP3    H165584   2.845   4.443  12.826  0.0875 -0.9130 -0.1931
14723TIP3    H265585   2.959   4.345  12.846  0.0711 -0.8262  0.3244
14724TIP3   OH265586   2.060   5.385   3.518  0.1104 -0.0390 -0.3569
14724TIP3    H165587   2.061   5.291   3.502  1.1878 -0.6335  2.6276
14724TIP3    H265588   2.125   5.420   3.457  0.4892 -1.3570 -0.7489
14725TIP3   OH265589   0.927   1.615   5.237  0.1481  0.1095 -0.3092
14725TIP3    H165590   1.003   1.670   5.217 -1.4018  1.7183 -2.1928
14725TIP3    H265591   0.933   1.599   5.331  1.2107  2.7491  0.1659
14726TIP3   OH265592   6.219   5.675   1.064  0.3311  0.6668 -0.7842
14726TIP3    H165593   6.314   5.669   1.061  0.4424 -1.6899  2.2514
14726TIP3    H265594   6.200   5.735   1.136 -0.4029 -0.5044  0.0357
14727TIP3   OH265595   3.758   5.581  16.541  0.3129  0.0539  0.1280
14727TIP3    H165596   3.803   5.500  16.565 -0.3473  0.0189  1.2886
14727TIP3    H265597   3.709   5.606  16.619 -0.1809  1.1158 -0.4976
14728TIP3   OH265598   4.343   6.618   4.722 -0.6620 -0.1270  0.5321
14728TIP3    H165599   4.355   6.538   4.671 -0.2408  1.1542 -1.5039
14728TIP3    H265600   4.432   6.645   4.744 -0.6514  0.8617 -0.6226
14729TIP3   OH265601   3.183   6.776   4.256 -0.2026 -0.1672 -0.1279
14729TIP3    H165602   3.146   6.702   4.304 -0.0972 -0.7485 -0.9104
14729TIP3    H265603   3.228   6.827   4.322  0.7850 -1.4793  0.2646
14730TIP3   OH265604   1.497   1.328   4.891 -0.1845 -0.1535 -0.5948
14730TIP3    H165605   1.568   1.286   4.841  1.1761 -0.6185  1.5606
14730TIP3    H265606   1.432   1.259   4.903  1.1092 -1.1567  1.1792
14731TIP3   OH265607   4.962   5.130  12.730 -0.0232 -0.4106 -0.2345
14731TIP3    H165608   5.000   5.074  12.798 -0.9704 -1.1343 -0.2848
14731TIP3    H265609   4.889   5.079  12.694  0.3079  0.0465 -1.6435
14732TIP3   OH265610   5.141   1.818  13.277  0.4978  0.2965  0.2550
14732TIP3    H165611   5.170   1.781  13.194  0.6949  0.5696  0.2017
14732TIP3    H265612   5.212   1.798  13.338  0.3843  0.1570  0.3419
14733TIP3   OH265613   0.136   1.374  16.604 -0.2712 -0.4830 -0.5645
14733TIP3    H165614   0.078   1.449  16.587 -0.6893 -0.3249  1.2727
14733TIP3    H265615   0.076   1.301  16.620 -0.0288 -0.3469  1.2176
14734TIP3   OH265616   1.651   6.332  16.338  0.6459 -0.3307 -0.3137
14734TIP3    H165617   1.693   6.350  16.422 -0.7828  0.9664  0.1584
14734TIP3    H265618   1.686   6.398  16.279  1.3091 -0.9621 -0.6398
14735TIP3   OH265619   0.287   4.793  16.101  0.3110  0.0121  0.2018
14735TIP3    H165620   0.314   4.843  16.025  1.6853 -1.7472 -0.5335
14735TIP3    H265621   0.237   4.855  16.154  0.3044  1.5885 -1.5573
14736TIP3   OH265622   6.129   4.674   2.462  0.2801  0.0320 -0.2909
14736TIP3    H165623   6.183   4.605   2.499  0.7701  0.0728 -0.9195
14736TIP3    H265624   6.191   4.740   2.432 -0.0842 -0.1152 -1.4158
14737TIP3   OH265625   6.402   2.896  11.182  0.5783 -0.2902 -0.0900
14737TIP3    H165626   6.363   2.821  11.138 -0.4889 -0.5918  1.2953
14737TIP3    H265627   6.485   2.862  11.218 -0.0836 -0.9507  0.8665
14738TIP3   OH265628   5.252   4.666   5.696 -0.1632  0.4291 -0.0131
14738TIP3    H165629   5.234   4.576   5.668  0.4522  0.6673 -1.2652
14738TIP3    H265630   5.174   4.715   5.671  0.3503  0.6243 -1.3205
14739TIP3   OH265631   5.170   1.497  14.076 -0.2343  0.0421  0.0116
14739TIP3    H165632   5.134   1.567  14.022 -1.5563 -0.6525 -0.0634
14739TIP3    H265633   5.214   1.542  14.148 -1.1481  0.9518  0.0298
14740TIP3   OH265634   6.718   2.710  13.486 -0.5303  0.3189 -0.2109
14740TIP3    H165635   6.630   2.672  13.481 -0.4293  0.0821 -0.1613
14740TIP3    H265636   6.709   2.795  13.442 -0.9611  0.6304  0.4763
14741TIP3   OH265637   4.295   5.131  16.001  0.9546 -0.4945  0.4158
14741TIP3    H165638   4.227   5.105  15.939  0.1562  1.9277  0.1821
14741TIP3    H265639   4.248   5.154  16.081  1.3133  2.0133 -0.0041
14742TIP3   OH265640   2.934   2.396   3.895  0.6644  0.4103  0.5305
14742TIP3    H165641   3.006   2.334   3.886 -1.2284 -1.6936 -1.2632
14742TIP3    H265642   2.893   2.374   3.978  0.9782  0.4008  0.6849
14743TIP3   OH265643   3.722   4.934   3.771  0.2581  0.1832 -0.5873
14743TIP3    H165644   3.761   5.013   3.808 -0.6808  0.1574  0.5282
14743TIP3    H265645   3.630   4.938   3.797 -0.1259 -0.5568 -1.7652
14744TIP3   OH265646   1.438   4.319   2.766 -0.1397 -0.0018 -0.4769
14744TIP3    H165647   1.369   4.291   2.706  1.3196 -0.9312 -1.7843
14744TIP3    H265648   1.485   4.239   2.789  0.3675  0.5777  0.5953
14745TIP3   OH265649   3.669   6.623   0.755  0.6043 -0.2559 -0.5310
14745TIP3    H165650   3.742   6.666   0.798 -0.5257  0.2147  1.0036
14745TIP3    H265651   3.630   6.691   0.701 -1.1431  0.7669  1.8455
14746TIP3   OH265652   5.446   0.158  14.110 -0.6893 -0.3489  0.0252
14746TIP3    H165653   5.506   0.095  14.150  0.1407  0.7569  0.6133
14746TIP3    H265654   5.447   0.137  14.017 -0.4464 -1.2038  0.2133
14747TIP3   OH265655   3.189   4.196   5.051 -0.3427  0.4422  0.0620
14747TIP3    H165656   3.258   4.241   5.098 -0.9556  2.5571 -0.9026
14747TIP3    H265657   3.232   4.122   5.009  0.9448  0.6888  0.9014
14748TIP3   OH265658   4.658   3.749   2.068 -0.5171  0.4799 -0.2812
14748TIP3    H165659   4.569   3.782   2.077 -1.0159 -0.4902 -1.3636
14748TIP3    H265660   4.648   3.662   2.028  0.8839  0.1328  0.0430
14749TIP3   OH265661   1.248   1.491   3.635  0.1483  0.0618 -0.2968
14749TIP3    H165662   1.250   1.411   3.582 -0.9464  1.0388 -1.8579
14749TIP3    H265663   1.237   1.458   3.725  1.3331 -1.5914 -0.7047
14750TIP3   OH265664   0.789   2.892  12.751 -0.5764 -0.6749  0.1893
14750TIP3    H165665   0.781   2.844  12.669 -0.7259 -1.6295  0.7453
14750TIP3    H265666   0.727   2.850  12.810  0.4737 -0.8885  1.1894
14751TIP3   OH265667   4.463   6.216  16.704 -0.2365 -0.0259 -0.0568
14751TIP3    H165668   4.463   6.312  16.709 -0.2885 -0.0571  0.6281
14751TIP3    H265669   4.533   6.195  16.643  0.1316  0.4316  0.2026
14752TIP3   OH265670   4.286   3.599  16.624 -0.3212  0.4138 -0.0921
14752TIP3    H165671   4.227   3.561  16.558  0.0708  0.4108 -0.4426
14752TIP3    H265672   4.373   3.569  16.599  0.0636  1.9096 -0.6596
14753TIP3   OH265673   2.316   0.994   4.730  0.2233  0.2180  0.3019
14753TIP3    H165674   2.290   1.053   4.659  3.2875  1.0021 -0.2979
14753TIP3    H265675   2.341   0.913   4.686  1.1275  0.3443  0.5705
14754TIP3   OH265676   1.450   5.170  12.034  0.4509  0.1931  0.3859
14754TIP3    H165677   1.400   5.141  12.110  0.1729 -1.1206 -0.2749
14754TIP3    H265678   1.541   5.173  12.065  0.3271 -0.2188  0.8034
14755TIP3   OH265679   5.965   3.446  11.806  0.8207 -0.3857 -0.4228
14755TIP3    H165680   5.941   3.380  11.741  1.2355 -0.1859 -0.7851
14755TIP3    H265681   6.040   3.492  11.767  0.2311  0.6304 -0.4055
14756TIP3   OH265682   4.914   1.238  15.398 -0.3460 -0.1550  0.0063
14756TIP3    H165683   4.992   1.184  15.384 -0.1470 -0.2686  1.3463
14756TIP3    H265684   4.930   1.280  15.483 -1.6967 -0.1008  0.2532
14757TIP3   OH265685   5.954   5.342  13.909  0.5318 -0.3117  0.1846
14757TIP3    H165686   5.933   5.412  13.848 -0.9093 -0.9304 -0.0901
14757TIP3    H265687   5.892   5.272  13.886  1.0169 -1.1426  1.3350
14758TIP3   OH265688   5.803   1.946   2.913 -0.4024  0.4659 -0.0265
14758TIP3    H165689   5.739   1.951   2.842 -0.6663  0.2820  0.1943
14758TIP3    H265690   5.811   1.852   2.930  0.1397  0.4700 -0.2426
14759TIP3   OH265691   5.859   4.601   0.308  0.0974  0.0570  0.6204
14759TIP3    H165692   5.859   4.509   0.280 -0.2915  0.1014  0.4739
14759TIP3    H265693   5.845   4.651   0.227 -0.7078  0.2013  0.8427
14760TIP3   OH265694   4.353   5.942   3.075 -0.1826  0.0611  0.0766
14760TIP3    H165695   4.387   5.918   2.989  0.2024 -0.7241  0.4416
14760TIP3    H265696   4.430   5.946   3.131 -0.6058 -1.2085  0.7945
14761TIP3   OH265697   5.710   3.555  11.884  0.1148 -0.0354 -0.1508
14761TIP3    H165698   5.779   3.498  11.850  0.6299 -0.4259  1.4766
14761TIP3    H265699   5.652   3.569  11.809 -1.2994 -4.5151 -0.1887
14762TIP3   OH265700   1.390   3.749  13.146 -0.6407  0.6635  0.6243
14762TIP3    H165701   1.389   3.796  13.229  3.2261  1.0266  0.6443
14762TIP3    H265702   1.405   3.816  13.080  1.3973 -0.0923  0.2594
14763TIP3   OH265703   2.714   0.722  14.755  0.0483 -0.2383  0.1837
14763TIP3    H165704   2.639   0.743  14.810  0.4878  0.0359  0.6841
14763TIP3    H265705   2.788   0.767  14.796  0.6939 -1.3686  0.3092
14764TIP3   OH265706   1.419   0.954  10.941  0.2884 -0.0526  0.5785
14764TIP3    H165707   1.362   1.029  10.928  1.7990  1.3035  1.4196
14764TIP3    H265708   1.458   0.967  11.027  2.4597 -0.4756 -0.2580
14765TIP3   OH265709   3.727   1.379   2.661  0.4493  0.4463  0.2418
14765TIP3    H165710   3.734   1.418   2.748 -1.0829  2.0687 -0.3071
14765TIP3    H265711   3.646   1.328   2.663  0.9822 -0.4388  0.0797
14766TIP3   OH265712   0.279   2.936   5.014  0.1708 -0.2709  0.2126
14766TIP3    H165713   0.277   3.030   4.992  2.3946 -0.0914  0.5046
14766TIP3    H265714   0.371   2.919   5.034 -0.4285 -2.2348  1.5205
14767TIP3   OH265715   1.260   2.388   1.706  0.1891  0.1197 -0.1023
14767TIP3    H165716   1.198   2.394   1.779  0.0558  0.4276 -0.2361
14767TIP3    H265717   1.295   2.477   1.698  0.9470 -0.1434  0.2305
14768TIP3   OH265718   1.346   3.401  15.980  0.4089 -0.5716 -0.1135
14768TIP3    H165719   1.374   3.492  15.979 -1.2978 -0.0083 -0.1960
14768TIP3    H265720   1.425   3.351  15.959  1.4342  0.8529  0.2190
14769TIP3   OH265721   4.814   3.563  11.110 -0.4520 -0.2403  0.3161
14769TIP3    H165722   4.784   3.626  11.175 -0.3342  0.8601 -0.6530
14769TIP3    H265723   4.909   3.573  11.108 -0.3127 -1.2821  0.9573
14770TIP3   OH265724   6.637   4.017  16.370  0.2640 -0.2402 -0.4537
14770TIP3    H165725   6.701   4.052  16.309 -0.5982  1.0528 -0.6514
14770TIP3    H265726   6.651   3.922  16.368  1.5405 -0.0537 -1.1686
14771TIP3   OH265727   6.088   2.393   0.076  0.2857 -0.2112  0.2458
14771TIP3    H165728   6.112   2.329   0.009  1.1899  0.4376 -0.0699
14771TIP3    H265729   6.156   2.384   0.143  0.1027  0.0250  0.4627
14772TIP3   OH265730   1.849   6.417  15.640  0.0023 -0.5388 -0.1559
14772TIP3    H165731   1.827   6.506  15.666 -1.0283 -0.2984 -1.7577
14772TIP3    H265732   1.922   6.393  15.698 -1.0859  0.5310  1.7595
14773TIP3   OH265733   1.929   2.802  16.907  0.3925 -0.3304 -0.2145
14773TIP3    H165734   2.001   2.739  16.907  0.2044 -0.5526 -0.6766
14773TIP3    H265735   1.972   2.888  16.905  0.6490 -0.4638 -0.5523
14774TIP3   OH265736   3.057   6.089   2.277  0.2526 -0.1604 -0.4996
14774TIP3    H165737   3.080   6.181   2.263  0.8926 -0.2441 -0.0376
14774TIP3    H265738   3.082   6.071   2.367 -0.9195 -0.4835 -0.2169
14775TIP3   OH265739   0.091   0.058  13.450  0.5060 -0.5647  0.6710
14775TIP3    H165740   0.025  -0.009  13.436  1.6491 -1.7101  0.6009
14775TIP3    H265741   0.071   0.125  13.385  0.8472 -2.0281 -1.0198
14776TIP3   OH265742   0.142   6.676  15.884 -0.1865 -0.0507 -0.1860
14776TIP3    H165743   0.186   6.652  15.803 -0.5876  1.7943 -0.9933
14776TIP3    H265744   0.210   6.672  15.951  0.5903  0.2321 -0.9491
14777TIP3   OH265745   1.801   1.379   2.682  0.4302 -0.3011  0.4876
14777TIP3    H165746   1.810   1.283   2.687  0.4572 -0.2565  1.6158
14777TIP3    H265747   1.708   1.394   2.700  0.2182 -0.1595 -0.6645
14778TIP3   OH265748   2.292   2.140   4.709 -0.0070  0.5365 -0.2204
14778TIP3    H165749   2.300   2.091   4.626  0.5797  1.1638 -0.5454
14778TIP3    H265750   2.203   2.123   4.738 -0.8031  1.6486 -1.8607
14779TIP3   OH265751   3.424   1.261   3.753  0.1620 -0.7791 -0.2801
14779TIP3    H165752   3.336   1.283   3.723  0.0113 -0.2784  0.5272
14779TIP3    H265753   3.413   1.180   3.803  0.0159 -0.2222  0.5953
14780TIP3   OH265754   4.597   1.513   0.420 -0.0198  0.1948  0.3402
14780TIP3    H165755   4.523   1.512   0.360 -0.7664 -0.8066  1.2362
14780TIP3    H265756   4.593   1.428   0.464  1.7781  0.0416  0.2720
14781TIP3   OH265757   6.752   0.939  13.915  0.0167  0.0878 -0.0263
14781TIP3    H165758   6.843   0.967  13.908  0.1571 -0.4594 -0.3799
14781TIP3    H265759   6.753   0.845  13.900 -0.6617  0.1384 -0.4542
14782TIP3   OH265760   5.424   5.401   2.968 -0.4881  0.8998  0.3477
14782TIP3    H165761   5.487   5.376   3.036 -1.2029  0.7845  0.9770
14782TIP3    H265762   5.475   5.457   2.909  1.0149 -1.5241 -0.8241
14783TIP3   OH265763   2.173   3.267  16.655 -0.2174  0.1425 -0.2084
14783TIP3    H165764   2.234   3.316  16.710  0.4506 -0.0405 -0.7633
14783TIP3    H265765   2.134   3.333  16.598 -0.5025  0.2511  0.1061
14784TIP3   OH265766   1.731   4.070   3.814  0.3165  0.1371  0.4037
14784TIP3    H165767   1.758   4.117   3.736  0.0928 -1.1982 -0.5183
14784TIP3    H265768   1.807   4.074   3.872  1.4754 -1.0505 -0.9534
14785TIP3   OH265769   1.498   5.330  11.823 -0.1420 -0.3098  0.4438
14785TIP3    H165770   1.485   5.267  11.894  0.6247  0.2629  1.1098
14785TIP3    H265771   1.589   5.359  11.834  0.4972 -1.3251 -1.6773
14786TIP3   OH265772   4.853   3.817   5.205 -0.2722 -0.3229  0.0646
14786TIP3    H165773   4.775   3.787   5.157 -0.4725 -0.2966  0.3749
14786TIP3    H265774   4.853   3.765   5.285 -1.3263  1.3522  1.2149
14787TIP3   OH265775   3.057   4.783  11.150  0.1443 -0.1261  0.2401
14787TIP3    H165776   3.011   4.806  11.069  3.2824  0.0252 -1.6735
14787TIP3    H265777   3.148   4.811  11.135  1.4721 -2.5465  2.7560
14788TIP3   OH265778   1.782   2.266  14.777 -0.6124 -0.4166 -0.2068
14788TIP3    H165779   1.877   2.272  14.782 -0.5460 -2.0556  1.1885
14788TIP3    H265780   1.763   2.173  14.764 -2.0146  0.0285 -1.7920
14789TIP3   OH265781   0.937   6.237  12.875 -0.2866 -0.0128 -0.3025
14789TIP3    H165782   1.000   6.292  12.922  0.6900 -1.4464  0.1416
14789TIP3    H265783   0.885   6.196  12.945 -0.3619 -0.3724 -0.5648
14790TIP3   OH265784   3.356   2.571   2.269 -0.1497 -0.3511 -0.2215
14790TIP3    H165785   3.272   2.544   2.307  0.4637 -1.7000  0.2479
14790TIP3    H265786   3.376   2.654   2.311 -1.1092 -0.1526 -0.1269
14791TIP3   OH265787   4.896   3.450   3.824  0.0819  0.1564 -0.4077
14791TIP3    H165788   4.944   3.429   3.904  0.6036  0.7830 -0.5502
14791TIP3    H265789   4.806   3.422   3.842  0.3274 -0.2792  0.1626
14792TIP3   OH265790   4.050   0.765  10.870 -0.1026 -0.0976  0.8560
14792TIP3    H165791   3.975   0.756  10.928  0.1608  0.5036  1.2991
14792TIP3    H265792   4.122   0.721  10.915 -0.3261 -1.2325  0.1446
14793TIP3   OH265793   1.586   3.003   3.966  0.1372  0.1465 -0.1526
14793TIP3    H165794   1.598   2.936   3.898  2.2170 -1.4187  1.6060
14793TIP3    H265795   1.664   2.995   4.021  0.1822  3.6939  0.4885
14794TIP3   OH265796   6.017   5.290   5.861 -0.2180  0.0686  0.0635
14794TIP3    H165797   5.984   5.365   5.911 -0.7507 -0.6456  0.8047
14794TIP3    H265798   5.977   5.214   5.902 -0.0342 -0.6042 -0.9570
14795TIP3   OH265799   3.099   5.739  15.292 -0.5510 -0.1205 -0.1929
14795TIP3    H165800   3.134   5.731  15.203 -1.4668 -0.7268 -0.5150
14795TIP3    H265801   3.014   5.695  15.289  0.0890 -1.5742  1.3864
14796TIP3   OH265802   6.507   4.369  16.238  0.3535 -0.1632 -0.0578
14796TIP3    H165803   6.505   4.380  16.333  0.1244  1.6656 -0.2341
14796TIP3    H265804   6.416   4.378  16.210  0.2228 -2.0850 -0.3462
14797TIP3   OH265805   6.696   5.958  16.538  0.4867 -0.3962  0.4279
14797TIP3    H165806   6.755   6.005  16.479  1.9948  0.6484  2.6617
14797TIP3    H265807   6.687   6.015  16.614 -2.1524 -1.2689  0.8744
14798TIP3   OH265808   1.278   4.059  11.914  0.4268  0.2816 -0.0176
14798TIP3    H165809   1.353   4.011  11.879 -0.0105  0.9016 -1.9577
14798TIP3    H265810   1.213   4.055  11.844 -1.8209 -1.1386  1.9806
14799TIP3   OH265811   4.935   2.257   6.055 -0.3652 -0.5453 -0.3716
14799TIP3    H165812   4.997   2.191   6.026  1.4544  1.0313 -0.2532
14799TIP3    H265813   4.960   2.336   6.007 -1.0570  0.6222  1.1238
14800TIP3   OH265814   0.985   3.310  15.299 -0.2566  0.1753  0.4705
14800TIP3    H165815   0.938   3.332  15.379  0.5223  0.3129  0.9009
14800TIP3    H265816   1.021   3.394  15.268  0.7392 -0.1036  0.8304
14801TIP3   OH265817   3.219   0.888  16.635 -0.2017 -0.2815 -0.2840
14801TIP3    H165818   3.191   0.859  16.722  1.8602 -1.7382 -0.0374
14801TIP3    H265819   3.259   0.973  16.650 -1.6515  0.4156 -0.1775
14802TIP3   OH265820   2.011   3.210   2.994  0.0969 -0.0818  0.2564
14802TIP3    H165821   1.998   3.127   2.947 -0.3063 -1.4560  2.6145
14802TIP3    H265822   1.924   3.248   3.001 -0.2105 -0.9474  1.6254
14803TIP3   OH265823   4.820   5.515  13.852 -0.7075 -0.7224 -0.2250
14803TIP3    H165824   4.805   5.445  13.789 -0.3250 -0.6862 -0.3561
14803TIP3    H265825   4.799   5.475  13.937 -0.7360 -0.9191 -0.3241
14804TIP3   OH265826   1.909   6.788  15.352 -0.0822  0.2341 -0.6781
14804TIP3    H165827   1.949   6.842  15.283 -0.3457 -0.9019 -1.7504
14804TIP3    H265828   1.822   6.825  15.364  0.7326  1.8515  0.6880
14805TIP3   OH265829   6.467   5.395  10.712 -0.3564 -0.1707 -0.0720
14805TIP3    H165830   6.424   5.479  10.723  0.0319 -0.0566  0.6802
14805TIP3    H265831   6.557   5.417  10.686  0.0982 -0.2804  1.2724
14806TIP3   OH265832   6.588   6.269   0.905 -0.6795 -0.4549  0.1974
14806TIP3    H165833   6.618   6.181   0.932  0.6895 -0.6414 -1.7227
14806TIP3    H265834   6.645   6.329   0.953 -0.5756 -0.6687  0.3431
14807TIP3   OH265835   4.900   0.048   4.343 -0.4638  0.4782 -0.5408
14807TIP3    H165836   4.919   0.052   4.250  0.2668 -0.4156 -0.4418
14807TIP3    H265837   4.855  -0.035   4.356  0.6291 -0.0402  0.0891
14808TIP3   OH265838   6.722   6.079  14.410 -0.3881  0.0264 -0.4879
14808TIP3    H165839   6.744   6.083  14.503  1.6796 -0.1152 -0.9119
14808TIP3    H265840   6.639   6.031  14.406 -0.8783  0.6679  1.3068
14809TIP3   OH265841   5.470   3.909  10.829  0.2445  0.3030  0.3442
14809TIP3    H165842   5.515   3.902  10.746  1.3242  0.3475  0.9146
14809TIP3    H265843   5.380   3.933  10.806  0.6917  0.9495 -0.7576
14810TIP3   OH265844   4.196   5.519   5.250 -0.2861 -0.2563  0.4271
14810TIP3    H165845   4.274   5.571   5.269  1.0153 -1.0380 -2.2723
14810TIP3    H265846   4.123   5.580   5.261  0.9986  1.4940 -0.2758
14811TIP3   OH265847   3.852   5.366   4.110 -0.1797  0.2883 -0.2945
14811TIP3    H165848   3.930   5.368   4.165 -0.3720 -0.9766  0.0586
14811TIP3    H265849   3.865   5.436   4.047  0.5352  1.0821  0.7036
14812TIP3   OH265850   0.153   5.291   4.701 -0.1025  0.1039 -0.4162
14812TIP3    H165851   0.097   5.361   4.666 -0.6064 -1.5806 -3.3707
14812TIP3    H265852   0.239   5.310   4.664 -0.6569 -1.7463 -2.9238
14813TIP3   OH265853   3.877   4.395  16.314  0.5337 -0.9776  0.3773
14813TIP3    H165854   3.936   4.462  16.348 -1.1009  0.5236  0.4012
14813TIP3    H265855   3.935   4.327  16.281  2.2920  0.5554  0.1053
14814TIP3   OH265856   3.659   5.837   5.149  0.3895 -0.0385 -0.1084
14814TIP3    H165857   3.684   5.745   5.155  2.2815  0.3750 -0.9251
14814TIP3    H265858   3.674   5.872   5.237  1.3474 -0.1424 -0.2189
14815TIP3   OH265859   5.303   2.311   0.240  0.0219  0.2208 -0.6024
14815TIP3    H165860   5.322   2.304   0.146  0.7380 -0.7422 -0.4054
14815TIP3    H265861   5.223   2.259   0.252 -0.8284  1.4279 -0.8745
14816TIP3   OH265862   4.857   6.159   0.678 -0.1331 -0.3553  0.2323
14816TIP3    H165863   4.887   6.095   0.614  2.3328  0.9046  0.0169
14816TIP3    H265864   4.843   6.108   0.758  1.6960 -1.2371  0.0439
14817TIP3   OH265865   0.327   4.099   4.774 -0.1200  0.2534 -0.2970
14817TIP3    H165866   0.329   4.103   4.870 -0.3489 -1.7742 -0.1684
14817TIP3    H265867   0.413   4.064   4.750  0.1725  1.3493 -0.8923
14818TIP3   OH265868   2.394   4.727   6.075  0.5913 -0.3755  0.0319
14818TIP3    H165869   2.409   4.634   6.062  2.1409 -0.2350  0.6594
14818TIP3    H265870   2.410   4.742   6.168 -3.1440 -0.0759  0.7982
14819TIP3   OH265871   0.379   4.419  12.035 -0.3760  0.0487  0.4733
14819TIP3    H165872   0.468   4.432  12.066 -0.3276  1.7464 -0.2548
14819TIP3    H265873   0.338   4.364  12.101  1.2075 -0.7679  0.8075
14820TIP3   OH265874   5.057   2.656  13.838 -0.4147  0.0119 -0.1520
14820TIP3    H165875   4.973   2.701  13.834 -0.9593 -0.4974  3.2902
14820TIP3    H265876   5.122   2.725  13.849 -0.5912  0.2608 -0.6477
14821TIP3   OH265877   3.685   2.327  14.175  0.4675 -0.4215  0.4470
14821TIP3    H165878   3.681   2.402  14.234  1.1816  0.6312 -0.8080
14821TIP3    H265879   3.613   2.341  14.113 -0.5924 -1.7743  1.2875
14822TIP3   OH265880   0.442   2.631  13.592 -0.3026 -0.3377  0.5236
14822TIP3    H165881   0.406   2.719  13.600  0.8433  0.2025 -0.0671
14822TIP3    H265882   0.392   2.579  13.656 -2.4107  0.2475 -0.5735
14823TIP3   OH265883   3.976   6.528  16.956  0.4579  0.0128  0.1590
14823TIP3    H165884   4.019   6.592  17.012  1.4977 -1.4263  1.0758
14823TIP3    H265885   4.022   6.446  16.974 -0.8135 -0.9914 -0.9832
14824TIP3   OH265886   5.982   0.004  15.644  0.5793 -0.0699  0.4511
14824TIP3    H165887   5.916   0.006  15.574  1.4555 -0.5998 -0.4257
14824TIP3    H265888   5.952   0.067  15.708  0.9545  2.2377 -1.5132
14825TIP3   OH265889   0.971   4.305  13.899 -0.0715  0.6459 -0.4091
14825TIP3    H165890   0.882   4.294  13.866 -0.2361  0.5325  0.0656
14825TIP3    H265891   1.025   4.312  13.820 -0.4114  0.0059 -0.7117
14826TIP3   OH265892   5.588   1.174   4.990  0.2624 -0.3048 -0.0594
14826TIP3    H165893   5.497   1.188   5.018 -0.2665 -1.4285 -1.0923
14826TIP3    H265894   5.641   1.219   5.055 -0.9347 -1.4911  1.8241
14827TIP3   OH265895   4.573   2.447   4.866 -0.1208 -0.1656  0.0259
14827TIP3    H165896   4.630   2.446   4.788  1.2650  2.1500  0.9022
14827TIP3    H265897   4.528   2.363   4.863 -0.8866  0.1831 -3.8041
14828TIP3   OH265898   1.007   2.586  10.577 -0.0480 -0.1035 -0.2909
14828TIP3    H165899   1.092   2.590  10.622 -0.5985 -0.1731  0.7832
14828TIP3    H265900   0.993   2.493  10.560 -0.1062 -0.1393 -0.0593
14829TIP3   OH265901   6.652   4.273   4.757  0.7009  0.4228  0.0739
14829TIP3    H165902   6.665   4.311   4.671 -2.0012 -0.3997 -0.7937
14829TIP3    H265903   6.667   4.179   4.745  0.5426  0.3313  0.5529
14830TIP3   OH265904   2.237   5.946   0.540  0.2184 -0.1161  0.0294
14830TIP3    H165905   2.213   5.870   0.486  0.2014  0.4446 -0.7574
14830TIP3    H265906   2.333   5.944   0.543  0.2289  0.0042 -0.2391
14831TIP3   OH265907   4.615   6.176   6.145  0.6207  0.2209 -0.4100
14831TIP3    H165908   4.556   6.228   6.090  0.4269  0.7012  0.2395
14831TIP3    H265909   4.563   6.154   6.222  1.1301  0.2058 -0.0664
14832TIP3   OH265910   1.288   2.538  16.822  0.4528  0.3134 -0.1475
14832TIP3    H165911   1.308   2.620  16.866  2.3293 -1.0790  1.7950
14832TIP3    H265912   1.324   2.549  16.733 -0.7564  2.1083 -0.4691
14833TIP3   OH265913   0.995   5.045   4.994  0.0405  0.2228 -0.0517
14833TIP3    H165914   0.939   5.010   5.063  1.9630 -1.4351  0.7681
14833TIP3    H265915   1.084   5.038   5.029  1.2668 -1.9693 -3.1280
14834TIP3   OH265916   1.320   6.764  11.012  0.2387  0.0663 -0.2032
14834TIP3    H165917   1.309   6.704  10.938  0.8139  0.2196 -0.4182
14834TIP3    H265918   1.322   6.851  10.972 -0.9546  0.2694  0.1378
14835TIP3   OH265919   6.064   0.318  13.403  0.0185 -0.1317 -0.1757
14835TIP3    H165920   5.969   0.325  13.415 -0.0702 -1.2883 -0.0740
14835TIP3    H265921   6.098   0.300  13.490  0.5591  2.0961  0.1236
14836TIP3   OH265922   2.687   5.426   0.959  0.2710 -0.4878  0.6081
14836TIP3    H165923   2.622   5.477   1.006  1.2624  0.9907  0.4207
14836TIP3    H265924   2.671   5.445   0.867  2.0861  1.3807  0.6155
14837TIP3   OH265925   6.573   5.745   1.436 -0.1865  0.2649 -0.1966
14837TIP3    H165926   6.651   5.738   1.490  0.8354  1.4152 -1.4626
14837TIP3    H265927   6.536   5.831   1.458 -1.8743 -0.7800  1.3327
14838TIP3   OH265928   5.158   1.258   6.738  0.4810  0.4253 -0.1450
14838TIP3    H165929   5.075   1.305   6.733  0.7879  0.9360 -0.5412
14838TIP3    H265930   5.135   1.172   6.774 -0.1431  0.7395  0.2228
14839TIP3   OH265931   3.352   0.994   3.914 -0.0439  0.4849  0.1423
14839TIP3    H165932   3.266   1.036   3.922 -0.8037 -0.7952 -0.9331
14839TIP3    H265933   3.332   0.904   3.887  1.6692  0.3587 -0.8059
14840TIP3   OH265934   0.353   0.382  13.669 -0.3784 -0.5109  0.2709
14840TIP3    H165935   0.330   0.290  13.652 -0.1845 -0.2187 -1.8382
14840TIP3    H265936   0.333   0.427  13.587 -2.7366  1.8310  1.9696
14841TIP3   OH265937   0.345   6.376  11.954 -0.1945 -0.8502 -0.3498
14841TIP3    H165938   0.319   6.442  11.890 -2.5094 -0.2575  1.0948
14841TIP3    H265939   0.338   6.421  12.039  1.5382 -1.9860  0.4600
14842TIP3   OH265940   5.401   1.833   5.843 -0.6725  0.3577 -0.0143
14842TIP3    H165941   5.429   1.878   5.922  0.4946 -0.3735  0.0136
14842TIP3    H265942   5.460   1.758   5.836  0.6018  1.4769 -2.6350
14843TIP3   OH265943   4.177   0.829  12.155  0.1931 -0.0288 -0.0090
14843TIP3    H165944   4.245   0.762  12.163 -0.5894 -0.7353  0.9414
14843TIP3    H265945   4.206   0.898  12.215  1.2884  0.7886 -1.3997
14844TIP3   OH265946   1.458   3.179   5.422  0.4196  0.2056  0.1899
14844TIP3    H165947   1.508   3.132   5.489 -0.3708  0.3713  0.9105
14844TIP3    H265948   1.524   3.208   5.358  1.1368 -0.2612  0.7064
14845TIP3   OH265949   4.151   6.663  14.350  0.0280 -0.1717  0.4774
14845TIP3    H165950   4.246   6.651  14.344  0.1636  1.1417 -0.4908
14845TIP3    H265951   4.140   6.748  14.393 -0.6790  0.2686 -0.5433
14846TIP3   OH265952   0.946   5.081  16.798  0.3031  0.2944  0.5810
14846TIP3    H165953   1.039   5.083  16.820  0.6947 -1.9425 -0.5934
14846TIP3    H265954   0.925   4.988  16.790 -2.2790  0.6816  1.7039
14847TIP3   OH265955   2.068   3.073  13.526  0.1397  0.1730 -0.3582
14847TIP3    H165956   2.114   3.010  13.582  2.2291  1.5628 -0.3933
14847TIP3    H265957   2.041   3.021  13.450  0.4969 -0.9840  0.2727
14848TIP3   OH265958   5.491   0.449  10.705  0.5549 -0.0478 -0.6326
14848TIP3    H165959   5.466   0.539  10.725  0.3662  0.3294 -2.3915
14848TIP3    H265960   5.412   0.410  10.666 -0.2103 -1.8066  2.3177
14849TIP3   OH265961   4.067   2.266   0.586  0.0113  0.0026 -0.6289
14849TIP3    H165962   4.017   2.196   0.628  0.5268  0.6195  1.0718
14849TIP3    H265963   4.142   2.222   0.546 -1.0140 -0.7219 -1.8559
14850TIP3   OH265964   3.631   3.770  16.945 -0.3500  0.8703  0.3510
14850TIP3    H165965   3.637   3.774  16.849 -2.0978 -0.9006  0.1050
14850TIP3    H265966   3.656   3.680  16.967 -0.8212  0.9969  1.4654
14851TIP3   OH265967   0.371   3.327  14.643 -0.1712 -0.2297  0.4255
14851TIP3    H165968   0.465   3.314  14.627 -0.0224  2.5583 -1.8687
14851TIP3    H265969   0.361   3.422  14.646 -3.3371 -0.1894 -3.2853
14852TIP3   OH265970   4.637   6.524   2.864  0.3499  0.0954 -0.0679
14852TIP3    H165971   4.718   6.569   2.840  0.6015 -0.3386 -0.0454
14852TIP3    H265972   4.579   6.593   2.894  0.9516  0.3314  0.5764
14853TIP3   OH265973   0.534   1.959   4.208 -0.1799  0.2342 -0.3841
14853TIP3    H165974   0.443   1.976   4.230  0.6238  2.5947  1.6530
14853TIP3    H265975   0.569   2.045   4.183  1.8160 -0.2969  0.3722
14854TIP3   OH265976   0.243   4.447   4.814 -0.0009  0.0907  0.2956
14854TIP3    H165977   0.153   4.473   4.833 -0.0598 -1.2120  2.1190
14854TIP3    H265978   0.296   4.524   4.835 -0.5213  0.1575  1.4279
14855TIP3   OH265979   6.082   2.397   6.478 -0.0894 -0.0125 -0.2029
14855TIP3    H165980   6.137   2.442   6.543 -1.7663  3.2255 -0.8397
14855TIP3    H265981   6.048   2.320   6.525  1.2500  0.4704  1.6845
14856TIP3   OH265982   3.942   4.837   1.840  0.1149 -0.2162 -0.4618
14856TIP3    H165983   3.915   4.917   1.886  1.7616  0.7640 -1.1018
14856TIP3    H265984   4.033   4.825   1.865 -0.0549 -1.8038 -0.5422
14857TIP3   OH265985   0.914   5.273  11.200 -0.6071 -0.1367 -0.1234
14857TIP3    H165986   0.853   5.232  11.140 -1.2820  0.2123  0.3117
14857TIP3    H265987   0.863   5.291  11.278  0.3625 -0.9996  0.7488
14858TIP3   OH265988   4.682   0.338   4.721  0.5297 -0.7304  0.3068
14858TIP3    H165989   4.687   0.336   4.625 -0.9548 -0.8302  0.2054
14858TIP3    H265990   4.766   0.302   4.750  0.7232 -1.3699 -0.9585
14859TIP3   OH265991   6.528   3.388  15.134  0.1700  0.2248  0.1476
14859TIP3    H165992   6.558   3.307  15.176 -1.2225 -0.3811  0.0232
14859TIP3    H265993   6.448   3.364  15.089  0.2680  1.4626 -0.7452
14860TIP3   OH265994   0.775   0.609   5.653  0.3572 -0.3809 -0.1538
14860TIP3    H165995   0.741   0.675   5.592  1.0579 -0.5935 -0.7976
14860TIP3    H265996   0.792   0.532   5.598 -0.9215 -1.2896  0.6737
14861TIP3   OH265997   4.045   4.142   2.693 -0.0574 -0.0116 -0.1468
14861TIP3    H165998   4.126   4.090   2.700 -1.3465 -1.9953  1.1850
14861TIP3    H265999   4.071   4.230   2.719  1.4726 -0.8622  1.4697
14862TIP3   OH266000   6.310   5.659   4.607 -0.3010 -0.2522  0.2189
14862TIP3    H166001   6.241   5.712   4.649 -0.6916 -0.8457  0.3295
14862TIP3    H266002   6.262   5.591   4.560  0.2051 -0.5121  0.0829
14863TIP3   OH266003   2.729   5.426  13.233  0.6059 -0.3274 -0.0351
14863TIP3    H166004   2.675   5.370  13.289 -2.6030  0.9833 -1.5823
14863TIP3    H266005   2.723   5.513  13.272  2.8667 -0.3544  0.5277
14864TIP3   OH266006   2.811   0.712   5.034  0.2041  0.3398 -0.2442
14864TIP3    H166007   2.822   0.621   5.007 -1.5799  0.2058 -0.6731
14864TIP3    H266008   2.900   0.746   5.042  0.8936 -1.3202 -0.4746
14865TIP3   OH266009   4.355   0.906  13.208 -0.6801 -0.3420  0.2307
14865TIP3    H166010   4.285   0.909  13.143  0.5582  1.4192 -1.0907
14865TIP3    H266011   4.313   0.934  13.290 -1.8567 -0.8859 -0.1730
14866TIP3   OH266012   3.793   5.119   0.548 -0.2655 -0.3618  0.4384
14866TIP3    H166013   3.888   5.121   0.537 -0.4799 -1.1955 -2.2561
14866TIP3    H266014   3.762   5.203   0.515 -0.4933 -0.1574  1.1517
14867TIP3   OH266015   0.473   1.789  16.037  0.0339  0.1261  0.6381
14867TIP3    H166016   0.448   1.763  15.948 -0.4423  0.0019  0.8052
14867TIP3    H266017   0.504   1.709  16.078  0.9753  0.3290  0.3502
14868TIP3   OH266018   0.202   6.100  10.702  0.1412  0.0560 -0.0642
14868TIP3    H166019   0.297   6.091  10.690  0.1012  0.4553 -0.7054
14868TIP3    H266020   0.174   6.015  10.735  0.8280  0.1509  0.8285
14869TIP3   OH266021   5.575   6.707  11.437 -0.3449 -0.1797  0.5013
14869TIP3    H166022   5.591   6.613  11.442 -0.1967 -0.2161 -0.4818
14869TIP3    H266023   5.532   6.720  11.353  0.4996  0.7555  0.1956
14870TIP3   OH266024   0.929   2.608  11.157  1.2056  0.1757  0.0620
14870TIP3    H166025   0.994   2.605  11.227 -0.2680  0.8739  1.5265
14870TIP3    H266026   0.909   2.701  11.146  0.3469 -0.0329 -0.2453
14871TIP3   OH266027   4.084   1.299  12.307  0.3873 -0.5578 -0.4461
14871TIP3    H166028   4.154   1.275  12.367  1.1650 -2.1787 -1.9191
14871TIP3    H266029   4.113   1.382  12.268  1.1109 -0.8210 -0.4761
14872TIP3   OH266030   5.073   1.946   5.384 -0.3597  0.0334  0.0961
14872TIP3    H166031   5.101   1.916   5.470 -0.7818  1.2072  0.6596
14872TIP3    H266032   5.035   2.033   5.399 -0.4624  0.2558 -1.2661
14873TIP3   OH266033   3.648   4.758  13.533  0.2087 -0.0817  0.0625
14873TIP3    H166034   3.588   4.760  13.459 -0.3090  1.0269  0.4737
14873TIP3    H266035   3.619   4.831  13.588  1.2259 -0.2451  0.8400
14874TIP3   OH266036   5.682   6.782  11.055  0.1658 -0.6635 -0.9351
14874TIP3    H166037   5.654   6.721  11.124 -1.6678  0.9885 -0.1374
14874TIP3    H266038   5.699   6.726  10.979 -0.9256 -2.2158 -0.0825
14875TIP3   OH266039   0.014   4.104  13.578  0.6521 -0.2440  0.3575
14875TIP3    H166040   0.054   4.056  13.506  0.5494 -0.9034  0.7373
14875TIP3    H266041  -0.033   4.176  13.535  2.0806  0.4411 -0.1068
14876TIP3   OH266042   3.572   1.681   5.715  0.0094  0.0798  0.4722
14876TIP3    H166043   3.607   1.723   5.794 -3.5050 -0.9606  2.7862
14876TIP3    H266044   3.495   1.734   5.692 -2.0541 -2.4875  0.9629
14877TIP3   OH266045   3.109   5.104  11.171  0.2484  0.4960  0.3424
14877TIP3    H166046   3.145   5.104  11.082  0.5085  2.6346  0.4034
14877TIP3    H266047   3.177   5.063  11.224 -0.0159 -1.0383 -0.4468
14878TIP3   OH266048   0.775   6.063  15.202 -0.1846 -0.2682  0.1536
14878TIP3    H166049   0.859   6.067  15.157 -0.4661  4.3487 -0.4109
14878TIP3    H266050   0.711   6.046  15.132 -0.1139  1.2340 -0.3022
14879TIP3   OH266051   1.928   6.535  14.810 -0.4231 -0.0934 -0.1563
14879TIP3    H166052   1.873   6.590  14.867 -1.0149  1.6212 -2.2521
14879TIP3    H266053   2.001   6.592  14.784  0.2008 -1.0535 -0.5979
14880TIP3   OH266054   0.740   6.390   2.544  0.1351 -0.2216 -0.2045
14880TIP3    H166055   0.649   6.413   2.528 -0.4950 -2.2847  0.1116
14880TIP3    H266056   0.767   6.447   2.616 -1.3266 -0.4645  0.5728
14881TIP3   OH266057   5.376   4.017   0.169  0.1503  0.4178  0.2577
14881TIP3    H166058   5.388   3.982   0.080  0.7344 -1.0390  0.8693
14881TIP3    H266059   5.381   3.939   0.225 -4.0653  0.6571  1.3040
14882TIP3   OH266060   5.278   5.975   0.490  0.4576  0.2052  0.0732
14882TIP3    H166061   5.232   6.007   0.567  0.7696 -0.0043  0.3500
14882TIP3    H266062   5.324   6.052   0.455  0.6748  0.2024  0.3542
14883TIP3   OH266063   6.699   5.554   4.888  0.0843  0.1080  0.8275
14883TIP3    H166064   6.604   5.546   4.873 -0.1546  2.4680  0.7440
14883TIP3    H266065   6.707   5.574   4.981  0.2792  2.3259  0.3743
14884TIP3   OH266066   4.887   5.740   4.271  0.5148  0.4107  0.2675
14884TIP3    H166067   4.931   5.755   4.354  0.8825  2.4904 -0.2450
14884TIP3    H266068   4.954   5.701   4.214 -0.0096 -1.9601  1.1721
14885TIP3   OH266069   2.426   3.763  16.677 -0.2121 -0.5288  0.2595
14885TIP3    H166070   2.469   3.774  16.762 -1.1797 -0.7401  0.7928
14885TIP3    H266071   2.335   3.788  16.693 -0.0567  1.0962 -1.1366
14886TIP3   OH266072   6.625   0.132  10.149  0.6946  0.0488 -0.4858
14886TIP3    H166073   6.681   0.096  10.217 -0.1777 -1.3362 -0.4663
14886TIP3    H266074   6.538   0.136  10.189  0.4630  0.6411 -1.0352
14887TIP3   OH266075   3.664   1.260  15.554 -0.7431  0.6130 -0.2516
14887TIP3    H166076   3.595   1.317  15.588  0.0355  2.5676 -1.7246
14887TIP3    H266077   3.740   1.319  15.544  0.6147 -1.0784 -0.3278
14888TIP3   OH266078   1.309   2.304  12.102  0.0058 -0.1449  0.1425
14888TIP3    H166079   1.246   2.368  12.071  1.0282  0.6640 -0.3145
14888TIP3    H266080   1.392   2.331  12.064  1.0552  0.0471  2.4325
14889TIP3   OH266081   3.050   2.992  14.173  0.4343 -0.2713 -0.6835
14889TIP3    H166082   3.124   3.043  14.208 -0.5642  1.4519 -0.9562
14889TIP3    H266083   3.027   3.037  14.091 -0.5893 -1.0848 -0.8616
14890TIP3   OH266084   1.595   6.362  13.827 -0.1725  0.7787  0.3539
14890TIP3    H166085   1.606   6.340  13.919 -1.3221  0.0469  0.3375
14890TIP3    H266086   1.508   6.401  13.821 -1.3806 -1.8307 -0.8186
14891TIP3   OH266087   0.035   0.952  13.603 -0.3687 -0.0633  0.0536
14891TIP3    H166088   0.013   1.035  13.646 -0.9316  0.3380 -0.9665
14891TIP3    H266089   0.130   0.947  13.606 -0.4001 -0.0316  1.3048
14892TIP3   OH266090   0.528   1.056   5.977 -0.4886  0.3238 -0.0187
14892TIP3    H166091   0.484   0.988   6.028  0.7418 -1.0374 -0.7091
14892TIP3    H266092   0.458   1.095   5.925 -2.1140  2.8195  3.6324
14893TIP3   OH266093   0.516   4.694  11.658  0.1873 -0.0020 -0.0439
14893TIP3    H166094   0.441   4.641  11.685 -0.3435  0.7018 -0.0887
14893TIP3    H266095   0.564   4.712  11.739  0.7993 -1.1735 -0.1323
14894TIP3   OH266096   3.142   2.085  16.892  0.3864  0.0722  0.6223
14894TIP3    H166097   3.162   2.175  16.869 -0.4484 -0.2905 -1.7264
14894TIP3    H266098   3.052   2.087  16.924 -0.0167 -0.0472 -0.4590
14895TIP3   OH266099   3.355   3.511   5.708  0.7610  0.0530  0.0331
14895TIP3    H166100   3.399   3.437   5.752  0.5722  0.1727  0.4293
14895TIP3    H266101   3.367   3.584   5.768  1.6807  0.5650 -0.7449
14896TIP3   OH266102   5.280   3.050  14.819  0.3110 -0.0055  0.4912
14896TIP3    H166103   5.283   2.996  14.740 -0.8696 -1.3699  1.3110
14896TIP3    H266104   5.204   3.107  14.806  0.5445  0.2702  0.3383
14897TIP3   OH266105   2.823   5.292  14.005  0.0631 -0.5433  0.8803
14897TIP3    H166106   2.768   5.341  14.066  1.1150  0.5345  1.0137
14897TIP3    H266107   2.795   5.320  13.918 -1.8514 -2.5327  0.7796
14898TIP3   OH266108   5.936   1.218   2.553  0.4018 -0.2305  0.5095
14898TIP3    H166109   5.939   1.123   2.541 -2.9901 -0.8463  3.0086
14898TIP3    H266110   5.986   1.253   2.480 -1.2232 -3.8041 -2.6403
14899TIP3   OH266111   0.603   4.159  17.136  0.2282 -0.2576  0.1078
14899TIP3    H166112   0.678   4.217  17.130  0.5034 -0.4992  1.0864
14899TIP3    H266113   0.626   4.096  17.204 -0.2984 -1.1721 -0.5224
14900TIP3   OH266114   4.633   0.598   2.892 -0.1152  0.2777 -0.4682
14900TIP3    H166115   4.559   0.569   2.946  0.3753 -3.1679 -1.3880
14900TIP3    H266116   4.709   0.591   2.950 -0.0465  0.2136 -0.5669
14901TIP3   OH266117   5.936   5.274   5.262  0.4846  0.3722  0.0547
14901TIP3    H166118   5.900   5.186   5.255  0.5105  0.2749  0.9465
14901TIP3    H266119   5.994   5.283   5.186 -0.6075  0.1561 -0.8163
14902TIP3   OH266120   6.191   5.864  12.856 -0.3561 -0.2010 -0.1667
14902TIP3    H166121   6.158   5.942  12.901 -0.7974  0.4650 -1.5654
14902TIP3    H266122   6.284   5.862  12.876  0.0506  1.7550 -1.5411
14903TIP3   OH266123   0.896   0.803   4.187 -0.6271 -0.8115 -0.2221
14903TIP3    H166124   0.940   0.867   4.243 -1.1426  1.0662 -1.8258
14903TIP3    H266125   0.898   0.722   4.237  0.6763  0.2778  1.6327
14904TIP3   OH266126   4.919   0.843  11.389 -0.1643 -0.5092 -0.0638
14904TIP3    H166127   4.925   0.936  11.366 -0.4963  0.0203  1.8134
14904TIP3    H266128   4.954   0.797  11.313  1.8991  1.2374 -0.2679
14905TIP3   OH266129   1.797   1.091   2.547 -0.3101 -0.0304  0.7393
14905TIP3    H166130   1.793   1.019   2.610 -1.7783 -0.3596  0.3281
14905TIP3    H266131   1.748   1.058   2.471  3.7097 -0.7919 -1.8373
14906TIP3   OH266132   4.184   3.418  13.753  0.7583  0.2121  0.6464
14906TIP3    H166133   4.108   3.363  13.733  0.7685 -0.1303  1.5012
14906TIP3    H266134   4.248   3.357  13.790  0.4706  0.8986  2.3793
14907TIP3   OH266135   3.489   2.016  12.445  0.4945 -0.1102  0.3713
14907TIP3    H166136   3.396   1.992  12.447  0.1401  0.8150 -1.9724
14907TIP3    H266137   3.532   1.942  12.401  0.4931  0.4336 -0.5655
14908TIP3   OH266138   6.700   0.396  11.197 -0.6343  0.1037 -0.5246
14908TIP3    H166139   6.718   0.371  11.287 -2.5854  0.9572  0.1550
14908TIP3    H266140   6.711   0.491  11.195 -3.1941  0.4665 -0.4453
14909TIP3   OH266141   3.138   2.280  14.417  0.1939  0.0449  0.2195
14909TIP3    H166142   3.150   2.272  14.511  0.5927 -1.1871  0.0823
14909TIP3    H266143   3.196   2.352  14.391  1.7780 -1.0342  0.6189
14910TIP3   OH266144   5.762   6.281  10.860 -0.3356 -0.0491 -0.2389
14910TIP3    H166145   5.820   6.206  10.846 -2.0386 -1.1849 -1.7361
14910TIP3    H266146   5.676   6.242  10.875 -1.8709  1.4816 -3.8086
14911TIP3   OH266147   4.875   0.732   2.243  0.3237 -0.1711 -0.6278
14911TIP3    H166148   4.961   0.766   2.267  0.1451 -0.2416  0.1399
14911TIP3    H266149   4.838   0.699   2.325 -1.1370  1.3990 -0.5945
14912TIP3   OH266150   6.779   6.475  15.743 -0.1648 -0.2379  0.5033
14912TIP3    H166151   6.736   6.561  15.748 -1.2263 -0.7659  0.8170
14912TIP3    H266152   6.827   6.468  15.826  0.6379  0.4027  0.1064
14913TIP3   OH266153   2.106   4.772  16.063  0.0774 -0.5888 -0.6190
14913TIP3    H166154   2.087   4.863  16.040 -0.9299  0.0837  2.4028
14913TIP3    H266155   2.140   4.733  15.982  1.8845  2.8099 -1.7002
14914TIP3   OH266156   1.401   2.098  15.723  0.3767  0.2717 -0.1303
14914TIP3    H166157   1.405   2.022  15.779  1.1363 -1.0474 -1.8747
14914TIP3    H266158   1.307   2.115  15.711  0.1617 -1.2531 -0.7868
14915TIP3   OH266159   4.296   6.577  14.083  0.8377  0.1526  0.0535
14915TIP3    H166160   4.272   6.493  14.122 -0.2207  0.1779 -0.5065
14915TIP3    H266161   4.328   6.630  14.157  1.6923 -0.7907  0.3792
14916TIP3   OH266162   0.814   4.938   2.191  0.0871 -0.5699  0.1678
14916TIP3    H166163   0.751   4.926   2.263  0.4579  0.7917  0.7420
14916TIP3    H266164   0.762   4.978   2.122 -0.2744 -1.8976 -0.3685
14917TIP3   OH266165   5.615   3.167   3.627  0.5690 -0.4864  0.0301
14917TIP3    H166166   5.521   3.168   3.643  0.6219 -0.5768  0.3415
14917TIP3    H266167   5.651   3.232   3.687  0.6043  0.2105 -0.7370
14918TIP3   OH266168   3.409   3.549   2.791  0.3776  0.0493  0.0928
14918TIP3    H166169   3.353   3.613   2.746 -0.4136 -0.4715  0.3196
14918TIP3    H266170   3.365   3.465   2.779  1.2561 -0.4128  0.0556
14919TIP3   OH266171   4.130   6.484  12.033 -0.0476 -0.6367  0.3838
14919TIP3    H166172   4.150   6.453  11.945  0.7901 -2.5051  1.1658
14919TIP3    H266173   4.037   6.504  12.031 -0.2279 -1.4991 -0.7006
14920TIP3   OH266174   5.953   1.289  15.691 -0.1696 -0.2929 -0.7501
14920TIP3    H166175   5.930   1.375  15.727 -1.5969 -0.1877 -1.8098
14920TIP3    H266176   5.899   1.227  15.740 -0.3692 -0.4051 -1.1102
14921TIP3   OH266177   5.446   2.171   1.669 -0.5069  0.3150  0.1397
14921TIP3    H166178   5.459   2.242   1.605  0.0512 -0.9823 -1.2387
14921TIP3    H266179   5.352   2.173   1.687 -0.3726  1.9572  0.8203
14922TIP3   OH266180   6.296   4.953   5.520 -0.3898 -0.3111 -0.1833
14922TIP3    H166181   6.237   5.024   5.492 -0.6556 -0.8988 -1.1844
14922TIP3    H266182   6.265   4.877   5.471  0.4330 -0.9212  0.2347
14923TIP3   OH266183   1.213   3.951  10.368 -0.4957 -0.2659  0.4664
14923TIP3    H166184   1.167   3.958  10.451 -0.7088  3.1229  0.1865
14923TIP3    H266185   1.302   3.978  10.387 -0.3881 -0.0772 -0.2592
14924TIP3   OH266186   2.972   5.835  12.470 -0.3906 -0.1221  0.6514
14924TIP3    H166187   2.956   5.748  12.507  1.7469 -0.1445  1.6852
14924TIP3    H266188   3.054   5.825  12.422 -0.2858  1.2467  0.5144
14925TIP3   OH266189   0.885   1.182  15.801  0.0196  0.2311  0.3696
14925TIP3    H166190   0.903   1.099  15.756  0.9389  1.6535 -2.1261
14925TIP3    H266191   0.967   1.205  15.844 -0.8456 -1.1027  2.9458
14926TIP3   OH266192   3.411   5.880   4.682  0.0128 -0.5119  0.0292
14926TIP3    H166193   3.404   5.811   4.748 -1.3660  0.8736  1.3797
14926TIP3    H266194   3.346   5.945   4.707  1.5721  1.5341 -0.9402
14927TIP3   OH266195   3.805   6.520   5.344  0.1236  0.5837  0.3857
14927TIP3    H166196   3.858   6.485   5.416  0.7732  0.8757  0.0647
14927TIP3    H266197   3.715   6.505   5.370  0.2479  2.5346  2.2433
14928TIP3   OH266198   0.007   3.167   2.986  0.3681  0.2936 -0.1793
14928TIP3    H166199   0.001   3.251   3.031  1.9521 -0.1913  1.0497
14928TIP3    H266200  -0.076   3.123   3.007  0.5229  0.6156  1.2311
14929TIP3   OH266201   4.758   3.143   2.429 -0.3679  0.0549 -0.0957
14929TIP3    H166202   4.728   3.089   2.502 -2.0683 -0.9879 -1.4801
14929TIP3    H266203   4.826   3.091   2.386 -1.1481 -0.4784 -0.7115
14930TIP3   OH266204   5.030   5.514   1.421  1.0606 -0.2621  0.6416
14930TIP3    H166205   5.022   5.531   1.514  0.8266 -1.1378  0.7864
14930TIP3    H266206   4.970   5.576   1.380  0.9408 -0.0792  1.0886
14931TIP3   OH266207   2.026   4.390  14.474  0.0567  0.2210 -0.6689
14931TIP3    H166208   2.100   4.447  14.497 -0.2821  0.3184  0.2365
14931TIP3    H266209   2.000   4.420  14.387  0.7270  0.5634 -0.7625
14932TIP3   OH266210   5.550   0.475  15.216  0.4554 -0.7222 -0.1177
14932TIP3    H166211   5.536   0.551  15.273  1.1922 -1.5326  1.1957
14932TIP3    H266212   5.582   0.407  15.275 -1.1581 -2.3836 -1.0659
14933TIP3   OH266213   5.087   6.681  16.467 -0.1169 -0.3908  0.1507
14933TIP3    H166214   5.109   6.642  16.383  1.8571 -0.1324  0.4992
14933TIP3    H266215   5.036   6.614  16.513  0.9142 -1.5096 -0.3005
14934TIP3   OH266216   1.924   5.459   3.729 -0.4905 -1.0966  0.6997
14934TIP3    H166217   1.952   5.388   3.787 -1.9684 -3.1314 -0.9016
14934TIP3    H266218   1.957   5.432   3.643 -1.2546  0.0960  0.0224
14935TIP3   OH266219   3.241   1.444   3.982  0.3582  0.6931  0.3687
14935TIP3    H166220   3.330   1.476   3.966  1.1194 -0.9633  1.0546
14935TIP3    H266221   3.244   1.408   4.071 -0.8885  0.2528  0.2483
14936TIP3   OH266222   6.605   0.109   4.318  0.7737  0.5352 -0.3475
14936TIP3    H166223   6.686   0.154   4.342  0.4411  0.2552  1.4746
14936TIP3    H266224   6.535   0.160   4.359  0.3596 -1.3432  1.4894
14937TIP3   OH266225   2.733   1.489   1.438 -0.1009  0.0283 -0.3251
14937TIP3    H166226   2.753   1.443   1.356  0.3744 -2.6673  1.2071
14937TIP3    H266227   2.781   1.572   1.430  1.3055 -0.8772 -2.0901
14938TIP3   OH266228   4.410   5.056  12.082  0.0355  0.2668  0.2360
14938TIP3    H166229   4.357   4.976  12.084  0.7303 -0.2206  2.4435
14938TIP3    H266230   4.356   5.121  12.127  1.2608 -0.3047  2.7508
14939TIP3   OH266231   2.725   1.056   3.403  0.2539  0.1296  0.2213
14939TIP3    H166232   2.793   1.046   3.336  1.8372 -0.7495  1.8826
14939TIP3    H266233   2.715   0.968   3.439 -1.3413  0.3758  0.4380
14940TIP3   OH266234   5.863   4.445  14.271  0.3592 -0.4363 -0.4768
14940TIP3    H166235   5.808   4.454  14.349  0.9429 -2.0627  0.1507
14940TIP3    H266236   5.909   4.363  14.283  3.2891  1.0301 -0.8021
14941TIP3   OH266237   2.687   6.475   5.609 -0.3812 -0.0497  0.0201
14941TIP3    H166238   2.695   6.439   5.697  2.5280  0.7174  0.1438
14941TIP3    H266239   2.744   6.551   5.608 -1.0317  0.4954 -2.2961
14942TIP3   OH266240   3.475   0.270  16.318 -0.2584 -0.0528 -0.1315
14942TIP3    H166241   3.554   0.222  16.342 -1.3783 -1.3026  1.2620
14942TIP3    H266242   3.413   0.252  16.389 -2.6270 -1.1513 -2.3100
14943TIP3   OH266243   6.510   3.351  14.791 -0.3781 -0.3984 -0.0161
14943TIP3    H166244   6.438   3.354  14.854 -0.3683 -1.1759  0.0481
14943TIP3    H266245   6.495   3.426  14.734  0.3019  1.0352  1.6264
14944TIP3   OH266246   6.446   2.228  11.214 -0.3785  0.2696  0.1149
14944TIP3    H166247   6.398   2.150  11.240  0.3048  0.5062  2.3213
14944TIP3    H266248   6.476   2.266  11.297  1.5408  1.4262 -1.0437
14945TIP3   OH266249   5.598   1.176   0.744 -0.2628  0.1859 -1.1171
14945TIP3    H166250   5.611   1.189   0.837  2.1119  0.3454 -1.4063
14945TIP3    H266251   5.553   1.091   0.737  1.2245 -0.7498  0.1362
14946TIP3   OH266252   3.484   1.465  13.815 -0.3017  0.7502  0.0412
14946TIP3    H166253   3.530   1.522  13.876  1.3509  0.3169 -0.7508
14946TIP3    H266254   3.438   1.524  13.755 -2.0238  1.1831  1.6848
14947TIP3   OH266255   6.187   4.613   1.218 -0.1409 -0.4154 -0.4305
14947TIP3    H166256   6.219   4.529   1.187  0.7399  0.4116 -1.8837
14947TIP3    H266257   6.107   4.630   1.167  0.8133  0.5296 -1.6892
14948TIP3   OH266258   5.879   1.373   3.792 -0.2453 -0.0437 -0.0093
14948TIP3    H166259   5.845   1.438   3.730  0.2588  0.4727  0.2452
14948TIP3    H266260   5.968   1.403   3.812 -0.4126 -0.1781  0.9948
14949TIP3   OH266261   5.252   3.254   3.278  0.5823 -0.0250  0.2283
14949TIP3    H166262   5.256   3.266   3.183 -0.3519  3.0663  0.4704
14949TIP3    H266263   5.161   3.230   3.295  0.5428  0.2679  0.4204
14950TIP3   OH266264   5.294   5.435   0.777  0.2363 -0.2544  0.0765
14950TIP3    H166265   5.248   5.509   0.739  0.2448 -1.4903 -2.5143
14950TIP3    H266266   5.246   5.358   0.747  1.9945 -1.4264  0.1040
14951TIP3   OH266267   2.113   1.152   5.345  0.7004 -0.7622 -0.4195
14951TIP3    H166268   2.117   1.230   5.290 -0.8228 -1.2172 -1.2200
14951TIP3    H266269   2.198   1.109   5.332  1.6189  0.8009  0.1475
14952TIP3   OH266270   6.346   5.894  11.667 -0.3684  0.5990  0.1061
14952TIP3    H166271   6.287   5.954  11.622 -2.1436 -0.9850  0.1892
14952TIP3    H266272   6.394   5.949  11.729 -0.7928  2.1434 -0.8842
14953TIP3   OH266273   3.142   5.248   4.269  0.0451  0.1028  0.4065
14953TIP3    H166274   3.184   5.328   4.238  0.8341 -0.9960 -1.5277
14953TIP3    H266275   3.102   5.210   4.191 -2.8671  0.0423  1.8095
14954TIP3   OH266276   6.570   6.436  10.502 -0.4693 -0.2945 -0.4533
14954TIP3    H166277   6.580   6.397  10.589  2.2265 -0.0359 -0.5751
14954TIP3    H266278   6.512   6.511  10.516  2.0340  1.3966  1.7477
14955TIP3   OH266279   1.765   3.988  16.213 -0.0552 -0.3632  0.4725
14955TIP3    H166280   1.752   3.950  16.126 -0.7891 -0.0167  0.4250
14955TIP3    H266281   1.852   4.027  16.209 -0.3326  0.2069 -0.3276
14956TIP3   OH266282   3.908   4.773   0.411 -0.3104 -0.4524 -0.2728
14956TIP3    H166283   3.929   4.692   0.365  2.5268 -1.8455  3.0078
14956TIP3    H266284   3.988   4.825   0.406 -1.2750  1.1097 -0.2492
14957TIP3   OH266285   1.344   3.496  12.547  0.3600 -0.1231  0.3006
14957TIP3    H166286   1.326   3.530  12.635  2.0644  0.3125  0.5268
14957TIP3    H266287   1.412   3.430  12.562  1.3691  0.6425 -0.7852
14958TIP3   OH266288   6.523   5.530   3.651  0.1341  0.7694  0.1840
14958TIP3    H166289   6.550   5.587   3.579  0.8284  2.5057  1.7451
14958TIP3    H266290   6.470   5.586   3.708 -0.2757 -0.5093  1.1205
14959TIP3   OH266291   1.999   4.546  10.574 -0.6844  0.4373  0.7145
14959TIP3    H166292   2.079   4.526  10.622 -0.3751 -3.1991 -1.0014
14959TIP3    H266293   2.024   4.615  10.512  0.6554  0.4469  1.2346
14960TIP3   OH266294   5.396   0.414   2.361  0.0674  0.4358  0.3107
14960TIP3    H166295   5.399   0.349   2.291  0.2035  2.0153 -1.2388
14960TIP3    H266296   5.303   0.422   2.383 -0.0789  0.5857 -0.3540
14961TIP3   OH266297   6.071   1.149   0.786  0.4342 -0.0571  0.4895
14961TIP3    H166298   6.049   1.067   0.742  0.1947  0.3437 -0.1421
14961TIP3    H266299   6.104   1.122   0.872 -0.2047 -0.7842  0.5138
14962TIP3   OH266300   2.870   6.649   0.561 -0.3194  0.4739 -0.6061
14962TIP3    H166301   2.951   6.698   0.574 -1.0739  1.4866  0.4784
14962TIP3    H266302   2.844   6.669   0.471  0.1850  0.8194 -0.6804
14963TIP3   OH266303   3.440   2.926   0.504 -0.0364 -0.2821  0.2272
14963TIP3    H166304   3.507   2.994   0.511 -1.4451  1.2177 -0.1107
14963TIP3    H266305   3.489   2.845   0.495  1.8602  1.0292 -3.3991
14964TIP3   OH266306   3.934   3.544  16.977  0.0413  0.1040 -0.2731
14964TIP3    H166307   3.956   3.625  16.930  1.0749 -0.4980 -0.8672
14964TIP3    H266308   3.916   3.572  17.067  1.2720  0.8872 -0.2547
14965TIP3   OH266309   5.474   1.053   4.230  0.0870 -0.3956 -1.1295
14965TIP3    H166310   5.416   1.094   4.166 -0.8786 -1.8237 -1.2333
14965TIP3    H266311   5.482   0.963   4.199  2.1364 -0.3144 -0.9330
14966TIP3   OH266312   0.254   1.737  12.556 -0.0539 -0.1269  0.4894
14966TIP3    H166313   0.201   1.771  12.628 -0.6043 -0.6079  0.3177
14966TIP3    H266314   0.324   1.688  12.598  0.3049  0.5598  0.7186
14967TIP3   OH266315   6.011   6.152   3.558  0.0589 -0.4588 -0.0293
14967TIP3    H166316   5.969   6.207   3.493  1.9695 -1.5427 -2.3657
14967TIP3    H266317   5.940   6.102   3.598 -1.1649 -0.0973 -1.6664
14968TIP3   OH266318   4.081   3.265  13.410  0.2594 -0.2704  0.0672
14968TIP3    H166319   4.175   3.248  13.404  0.2374 -0.7254  0.9537
14968TIP3    H266320   4.052   3.267  13.318  1.1004 -0.2829 -0.2083
14969TIP3   OH266321   4.792   3.840  14.549 -0.2776 -0.7934 -0.1772
14969TIP3    H166322   4.702   3.860  14.524 -0.6663 -1.3158  0.7346
14969TIP3    H266323   4.788   3.826  14.644  1.0807  0.8720  0.1802
14970TIP3   OH266324   0.132   2.236  12.013  0.0770 -0.1597  0.1185
14970TIP3    H166325   0.078   2.308  11.980 -0.6464 -0.8877 -0.3089
14970TIP3    H266326   0.113   2.234  12.107 -0.7028 -0.4489 -0.0341
14971TIP3   OH266327   2.649   1.021  17.044 -0.3735 -0.0793  0.3472
14971TIP3    H166328   2.568   0.972  17.031  0.5154 -1.4962 -0.0956
14971TIP3    H266329   2.711   0.983  16.981  0.5623  1.1636  0.4663
14972TIP3   OH266330   2.853   6.549  15.235  0.1711  0.0917  0.2332
14972TIP3    H166331   2.890   6.466  15.204 -0.1345 -0.1296  0.4530
14972TIP3    H266332   2.811   6.527  15.318  0.3143  0.5230  0.4229
14973TIP3   OH266333   3.991   1.929   4.305  0.2240  0.0679 -0.4896
14973TIP3    H166334   3.953   1.958   4.388 -0.7960 -0.5145 -0.7410
14973TIP3    H266335   3.950   1.985   4.239  0.1531 -0.2483 -0.7164
14974TIP3   OH266336   3.976   6.569  13.235  0.0678 -0.3099  0.1864
14974TIP3    H166337   3.939   6.636  13.293 -3.0800 -1.2545 -0.5311
14974TIP3    H266338   3.972   6.488  13.286  1.7194 -0.3730  0.2538
14975TIP3   OH266339   2.012   1.873   2.156 -0.1037  0.3618 -0.1465
14975TIP3    H166340   1.924   1.911   2.165 -0.2492  0.5223 -1.8746
14975TIP3    H266341   2.004   1.812   2.082  1.5034  1.2354 -1.0883
14976TIP3   OH266342   4.448   3.524   3.764  0.0067  0.8998 -0.0230
14976TIP3    H166343   4.441   3.536   3.669  1.3147  1.8331 -0.0147
14976TIP3    H266344   4.384   3.455   3.784 -1.9099  2.2501 -1.2429
14977TIP3   OH266345   6.318   6.173  13.848  0.2607  0.3680 -0.6501
14977TIP3    H166346   6.296   6.122  13.926 -1.1273 -1.4972 -2.1431
14977TIP3    H266347   6.249   6.239  13.842  0.3759  0.5206 -0.2969
14978TIP3   OH266348   3.582   5.767   0.443  0.4288  1.0016 -0.5537
14978TIP3    H166349   3.599   5.789   0.535  0.5780 -1.1605 -0.0071
14978TIP3    H266350   3.650   5.814   0.394 -0.0351  2.6774  0.3525
14979TIP3   OH266351   5.050   2.533   0.382  0.1191 -0.1943  0.3889
14979TIP3    H166352   5.010   2.608   0.426  1.9109  0.1671  1.4886
14979TIP3    H266353   4.976   2.478   0.357 -1.0354  0.0342  3.0439
14980TIP3   OH266354   5.158   1.845  15.307  0.1880 -0.0398 -0.7069
14980TIP3    H166355   5.170   1.935  15.337 -1.4428 -0.0737  0.2014
14980TIP3    H266356   5.063   1.832  15.310  0.1658 -1.0431 -3.0991
14981TIP3   OH266357   1.631   2.165   3.744  0.4027  0.0828 -0.2209
14981TIP3    H166358   1.543   2.129   3.747  0.4095  0.1079  0.5292
14981TIP3    H266359   1.688   2.092   3.767  0.7282 -0.3361 -2.1689
14982TIP3   OH266360   1.115   6.087   3.227 -0.7290  0.4869  0.2417
14982TIP3    H166361   1.161   6.168   3.246  1.3817 -0.5243 -0.2586
14982TIP3    H266362   1.146   6.025   3.294 -0.0645 -0.6556 -1.0695
14983TIP3   OH266363   2.620   3.055   3.180 -0.4708 -0.5079 -0.4788
14983TIP3    H166364   2.560   3.041   3.107 -0.2484 -1.1063 -0.5549
14983TIP3    H266365   2.591   3.136   3.220 -1.0807 -0.5861 -0.7558
14984TIP3   OH266366   4.107   4.842   4.532 -0.5993  0.0960 -0.4985
14984TIP3    H166367   4.153   4.783   4.592 -2.2366  0.2398  0.9883
14984TIP3    H266368   4.138   4.816   4.445  2.0280  0.0343  0.3610
14985TIP3   OH266369   3.490   2.489  15.894 -0.1004  0.3968 -0.4336
14985TIP3    H166370   3.559   2.554  15.882  1.3177 -1.0583 -0.3729
14985TIP3    H266371   3.482   2.445  15.810 -0.0528 -0.3135 -0.0741
14986TIP3   OH266372   0.485   6.147   0.985  0.1608 -0.3938  0.0804
14986TIP3    H166373   0.445   6.117   0.903  1.1831 -0.5556 -0.3730
14986TIP3    H266374   0.558   6.203   0.958 -0.5234  0.9459  0.9037
14987TIP3   OH266375   6.760   3.164  11.719 -0.6682  0.2183 -0.4878
14987TIP3    H166376   6.669   3.152  11.691 -0.6762  1.0855 -0.8714
14987TIP3    H266377   6.803   3.205  11.644  0.3097 -1.1427 -0.7046
14988TIP3   OH266378   2.756   0.619   2.666  0.0734  0.0802 -0.6443
14988TIP3    H166379   2.755   0.621   2.761  4.0783 -0.3271 -0.4201
14988TIP3    H266380   2.744   0.710   2.639  1.0477  0.5145  0.3610
14989TIP3   OH266381   3.442   2.286   1.003 -0.2163  0.1554  0.4627
14989TIP3    H166382   3.429   2.247   0.917 -2.0272  1.5884  0.0183
14989TIP3    H266383   3.364   2.260   1.053 -0.2837  1.1916  0.9126
14990TIP3   OH266384   0.602   5.933   4.906  0.1526 -0.5386  0.6498
14990TIP3    H166385   0.508   5.913   4.908 -0.5283  2.3193  0.9917
14990TIP3    H266386   0.634   5.886   4.829 -1.8087 -0.6151 -0.1868
14991TIP3   OH266387   1.339   1.144  14.994  0.1808 -0.0098 -0.6397
14991TIP3    H166388   1.409   1.087  15.026  0.7753  0.0369 -1.8148
14991TIP3    H266389   1.258   1.104  15.027  0.7807  0.8351  2.1573
14992TIP3   OH266390   0.220   1.551   5.694 -0.3862 -0.2035 -0.0329
14992TIP3    H166391   0.221   1.514   5.606 -1.6676  0.2195 -0.2362
14992TIP3    H266392   0.281   1.625   5.690 -0.7588  0.0683 -0.6709
14993TIP3   OH266393   4.137   1.156  13.420  0.3601  0.9439  0.4244
14993TIP3    H166394   4.050   1.183  13.392  0.4074 -1.5956 -2.9667
14993TIP3    H266395   4.184   1.237  13.437 -2.3136  2.4124  1.3531
14994TIP3   OH266396   0.760   5.581   2.194  0.3115 -0.3326 -0.2368
14994TIP3    H166397   0.716   5.623   2.268  0.3377 -1.6476  0.5634
14994TIP3    H266398   0.756   5.645   2.124  1.0959  1.3314  1.1718
14995TIP3   OH266399   6.298   0.433  11.794  0.4187  0.3439 -0.4592
14995TIP3    H166400   6.372   0.407  11.740  3.1191  0.2698  2.9521
14995TIP3    H266401   6.309   0.528  11.805  0.4455  0.2307  0.6067
14996TIP3   OH266402   6.567   0.813   4.586 -0.4147 -0.3497  0.2666
14996TIP3    H166403   6.550   0.754   4.513  2.7031 -0.8810 -0.1828
14996TIP3    H266404   6.544   0.763   4.664 -3.0320 -0.0595 -0.2395
14997TIP3   OH266405   6.555   2.964   1.286  0.1413  0.0987 -0.1212
14997TIP3    H166406   6.586   3.027   1.221 -0.8872  0.1510 -0.5759
14997TIP3    H266407   6.607   2.885   1.269 -0.1607  0.0872 -1.0614
14998TIP3   OH266408   3.647   0.364   0.627  0.0017 -0.3885 -0.2320
14998TIP3    H166409   3.585   0.395   0.693 -0.0864 -2.1370  0.5745
14998TIP3    H266410   3.632   0.421   0.551 -0.3767  1.2335  1.0021
14999TIP3   OH266411   2.198   3.611   4.917 -0.2152 -0.1304 -0.4017
14999TIP3    H166412   2.256   3.686   4.901  0.1282 -0.5961 -1.3999
14999TIP3    H266413   2.132   3.645   4.978  1.4078  0.2763  1.2276
15000TIP3   OH266414   3.079   4.463  16.167 -0.4877 -0.2472  0.1443
15000TIP3    H166415   3.156   4.420  16.130 -0.9580 -0.1139 -1.0319
15000TIP3    H266416   3.005   4.425  16.120 -0.9651  1.3724 -0.5074
15001TIP3   OH266417   6.318   5.342  12.488  0.3039 -0.2914  0.7542
15001TIP3    H166418   6.323   5.284  12.564 -1.1849 -0.0469  1.0644
15001TIP3    H266419   6.318   5.430  12.525  2.7397 -0.0193  0.2750
15002TIP3   OH266420   6.291   0.492  14.513  0.0426  0.5429  0.0502
15002TIP3    H166421   6.287   0.554  14.585  3.8561 -0.8180  1.6896
15002TIP3    H266422   6.252   0.412  14.549 -1.0642  0.7542 -0.6241
15003TIP3   OH266423   1.058   0.708   2.398 -0.0095 -0.1021 -1.0381
15003TIP3    H166424   1.131   0.733   2.454 -1.8496 -0.3093  1.6556
15003TIP3    H266425   1.015   0.791   2.377  0.7985 -0.0033 -2.4248
15004TIP3   OH266426   4.683   4.005   0.045  0.3630  0.6572 -0.2120
15004TIP3    H166427   4.721   3.978   0.129  0.6024 -2.1338 -1.1192
15004TIP3    H266428   4.732   3.955  -0.020  0.0046  2.5632 -2.0385
15005TIP3   OH266429   6.229   6.786  11.637 -0.4978 -0.3832 -0.1090
15005TIP3    H166430   6.140   6.784  11.603 -0.8349 -1.5531  0.7643
15005TIP3    H266431   6.218   6.808  11.730  0.0930 -0.7021  0.0417
15006TIP3   OH266432   2.476   1.756   3.341 -0.1768 -0.4510 -0.5878
15006TIP3    H166433   2.512   1.821   3.401  1.0393 -0.8998 -0.7949
15006TIP3    H266434   2.469   1.801   3.257 -0.0454 -0.3647 -0.5530
15007TIP3   OH266435   4.769   2.617   4.241 -0.6105  0.0453  0.4194
15007TIP3    H166436   4.712   2.691   4.260 -0.3736  0.3411  0.0072
15007TIP3    H266437   4.855   2.656   4.227 -0.7061 -0.1792 -0.9284
15008TIP3   OH266438   4.734   6.293  12.800  0.2722 -0.3861  0.1432
15008TIP3    H166439   4.713   6.272  12.891 -0.4155  0.3354  0.1569
15008TIP3    H266440   4.683   6.230  12.749 -1.8381  1.1780  0.1849
15009TIP3   OH266441   2.898   6.028   1.678  0.1667 -0.2152 -0.0205
15009TIP3    H166442   2.849   6.013   1.758 -1.0601 -1.3122 -0.9309
15009TIP3    H266443   2.971   5.967   1.682 -0.4332 -0.9548 -0.1514
15010TIP3   OH266444   0.996   5.848  11.510  1.0681 -0.1198  0.3793
15010TIP3    H166445   1.033   5.774  11.461  1.0744 -0.6508  1.1668
15010TIP3    H266446   0.917   5.871  11.461 -0.0654 -1.9736  1.2051
15011TIP3   OH266447   1.373   4.897   2.902  0.4510  0.9146  0.1155
15011TIP3    H166448   1.463   4.872   2.883 -0.2491  0.3400 -3.0434
15011TIP3    H266449   1.379   4.986   2.936  2.1443  1.5042 -1.5948
15012TIP3   OH266450   5.920   2.701  15.607  0.0924  0.1565 -0.4591
15012TIP3    H166451   5.891   2.658  15.526  0.0335  0.1594 -0.4391
15012TIP3    H266452   6.007   2.664  15.622 -0.5410 -1.0716  0.3609
15013TIP3   OH266453   1.325   5.292   4.155  0.4857  0.1669  0.2931
15013TIP3    H166454   1.391   5.288   4.224  0.5958  1.8352  0.3444
15013TIP3    H266455   1.262   5.357   4.186 -0.5192 -0.4902 -0.3131
15014TIP3   OH266456   4.956   4.567   3.873 -0.2194  0.1701  0.2930
15014TIP3    H166457   4.909   4.618   3.939 -0.0153  1.5272 -0.5538
15014TIP3    H266458   4.952   4.477   3.904 -2.3722  0.4034  0.8183
15015TIP3   OH266459   3.938   0.509  11.284 -0.0087 -0.1398 -0.0136
15015TIP3    H166460   3.934   0.495  11.190 -0.5241  0.0475 -0.0236
15015TIP3    H266461   3.980   0.595  11.293 -3.6408  1.8787 -0.2770
15016TIP3   OH266462   1.838   4.638  16.470 -0.4675  0.1243  0.6307
15016TIP3    H166463   1.922   4.651  16.513 -0.4586  1.8733  0.1528
15016TIP3    H266464   1.860   4.616  16.380 -0.4581 -4.3050  1.4477
15017TIP3   OH266465   5.520   2.246  13.329  0.4223  0.3651  0.2597
15017TIP3    H166466   5.574   2.174  13.295 -0.7537  0.2237 -1.4057
15017TIP3    H266467   5.474   2.208  13.404 -0.7555 -0.9074 -1.0429
15018TIP3   OH266468   4.012   5.111  17.172  0.3971  0.2558 -0.1695
15018TIP3    H166469   3.942   5.052  17.145 -1.1689  1.3195  1.3266
15018TIP3    H266470   4.002   5.188  17.115 -0.2010  0.7388  0.5644
15019TIP3   OH266471   6.680   3.291  16.779  0.0672 -0.0540  0.5027
15019TIP3    H166472   6.674   3.214  16.835 -0.7985 -1.8231 -1.8443
15019TIP3    H266473   6.615   3.276  16.710  0.0810  2.6598 -0.2347
15020TIP3   OH266474   5.869   0.938  14.983  0.2156  0.0080 -0.0310
15020TIP3    H166475   5.856   0.993  14.905 -0.0647  1.1251  0.7723
15020TIP3    H266476   5.782   0.929  15.021  0.5707  0.8690  1.0492
15021TIP3   OH266477   1.662   6.689   2.625  0.7955 -0.3160 -0.1510
15021TIP3    H166478   1.654   6.765   2.567  0.8121  0.4800  0.8778
15021TIP3    H266479   1.572   6.671   2.653  0.7924 -0.6805 -0.3837
15022TIP3   OH266480   3.136   3.008   0.869  0.6814  0.5298 -0.6030
15022TIP3    H166481   3.053   2.963   0.852  1.0450  0.1412 -1.4396
15022TIP3    H266482   3.111   3.099   0.887  0.0815  0.4453 -0.9734
15023TIP3   OH266483   1.032   6.452  11.759 -0.3990 -0.7652 -0.2177
15023TIP3    H166484   1.033   6.358  11.741 -0.5044 -0.6813 -0.6756
15023TIP3    H266485   1.023   6.493  11.673 -0.5017 -0.3397 -0.0085
15024TIP3   OH266486   0.642   6.282   0.109 -0.3700  0.1090  0.1606
15024TIP3    H166487   0.736   6.300   0.112 -0.5886  1.6518 -0.7602
15024TIP3    H266488   0.622   6.276   0.016 -1.2924  0.5392  0.3196
15025TIP3   OH266489   1.363   6.516  11.325  0.4952  0.4729 -0.1384
15025TIP3    H166490   1.382   6.432  11.283 -1.2768 -0.4481  0.8054
15025TIP3    H266491   1.310   6.564  11.261  0.8601  0.5657 -0.3724
15026TIP3   OH266492   2.736   0.015   0.011  0.8965 -0.6865  0.0166
15026TIP3    H166493   2.712   0.041  -0.078  0.3004  1.6928  0.7936
15026TIP3    H266494   2.674  -0.054   0.034  0.7101 -0.9487 -1.2051
15027TIP3   OH266495   5.793   6.239   5.295  0.0223  0.1754 -0.5036
15027TIP3    H166496   5.757   6.151   5.289 -1.1865  0.6633 -0.6254
15027TIP3    H266497   5.887   6.227   5.282 -0.2965 -0.9199 -2.0064
15028TIP3   OH266498   6.016   2.380   1.466  0.3688  0.2822  0.2827
15028TIP3    H166499   6.013   2.418   1.553  0.0628  0.8630  0.0205
15028TIP3    H266500   6.108   2.354   1.454  0.1151 -1.2552  1.3899
15029TIP3   OH266501   5.136   0.279  12.069 -0.0453 -0.9346  0.1790
15029TIP3    H166502   5.217   0.241  12.036 -0.5717 -0.5498 -1.7182
15029TIP3    H266503   5.086   0.205  12.103  0.3666 -1.4500 -0.3253
15030TIP3   OH266504   0.189   3.540  16.797  0.7254 -0.1267 -0.0606
15030TIP3    H166505   0.219   3.627  16.823  1.5749 -0.5491  0.4260
15030TIP3    H266506   0.196   3.487  16.877 -0.2512 -0.5307 -0.2252
15031TIP3   OH266507   5.655   3.925  10.610 -0.0125 -0.3166  0.3164
15031TIP3    H166508   5.665   3.849  10.553  2.1488 -0.6298  1.0272
15031TIP3    H266509   5.696   3.996  10.561  0.5154 -0.2500  0.8551
15032TIP3   OH266510   2.383   3.700   0.305  0.0666 -0.0681 -0.1757
15032TIP3    H166511   2.414   3.633   0.366 -0.2258  0.3332  0.4267
15032TIP3    H266512   2.452   3.707   0.239  0.2154 -0.7766 -0.1019
15033TIP3   OH266513   2.014   1.593  12.033 -0.2716 -0.1859 -0.5955
15033TIP3    H166514   2.035   1.501  12.017 -1.3525 -0.3736 -1.0025
15033TIP3    H266515   1.924   1.592  12.065 -0.2364  0.7256 -0.4282
15034TIP3   OH266516   0.404   2.200  14.787 -0.0898  0.3775 -0.1451
15034TIP3    H166517   0.496   2.180  14.769 -0.6152 -1.7765 -0.8354
15034TIP3    H266518   0.406   2.263  14.859  1.9283  1.4309 -1.0361
15035TIP3   OH266519   2.644   2.369  14.527  0.2680 -0.5052 -0.0209
15035TIP3    H166520   2.658   2.396  14.618  0.9078 -0.7612 -0.0379
15035TIP3    H266521   2.698   2.290  14.517  2.1492  0.8689 -1.3199
15036TIP3   OH266522   5.483   0.684  15.038  0.0783  0.0271  0.3030
15036TIP3    H166523   5.418   0.653  14.974  2.2025 -1.4945 -1.2560
15036TIP3    H266524   5.459   0.642  15.120 -0.4710 -1.1373 -0.4362
15037TIP3   OH266525   2.527   3.525  13.989 -0.0391 -0.0305  0.3103
15037TIP3    H166526   2.587   3.488  13.925  0.3294  0.1832  0.5261
15037TIP3    H266527   2.521   3.617  13.966  0.6323  0.1937  0.9848
15038TIP3   OH266528   3.803   0.853  16.264 -0.6445 -0.0555 -0.1822
15038TIP3    H166529   3.770   0.793  16.197  0.0650  2.8205 -3.3549
15038TIP3    H266530   3.726   0.875  16.316 -2.0789  0.2958 -2.3148
15039TIP3   OH266531   6.381   4.051  14.866  0.0697 -0.3277  0.9633
15039TIP3    H166532   6.328   4.079  14.791  1.4078 -2.4149 -0.8764
15039TIP3    H266533   6.322   4.058  14.941 -2.1087 -0.4598 -0.6430
15040TIP3   OH266534   3.056   3.855  14.855  0.2563 -0.4137  0.3732
15040TIP3    H166535   3.082   3.868  14.946  0.1864 -1.8006  0.6066
15040TIP3    H266536   3.137   3.839  14.808  0.4162  1.3770 -0.0430
15041TIP3   OH266537   2.521   6.087  15.794  0.6173 -0.0119  0.4916
15041TIP3    H166538   2.597   6.033  15.775  0.0755 -0.1187 -1.7406
15041TIP3    H266539   2.533   6.165  15.739 -1.3386 -0.5099 -0.7570
15042TIP3   OH266540   5.476   0.635   2.220  0.0802  0.4042  0.3072
15042TIP3    H166541   5.567   0.605   2.212 -0.4319 -1.9742  2.3093
15042TIP3    H266542   5.432   0.565   2.267 -3.0921  1.0227 -1.4865
15043TIP3   OH266543   0.996   5.291  15.003 -0.6206  0.5996 -0.3238
15043TIP3    H166544   1.082   5.334  15.010  0.3830 -1.5211  1.3161
15043TIP3    H266545   0.988   5.271  14.909  0.9380  0.3577 -0.4443
15044TIP3   OH266546   6.559   6.320   5.077 -0.3208  0.1591 -0.3407
15044TIP3    H166547   6.550   6.413   5.055 -1.2571 -0.1186 -1.1618
15044TIP3    H266548   6.572   6.277   4.993  1.2579 -0.3529  0.1239
15045TIP3   OH266549   2.673   6.511  11.903 -0.0978  0.2737 -0.3314
15045TIP3    H166550   2.742   6.553  11.954  0.7641 -1.5920  0.1190
15045TIP3    H266551   2.720   6.453  11.842 -1.2145  0.2561 -1.2137
15046TIP3   OH266552   3.723   4.980  12.204 -0.3458  0.5724  0.5079
15046TIP3    H166553   3.723   4.921  12.280 -2.4107 -0.3102 -0.1113
15046TIP3    H266554   3.816   4.992  12.184  0.2861  0.7826  3.1005
15047TIP3   OH266555   2.187   1.463  16.605 -0.0888  0.2430 -0.0704
15047TIP3    H166556   2.240   1.442  16.528  0.0961  0.6115 -0.0452
15047TIP3    H266557   2.146   1.547  16.583 -0.1881  0.2535  0.1567
15048TIP3   OH266558   0.316   5.802   0.185 -0.0281 -0.2406 -0.0081
15048TIP3    H166559   0.383   5.830   0.123 -0.8556  0.3526 -0.6629
15048TIP3    H266560   0.247   5.764   0.131 -1.1243  1.0018  0.4449
15049TIP3   OH266561   3.191   5.601   4.501  0.7802  0.5228  0.1588
15049TIP3    H166562   3.107   5.646   4.509  1.5393  2.1505 -0.8036
15049TIP3    H266563   3.190   5.561   4.414  1.8348  2.3727 -0.7471
15050TIP3   OH266564   2.602   6.234  16.045 -0.0914  0.1988  0.2743
15050TIP3    H166565   2.611   6.313  15.991 -0.2009  1.0427  1.4531
15050TIP3    H266566   2.533   6.183  16.002 -1.4885  1.7229  0.6174
15051TIP3   OH266567   5.983   4.029   3.350 -0.2167  0.2603 -0.1409
15051TIP3    H166568   6.008   3.940   3.324  0.3570 -0.1128  1.5483
15051TIP3    H266569   5.902   4.046   3.302  1.7051  0.4261 -3.6531
15052TIP3   OH266570   3.750   3.562  14.482  0.0276 -0.3940  0.2691
15052TIP3    H166571   3.670   3.577  14.432  0.7439 -0.3129 -0.8922
15052TIP3    H266572   3.730   3.596  14.569 -0.5711  1.3794 -0.5100
15053TIP3   OH266573   4.406   6.697  15.889 -0.3157 -0.2176  0.1725
15053TIP3    H166574   4.363   6.776  15.924 -2.5938 -1.3707  0.1817
15053TIP3    H266575   4.442   6.653  15.965 -0.8560 -0.1994  0.4470
15054TIP3   OH266576   4.149   3.490   0.634 -0.1107 -0.5144 -0.0426
15054TIP3    H166577   4.230   3.457   0.595 -1.4732 -2.9123 -1.0674
15054TIP3    H266578   4.117   3.555   0.571 -1.0086 -2.5652 -1.8651
15055TIP3   OH266579   1.183   5.310   5.270 -0.1139  0.0862 -0.1094
15055TIP3    H166580   1.110   5.308   5.209 -1.3156  1.7510  1.1672
15055TIP3    H266581   1.230   5.228   5.255 -2.1991 -1.0000 -1.0404
15056TIP3   OH266582   3.252   1.617   2.246 -0.0113  0.2655  0.5970
15056TIP3    H166583   3.199   1.540   2.267 -0.1225  0.0249 -0.4757
15056TIP3    H266584   3.260   1.665   2.328 -1.6228  0.1394  0.8509
15057TIP3   OH266585   5.356   5.756  15.501 -0.1387 -0.0058 -0.1423
15057TIP3    H166586   5.430   5.788  15.553  0.4095  1.4100 -1.7072
15057TIP3    H266587   5.384   5.768  15.410 -1.5541 -1.2562 -0.7766
15058TIP3   OH266588   3.479   3.845  13.048 -0.3317  0.0138  0.2400
15058TIP3    H166589   3.402   3.901  13.041 -0.4096 -0.1625 -0.4305
15058TIP3    H266590   3.552   3.906  13.059 -0.4862  0.2151  0.1555
15059TIP3   OH266591   0.542   1.378  12.829  0.4080  0.0122  0.0642
15059TIP3    H166592   0.586   1.312  12.882  0.3971 -0.9978 -1.1301
15059TIP3    H266593   0.579   1.367  12.742 -1.0525  0.2079 -0.6132
15060TIP3   OH266594   3.829   6.368   0.060 -0.4052 -0.1737 -0.6229
15060TIP3    H166595   3.739   6.337   0.074  0.0731 -1.4517 -0.2674
15060TIP3    H266596   3.835   6.448   0.112 -0.5429 -1.5107  1.5493
15061TIP3   OH266597   0.294   6.779   3.422  0.2428  0.2118 -0.2172
15061TIP3    H166598   0.350   6.806   3.349 -0.7359  0.5829 -0.8636
15061TIP3    H266599   0.221   6.734   3.380 -0.1520  0.1027  0.5688
15062TIP3   OH266600   0.567   2.027  10.891  0.3100 -0.5603  0.6117
15062TIP3    H166601   0.504   2.006  10.822  0.4608 -1.2112  0.6664
15062TIP3    H266602   0.519   2.012  10.972 -1.1095  3.6511  0.8125
15063TIP3   OH266603   1.290   3.323  16.245 -0.0269 -0.5253  0.0555
15063TIP3    H166604   1.288   3.341  16.151  0.7849 -0.2705  0.0785
15063TIP3    H266605   1.217   3.263  16.260  0.6343 -1.6484 -0.9844
15064TIP3   OH266606   4.659   3.672  13.642 -0.1348  0.1310  0.6833
15064TIP3    H166607   4.591   3.615  13.678 -0.5096  0.8947  1.2202
15064TIP3    H266608   4.730   3.667  13.706 -1.1208  2.1382  2.0867
15065TIP3   OH266609   1.507   5.803  11.252 -0.3817  0.7630 -0.2713
15065TIP3    H166610   1.535   5.852  11.329  0.1523 -2.0561  1.4552
15065TIP3    H266611   1.588   5.784  11.204 -0.5404  1.1894 -0.7197
15066TIP3   OH266612   0.672   1.721   4.283 -0.5035  0.2306  0.6578
15066TIP3    H166613   0.637   1.721   4.194 -1.7257 -1.7808  1.0739
15066TIP3    H266614   0.602   1.759   4.336 -0.9017 -1.0647  1.0960
15067TIP3   OH266615   4.975   0.333   6.011  0.5554 -0.3452 -0.1747
15067TIP3    H166616   4.911   0.396   6.044 -0.3843 -1.0034 -0.6912
15067TIP3    H266617   4.961   0.255   6.065  1.7910 -0.0980  0.5427
15068TIP3   OH266618   1.538   4.776  11.962  0.3273  0.1047  0.0572
15068TIP3    H166619   1.557   4.838  11.891  0.8100  1.1364  1.0651
15068TIP3    H266620   1.461   4.727  11.931  0.1421  0.9663 -0.8992
15069TIP3   OH266621   6.674   0.332  16.159  0.2867  0.4419 -0.1223
15069TIP3    H166622   6.648   0.319  16.250 -0.9392 -1.8905 -0.7349
15069TIP3    H266623   6.766   0.308  16.157  0.5776  1.3813  0.6222
15070TIP3   OH266624   2.837   2.138   6.282 -0.0868 -0.3131  0.1859
15070TIP3    H166625   2.796   2.093   6.355  1.6688 -0.6590  1.0300
15070TIP3    H266626   2.844   2.071   6.214  0.4374 -0.6983  0.6037
15071TIP3   OH266627   4.427   1.872  14.560 -0.0419  0.0762  0.0009
15071TIP3    H166628   4.396   1.802  14.618 -1.1678 -0.7000 -1.4436
15071TIP3    H266629   4.388   1.952  14.596 -0.8207 -0.4088  0.2732
15072TIP3   OH266630   6.222   3.448  15.656 -0.2730 -0.2086  0.3056
15072TIP3    H166631   6.318   3.448  15.662 -0.2768 -0.2225  0.3739
15072TIP3    H266632   6.195   3.507  15.727 -0.2582  0.8788 -0.5628
15073TIP3   OH266633   3.772   1.743   1.906  0.9075 -0.6327  0.4849
15073TIP3    H166634   3.834   1.670   1.907  2.7621  0.8617  1.3637
15073TIP3    H266635   3.825   1.819   1.879 -0.8179  0.4900  0.1275
15074TIP3   OH266636   2.038   4.202   2.008 -0.3288  0.7108  0.0188
15074TIP3    H166637   1.952   4.191   2.049 -0.3729  1.8930  0.2842
15074TIP3    H266638   2.096   4.227   2.079 -0.3890  2.7075 -0.5775
15075TIP3   OH266639   1.632   5.390   4.355  0.7155 -0.1099  0.7643
15075TIP3    H166640   1.684   5.382   4.275 -1.1763 -1.3387 -0.4360
15075TIP3    H266641   1.566   5.455   4.335 -0.0518 -0.7508  1.1613
15076TIP3   OH266642   6.472   2.556   3.145  0.0586 -0.0081  0.9571
15076TIP3    H166643   6.513   2.470   3.138  0.6494  0.2016  1.7477
15076TIP3    H266644   6.386   2.539   3.183 -0.6607 -0.4553 -0.7519
15077TIP3   OH266645   1.760   5.779   6.098 -0.0233 -0.7187  0.6072
15077TIP3    H166646   1.718   5.860   6.069  2.3269  0.2382 -0.3666
15077TIP3    H266647   1.813   5.805   6.173  1.3966 -1.1308 -0.2154
15078TIP3   OH266648   4.899   3.582   2.581 -0.2300 -0.1443  0.4374
15078TIP3    H166649   4.958   3.511   2.607 -2.6131 -1.9600  1.2996
15078TIP3    H266650   4.866   3.556   2.495 -1.0716 -0.1011  0.7305
15079TIP3   OH266651   0.138   3.868  16.496  0.1525 -0.3553 -0.2261
15079TIP3    H166652   0.092   3.908  16.570 -0.6100  2.0226 -1.8585
15079TIP3    H266653   0.075   3.807  16.459 -0.4706  0.4247 -0.4738
15080TIP3   OH266654   4.839   0.564   6.188  0.2841  0.2744  0.1962
15080TIP3    H166655   4.912   0.624   6.176 -0.3754  1.3770  1.5663
15080TIP3    H266656   4.809   0.578   6.277 -0.1151 -1.8612  0.4716
15081TIP3   OH266657   0.376   5.257  15.607  0.3322 -0.8097 -0.2351
15081TIP3    H166658   0.304   5.282  15.665  1.3809 -0.1601  0.8203
15081TIP3    H266659   0.451   5.244  15.664  1.8585  1.5511 -1.5179
15082TIP3   OH266660   2.065   0.296   5.075 -0.4119 -0.0754 -0.2539
15082TIP3    H166661   2.157   0.269   5.069  0.2179  1.3671  1.6362
15082TIP3    H266662   2.017   0.216   5.092  1.2479 -0.3782  4.2726
15083TIP3   OH266663   2.537   6.097  11.915  0.5407  0.4328  0.3304
15083TIP3    H166664   2.631   6.079  11.921  0.3988 -0.1192  0.9438
15083TIP3    H266665   2.509   6.052  11.835  0.5039 -0.7139  0.9797
15084TIP3   OH266666   0.566   3.507   3.528  0.4787 -0.4499 -0.1528
15084TIP3    H166667   0.510   3.460   3.590 -0.3539  1.9605  1.0852
15084TIP3    H266668   0.505   3.561   3.478  1.3891 -0.5768 -1.4509
15085TIP3   OH266669   5.650   5.186   4.551  0.0147  0.1537  0.0368
15085TIP3    H166670   5.566   5.156   4.517 -0.1807  0.2423  0.4350
15085TIP3    H266671   5.627   5.253   4.616  0.3450 -0.5256  0.8787
15086TIP3   OH266672   5.701   5.623  14.148  0.0371 -0.1273  0.3565
15086TIP3    H166673   5.664   5.711  14.154  0.6693  0.1318  0.4901
15086TIP3    H266674   5.792   5.637  14.121 -0.1087 -0.7830 -0.5068
15087TIP3   OH266675   1.238   0.927   5.269 -0.1615 -0.3648 -0.3429
15087TIP3    H166676   1.269   1.015   5.292  1.2598 -0.5023 -1.5920
15087TIP3    H266677   1.150   0.940   5.235  0.3542  0.7072 -1.3286
15088TIP3   OH266678   1.737   2.236   6.627  0.7275  0.2176  0.3616
15088TIP3    H166679   1.660   2.237   6.570  1.7449  0.4689 -1.0741
15088TIP3    H266680   1.767   2.327   6.629  0.4286  0.3108  1.7423
15089TIP3   OH266681   4.625   3.444   0.968  0.2799  0.3121 -0.1649
15089TIP3    H166682   4.606   3.388   0.893  0.6863  2.3084 -1.8646
15089TIP3    H266683   4.572   3.523   0.953 -0.2008  0.4741  2.0632
15090TIP3   OH266684   4.692   1.812  16.683 -0.4919 -0.1813 -0.3036
15090TIP3    H166685   4.772   1.765  16.704 -0.1373  0.7565  0.5749
15090TIP3    H266686   4.665   1.850  16.767 -0.8238  1.0539 -0.9530
15091TIP3   OH266687   3.553   5.889  14.625 -0.2053  0.1354 -0.4029
15091TIP3    H166688   3.626   5.843  14.583  0.5748  0.9735 -0.0065
15091TIP3    H266689   3.595   5.960  14.674 -1.3705  1.3964 -1.1723
15092TIP3   OH266690   4.655   0.976  11.183  0.0610 -0.1938  0.3142
15092TIP3    H166691   4.748   0.973  11.161 -0.1874 -2.3315 -0.6738
15092TIP3    H266692   4.615   1.026  11.112  0.3439  0.0732  0.3379
15093TIP3   OH266693   6.023   2.051  16.201 -0.8801  0.7314 -0.0580
15093TIP3    H166694   5.974   2.131  16.220  0.4343  1.2659  1.2498
15093TIP3    H266695   6.020   2.001  16.282 -0.4765  0.1035 -0.4167
15094TIP3   OH266696   2.385   4.787   1.984 -0.0456 -0.0463  0.3135
15094TIP3    H166697   2.306   4.750   1.947  0.0625 -0.7632  0.7712
15094TIP3    H266698   2.440   4.808   1.909 -0.6038  0.3175  0.0026
15095TIP3   OH266699   5.771   6.533   3.449 -0.7755 -0.1151  0.5685
15095TIP3    H166700   5.738   6.508   3.536 -1.6347  2.6375  1.1272
15095TIP3    H266701   5.749   6.625   3.441  2.6297  0.7245 -1.0303
15096TIP3   OH266702   3.574   0.459  15.042  0.4754 -0.7828  0.6313
15096TIP3    H166703   3.481   0.441  15.029 -0.1658  1.5262  1.5138
15096TIP3    H266704   3.613   0.448  14.956 -0.7759 -0.8383  0.0470
15097TIP3   OH266705   0.894   2.644   1.736 -0.0764 -0.1471  0.1680
15097TIP3    H166706   0.890   2.706   1.663 -0.4333  0.4536  0.6883
15097TIP3    H266707   0.924   2.695   1.810 -0.6781 -0.5195  0.6845
15098TIP3   OH266708   6.676   0.885  11.038 -0.4977  0.4391 -0.5850
15098TIP3    H166709   6.676   0.977  11.013 -0.1914  0.9549  1.1814
15098TIP3    H266710   6.756   0.874  11.090 -0.0041 -1.0826 -1.6015
15099TIP3   OH266711   3.942   4.271  10.628  0.4096 -0.4788 -0.5664
15099TIP3    H166712   3.970   4.297  10.540 -0.9635 -2.6103 -1.7223
15099TIP3    H266713   4.018   4.224  10.663  0.0260 -2.1097 -1.7985
15100TIP3   OH266714   5.490   5.071   5.803 -0.6607  0.1725 -0.5123
15100TIP3    H166715   5.521   5.122   5.878  0.3791 -0.1587 -0.6964
15100TIP3    H266716   5.400   5.100   5.790 -0.3192  1.4533 -0.1789
15101TIP3   OH266717   2.522   1.311  14.083 -0.3935  0.5182 -0.6976
15101TIP3    H166718   2.551   1.403  14.084  1.3101  0.0055 -0.4914
15101TIP3    H266719   2.603   1.260  14.091 -1.2978 -1.0177 -0.9924
15102TIP3   OH266720   5.799   4.655  14.892  0.6847 -0.0336  0.4986
15102TIP3    H166721   5.884   4.658  14.848 -0.1867  1.0743 -1.2467
15102TIP3    H266722   5.794   4.738  14.940  0.6012 -0.1072  0.6179
15103TIP3   OH266723   1.447   4.678  10.939 -0.6061  0.3230 -0.0666
15103TIP3    H166724   1.445   4.709  10.848 -0.3896 -2.1157 -0.9576
15103TIP3    H266725   1.355   4.659  10.960 -0.6821  1.0765  0.3220
15104TIP3   OH266726   3.303   4.156   4.050 -0.1348 -0.0825 -0.1509
15104TIP3    H166727   3.353   4.080   4.019 -0.5015 -0.2760 -0.2780
15104TIP3    H266728   3.245   4.120   4.117  0.5733  0.3134  0.6934
15105TIP3   OH266729   5.037   5.843   0.140 -0.3031 -0.1406  0.0765
15105TIP3    H166730   5.022   5.917   0.199 -1.5976  0.2330 -0.6921
15105TIP3    H266731   4.950   5.821   0.107 -0.0350 -2.4307  0.7701
15106TIP3   OH266732   1.798   0.754   2.512 -0.1734  0.3074  0.5300
15106TIP3    H166733   1.738   0.802   2.455 -1.8558 -0.5893  1.4620
15106TIP3    H266734   1.859   0.711   2.452  1.2423  3.2763 -0.3431
15107TIP3   OH266735   0.681   4.915   0.435 -0.3915  0.5700  0.0441
15107TIP3    H166736   0.730   4.843   0.476  0.3594  1.5656  0.9415
15107TIP3    H266737   0.658   4.881   0.348 -2.1747 -1.6557  1.2849
15108TIP3   OH266738   5.382   0.629   2.863 -0.1958  0.4657  0.4949
15108TIP3    H166739   5.352   0.539   2.877 -1.5884  0.8591  0.2360
15108TIP3    H266740   5.388   0.638   2.768 -0.5879  0.8014  0.4985
15109TIP3   OH266741   6.364   0.305  13.982  0.2650  0.4979  0.0088
15109TIP3    H166742   6.377   0.327  14.074  0.0721 -3.2570  1.1391
15109TIP3    H266743   6.277   0.264  13.979  0.7808 -0.6030 -1.5246
15110TIP3   OH266744   2.004   3.484  12.225  0.7874 -0.2321  0.4777
15110TIP3    H166745   1.948   3.520  12.157  0.1740  1.0631  1.6213
15110TIP3    H266746   2.066   3.554  12.245  0.7547 -0.4668  1.4526
15111TIP3   OH266747   6.188   5.969   1.662 -0.3063 -0.4769  0.0481
15111TIP3    H166748   6.219   5.896   1.716 -0.9152  0.1844  1.3387
15111TIP3    H266749   6.262   5.990   1.605  1.2002  0.2138  2.1417
15112TIP3   OH266750   1.273   6.582   3.413  0.3361 -0.0075 -0.4699
15112TIP3    H166751   1.212   6.567   3.486  0.5907 -2.6981 -0.7227
15112TIP3    H266752   1.271   6.677   3.400 -1.2097  0.3515  1.7378
15113TIP3   OH266753   4.664   6.240   3.904  0.0431  0.2129  0.0454
15113TIP3    H166754   4.573   6.244   3.935 -0.3746 -1.4663 -0.8529
15113TIP3    H266755   4.704   6.169   3.955  0.9970  1.1886  0.7069
15114TIP3   OH266756   0.212   4.078  12.915  0.3121 -0.2323  0.9192
15114TIP3    H166757   0.234   4.161  12.873 -1.3156 -1.2694 -2.2898
15114TIP3    H266758   0.288   4.057  12.969  1.7404  2.1752 -0.0385
15115TIP3   OH266759   3.552   2.909  13.293 -0.0951  0.1913 -0.0399
15115TIP3    H166760   3.609   2.907  13.370 -0.7219  1.5983  0.4932
15115TIP3    H266761   3.584   2.983  13.241  0.3633 -0.7829 -1.2000
15116TIP3   OH266762   6.682   2.519   5.480  0.1323 -0.1849  0.0505
15116TIP3    H166763   6.647   2.503   5.393 -0.4098 -0.7399  0.3675
15116TIP3    H266764   6.739   2.596   5.469 -0.7415  0.3912 -0.5852
15117TIP3   OH266765   2.417   2.723   0.575 -0.0563  0.0018 -0.0837
15117TIP3    H166766   2.498   2.692   0.535  0.4907  0.1616  0.8942
15117TIP3    H266767   2.438   2.735   0.667 -0.9793  0.7936  0.0360
15118TIP3   OH266768   3.853   1.907   2.798 -0.4192 -0.8830  0.4460
15118TIP3    H166769   3.758   1.920   2.795 -0.2340  0.6874 -2.7063
15118TIP3    H266770   3.868   1.824   2.754 -0.2976 -0.4241 -0.4083
15119TIP3   OH266771   2.492   0.527  14.683  0.3585 -0.3461  0.3615
15119TIP3    H166772   2.560   0.594  14.675  0.7180 -0.7383  0.0789
15119TIP3    H266773   2.506   0.488  14.769  0.9846 -0.9495 -0.0059
15120TIP3   OH266774   6.007   1.946   1.702  0.1498  0.2054 -0.0346
15120TIP3    H166775   5.934   2.004   1.723  0.4337  0.9459 -1.0651
15120TIP3    H266776   5.997   1.873   1.764 -1.6107  0.1582 -0.3203
15121TIP3   OH266777   4.692   0.358  11.396  0.4505  0.4766  0.5887
15121TIP3    H166778   4.650   0.299  11.459  1.4562  0.8289  1.6137
15121TIP3    H266779   4.641   0.347  11.316  0.8630 -2.1433  0.5910
15122TIP3   OH266780   0.799   4.715   6.316  0.1209  0.0220 -0.5684
15122TIP3    H166781   0.799   4.741   6.224  0.0399  0.3535 -0.4750
15122TIP3    H266782   0.830   4.793   6.363 -1.0504  0.2697 -0.1912
15123TIP3   OH266783   6.184   1.445   0.872 -0.1583 -0.4911 -0.0981
15123TIP3    H166784   6.249   1.377   0.856  2.2297  1.7963 -0.7544
15123TIP3    H266785   6.203   1.513   0.808 -2.6292  0.7336  0.3329
15124TIP3   OH266786   4.009   4.574  12.522  0.1788  0.3281 -0.1799
15124TIP3    H166787   3.931   4.604  12.569  0.0617  0.6102 -0.5511
15124TIP3    H266788   4.032   4.492  12.565 -1.6644 -0.9573 -1.5018
15125TIP3   OH266789   2.937   3.236   5.354 -0.5826  0.3327 -0.5990
15125TIP3    H166790   2.930   3.262   5.262 -1.1353  1.8537 -0.1612
15125TIP3    H266791   2.979   3.311   5.397  0.6514 -0.7877  0.2304
15126TIP3   OH266792   2.134   1.370   5.184 -0.0030  0.0283  0.0847
15126TIP3    H166793   2.208   1.417   5.223 -0.6481  1.3932 -0.2623
15126TIP3    H266794   2.140   1.390   5.090 -2.4997  2.8128  0.3554
15127TIP3   OH266795   0.251   4.940   1.543 -0.1163 -0.4012  0.1944
15127TIP3    H166796   0.229   5.012   1.603 -1.5476 -0.1396 -0.6100
15127TIP3    H266797   0.191   4.870   1.568  0.4901 -0.9158  0.2135
15128TIP3   OH266798   3.671   0.374   3.009 -0.5880  0.5448  0.0780
15128TIP3    H166799   3.691   0.465   3.031 -0.9439  0.3005  1.4678
15128TIP3    H266800   3.576   0.367   3.022 -0.5220 -0.0861  0.2193
15129TIP3   OH266801   0.005   5.101  12.933 -0.4292 -0.5229  0.4345
15129TIP3    H166802  -0.011   5.068  13.022 -0.8568  0.9702  0.9523
15129TIP3    H266803  -0.046   5.182  12.928 -0.3195 -0.5184 -1.1483
15130TIP3   OH266804   6.347   0.494  16.982 -0.2176  0.4280  0.2831
15130TIP3    H166805   6.408   0.542  17.038 -0.0169 -0.4618  0.8384
15130TIP3    H266806   6.325   0.416  17.032  0.3944 -0.6636 -1.1054
15131TIP3   OH266807   0.303   1.265  12.261  0.5634 -0.2072 -0.3264
15131TIP3    H166808   0.391   1.231  12.274  0.0304 -1.1703  1.0435
15131TIP3    H266809   0.282   1.309  12.344 -0.0926  0.3856 -0.7936
15132TIP3   OH266810   1.777   6.070   2.887  0.0889 -0.2097  0.0541
15132TIP3    H166811   1.777   6.045   2.980  0.3919 -0.0026  0.1135
15132TIP3    H266812   1.691   6.109   2.873 -0.7599 -2.0723 -0.2723
15133TIP3   OH266813   2.112   1.070  15.657  0.1028  0.3670  0.0495
15133TIP3    H166814   2.061   1.081  15.738 -1.1100 -0.5766 -0.5467
15133TIP3    H266815   2.058   1.113  15.590  0.8105  0.6220 -0.3577
15134TIP3   OH266816   0.356   3.263   0.652 -0.4186 -0.2625  0.0822
15134TIP3    H166817   0.366   3.280   0.745  1.2387 -1.4948  0.1718
15134TIP3    H266818   0.293   3.329   0.622 -0.5844  0.4788  1.9502
15135TIP3   OH266819   1.062   6.561   5.070 -0.0178  0.1118 -0.6897
15135TIP3    H166820   1.093   6.651   5.073  0.0578  0.0707  0.6765
15135TIP3    H266821   1.141   6.509   5.052  0.0196  0.2834 -1.0200
15136TIP3   OH266822   2.846   2.967   5.558 -0.0811  0.2451 -0.3693
15136TIP3    H166823   2.785   3.022   5.509  0.8284  1.2755 -0.3704
15136TIP3    H266824   2.922   3.023   5.573  0.5823 -0.7954  0.2392
15137TIP3   OH266825   4.332   3.044   1.583  0.1709  0.5428  0.2484
15137TIP3    H166826   4.259   3.017   1.637 -0.4954  1.2251 -0.2905
15137TIP3    H266827   4.349   3.135   1.608  2.0567 -0.1246  1.6840
15138TIP3   OH266828   5.392   5.135   0.316 -0.2080 -0.3874 -0.0932
15138TIP3    H166829   5.380   5.225   0.347  0.2078 -0.2123 -0.4355
15138TIP3    H266830   5.417   5.085   0.394  0.4572 -0.0272 -0.0763
15139TIP3   OH266831   4.827   0.447  15.358  0.4617  0.2634 -0.0974
15139TIP3    H166832   4.853   0.425  15.447  1.1613  1.6128  0.0445
15139TIP3    H266833   4.745   0.398  15.344  0.8028 -0.6403  0.9582
15140TIP3   OH266834   5.650   1.366   0.383  0.2267  0.0790  0.0912
15140TIP3    H166835   5.567   1.413   0.382 -0.7959 -1.6266 -0.1531
15140TIP3    H266836   5.664   1.340   0.291  0.8083 -0.0109  0.1988
15141TIP3   OH266837   5.189   5.199  14.906  0.0246 -0.3014 -0.3388
15141TIP3    H166838   5.117   5.155  14.860 -0.6602 -0.9693  1.3052
15141TIP3    H266839   5.261   5.135  14.906 -0.7697 -1.2765  1.5204
15142TIP3   OH266840   3.305   5.970   2.752  0.3087  0.5437  0.2435
15142TIP3    H166841   3.306   5.887   2.705  1.5282  1.3761 -1.2974
15142TIP3    H266842   3.219   5.972   2.795  0.7145 -2.0547  1.4204
15143TIP3   OH266843   3.177   3.862  15.101 -0.8309  0.2288  0.1375
15143TIP3    H166844   3.108   3.909  15.147 -0.3119 -1.2902  2.7103
15143TIP3    H266845   3.199   3.789  15.160  0.7755 -1.1694 -2.0440
15144TIP3   OH266846   5.517   4.886   5.161  0.0004 -0.2029 -0.4706
15144TIP3    H166847   5.596   4.865   5.111  0.9202  0.1948  0.7578
15144TIP3    H266848   5.475   4.802   5.177  0.2110 -0.4262 -1.0725
15145TIP3   OH266849   1.413   1.960   0.269 -0.3192 -0.8448  0.0196
15145TIP3    H166850   1.328   1.981   0.229  0.9729  0.8536 -2.0663
15145TIP3    H266851   1.409   1.999   0.356 -0.6005  2.0893 -1.2116
15146TIP3   OH266852   0.626   2.725  12.898  0.1774 -0.5161  0.0090
15146TIP3    H166853   0.532   2.708  12.903  0.4657 -2.2221  0.3041
15146TIP3    H266854   0.666   2.639  12.911  1.8129  0.3791  1.2364
15147TIP3   OH266855   1.249   5.437   4.622  0.3474 -0.2848 -0.3885
15147TIP3    H166856   1.340   5.467   4.619 -0.0446  1.1011  0.3721
15147TIP3    H266857   1.249   5.365   4.685  0.7921  0.2562  0.2497
15148TIP3   OH266858   3.630   1.529   0.823 -0.1790  0.1102 -0.2224
15148TIP3    H166859   3.638   1.578   0.905 -0.5484  2.8622 -1.6994
15148TIP3    H266860   3.661   1.441   0.844 -1.2701  0.3907  3.1041
15149TIP3   OH266861   2.160   4.309  10.852 -0.0577  0.0466  0.3372
15149TIP3    H166862   2.226   4.271  10.910  0.6742 -0.3023 -0.6962
15149TIP3    H266863   2.203   4.386  10.813 -0.3750  0.0196 -0.0756
15150TIP3   OH266864   1.263   4.119   5.490  0.6307  0.2439 -0.2981
15150TIP3    H166865   1.221   4.102   5.575 -0.0539 -0.5368 -0.7883
15150TIP3    H266866   1.227   4.204   5.463 -0.8131 -0.5101 -0.8080
15151TIP3   OH266867   0.453   1.707  14.840 -0.0157 -0.1572  0.0340
15151TIP3    H166868   0.472   1.646  14.912  1.3982  0.2705  0.0544
15151TIP3    H266869   0.524   1.692  14.777 -0.0390  0.9863 -0.2780
15152TIP3   OH266870   1.860   0.271   1.416  0.4635  0.0254 -0.7001
15152TIP3    H166871   1.787   0.311   1.369 -1.5134 -2.4546  0.0985
15152TIP3    H266872   1.863   0.181   1.385  1.9567 -0.4623  0.7147
15153TIP3   OH266873   4.474   5.361   1.414  0.2999  0.0613  0.1664
15153TIP3    H166874   4.432   5.410   1.485  0.7085  0.2415  0.2836
15153TIP3    H266875   4.438   5.401   1.335  1.7338  1.5757  0.2221
15154TIP3   OH266876   1.458   2.632   3.346 -0.5861 -0.3623  0.1295
15154TIP3    H166877   1.453   2.551   3.397  0.4369  0.1126  1.0336
15154TIP3    H266878   1.549   2.637   3.317 -0.2799  1.0764  1.1934
15155TIP3   OH266879   3.460   5.258  11.852 -0.1394 -0.2523 -0.6659
15155TIP3    H166880   3.437   5.325  11.788 -1.7521  0.7328  0.8732
15155TIP3    H266881   3.536   5.294  11.899 -0.6030  0.2328 -0.2736
15156TIP3   OH266882   6.075   1.091  12.559  0.1172  0.5559 -0.4250
15156TIP3    H166883   6.103   1.013  12.510  2.5282  1.3081 -0.3417
15156TIP3    H266884   6.136   1.159  12.532 -2.0319  2.5254 -0.6232
15157TIP3   OH266885   6.171   6.708  16.928  0.4706 -0.4615  0.3813
15157TIP3    H166886   6.255   6.669  16.904  0.7491 -0.2254  0.9474
15157TIP3    H266887   6.164   6.787  16.874  0.0228 -1.1478 -0.5822
15158TIP3   OH266888   0.495   1.416   5.530 -0.0158 -0.2069 -0.0312
15158TIP3    H166889   0.456   1.430   5.616 -0.0284 -1.1904  0.1263
15158TIP3    H266890   0.455   1.335   5.498 -0.6764  0.6022 -1.3481
15159TIP3   OH266891   4.829   0.071   3.353  0.0507 -0.7564 -0.0511
15159TIP3    H166892   4.814  -0.019   3.382 -2.8222 -0.6670 -0.9214
15159TIP3    H266893   4.866   0.115   3.429 -1.6783 -1.9212  1.5682
15160TIP3   OH266894   1.615   0.507   3.904  0.0687  0.3826  0.3473
15160TIP3    H166895   1.698   0.555   3.898 -0.2179  0.9638  0.9217
15160TIP3    H266896   1.614   0.473   3.994  0.2131 -0.6215 -0.0078
15161TIP3   OH266897   3.208   3.995   2.295 -0.4128 -0.7859 -0.4394
15161TIP3    H166898   3.236   3.967   2.382  0.0036  1.8479  0.3550
15161TIP3    H266899   3.287   3.994   2.242  0.7523  3.2012  0.8660
15162TIP3   OH266900   3.964   5.836  10.991  0.1775  0.2390  0.1849
15162TIP3    H166901   4.056   5.814  11.005  0.2430  0.9045  0.9189
15162TIP3    H266902   3.964   5.893  10.914  0.1726 -1.0609 -0.8141
15163TIP3   OH266903   5.424   4.089   4.754 -0.0112  0.5196 -0.4682
15163TIP3    H166904   5.519   4.091   4.769  0.0990 -2.1785 -0.4803
15163TIP3    H266905   5.386   4.097   4.842  0.3006 -0.6312 -0.2157
15164TIP3   OH266906   2.267   4.104   5.197  0.6253  0.0277  0.1265
15164TIP3    H166907   2.304   4.127   5.283 -0.2512 -3.3772  1.5683
15164TIP3    H266908   2.339   4.061   5.151  0.3074 -0.8089  0.3848
15165TIP3   OH266909   3.071   2.095   5.210  0.1285 -0.2875 -0.2546
15165TIP3    H166910   3.121   2.174   5.190  0.3152 -0.3384  0.0096
15165TIP3    H266911   3.022   2.077   5.130  0.3377 -0.0920 -0.4284
15166TIP3   OH266912   1.592   5.788  13.907  0.2342 -0.3359 -0.2211
15166TIP3    H166913   1.656   5.849  13.944  0.5571  0.7546 -2.4318
15166TIP3    H266914   1.514   5.841  13.893  0.6454 -0.2405 -2.5457
15167TIP3   OH266915   1.667   4.817  11.381 -0.1225 -0.1476 -0.1974
15167TIP3    H166916   1.641   4.905  11.355  3.7108  1.3110  0.3247
15167TIP3    H266917   1.633   4.807  11.470 -1.1699  0.4655 -0.5065
15168TIP3   OH266918   3.225   0.260  14.706 -0.0113  0.8149  0.6696
15168TIP3    H166919   3.167   0.186  14.685  1.1341 -0.2959  1.2809
15168TIP3    H266920   3.254   0.292  14.621 -0.6265  0.6514  0.3893
15169TIP3   OH266921   1.179   3.907  13.287 -0.0565  0.7645  0.1919
15169TIP3    H166922   1.163   3.951  13.370 -0.5324  1.2826 -0.1639
15169TIP3    H266923   1.168   3.976  13.221  0.3539  0.3704 -0.2977
15170TIP3   OH266924   6.142   2.644   4.201  0.3046 -0.5385  0.3914
15170TIP3    H166925   6.129   2.595   4.282  1.9405  1.3972  1.8971
15170TIP3    H266926   6.053   2.664   4.171 -0.3333 -1.2115  1.7461
15171TIP3   OH266927   1.961   1.262  15.480 -0.1861  0.7189  0.0989
15171TIP3    H166928   1.932   1.318  15.408 -0.1669 -2.1680 -2.3832
15171TIP3    H266929   1.887   1.204  15.496  1.2530 -1.4983 -0.7310
15172TIP3   OH266930   0.962   6.605  14.943 -0.1833 -0.1647 -0.6094
15172TIP3    H166931   0.926   6.534  14.997  1.3113 -1.2207 -0.9719
15172TIP3    H266932   0.915   6.683  14.974  0.9199 -0.6074  2.6151
15173TIP3   OH266933   3.454   1.487  12.496 -0.3901 -0.2152 -0.5344
15173TIP3    H166934   3.541   1.478  12.457 -0.7141  0.4095 -1.4510
15173TIP3    H266935   3.445   1.411  12.553 -0.1618 -1.5750 -2.2220
15174TIP3   OH266936   6.274   1.839   1.596  0.0548 -0.3213  0.0847
15174TIP3    H166937   6.315   1.883   1.522 -0.4257 -0.2922 -0.1639
15174TIP3    H266938   6.348   1.816   1.653  0.3903  0.0041 -0.2090
15175TIP3   OH266939   1.985   5.862  14.413  0.4976 -0.5331  0.7651
15175TIP3    H166940   1.991   5.920  14.489 -1.0018  0.9726 -0.1799
15175TIP3    H266941   1.938   5.913  14.347  0.8112 -2.1609 -0.8261
15176TIP3   OH266942   2.939   2.813   5.817 -0.1832  0.0442 -0.6472
15176TIP3    H166943   2.996   2.743   5.787  2.1967  2.1890 -1.5700
15176TIP3    H266944   2.920   2.864   5.739 -2.2268  0.2375 -0.0875
15177TIP3   OH266945   0.315   0.380  16.924 -0.4689 -0.1855 -0.2906
15177TIP3    H166946   0.302   0.469  16.957 -2.9827 -0.6068  0.0525
15177TIP3    H266947   0.294   0.386  16.831  2.2793  0.0960 -0.9927
15178TIP3   OH266948   4.658   4.414   1.840 -0.6575 -0.7149 -0.0930
15178TIP3    H166949   4.666   4.349   1.910 -0.4092 -0.2513  0.3165
15178TIP3    H266950   4.688   4.496   1.880  3.6658 -1.1540 -1.9049
15179TIP3   OH266951   2.552   4.045   3.126  0.3553 -0.5725 -0.2979
15179TIP3    H166952   2.503   3.974   3.169 -0.8463  0.3409 -0.1059
15179TIP3    H266953   2.620   4.068   3.189  0.4265 -1.2059 -0.1346
15180TIP3   OH266954   2.379   0.427   1.176 -0.2936 -0.6668 -0.2313
15180TIP3    H166955   2.333   0.510   1.175 -1.0935 -1.0918  0.4781
15180TIP3    H266956   2.420   0.423   1.262  3.1990  0.8031 -1.6213
15181TIP3   OH266957   2.658   1.365   3.097 -0.0441  0.4620  0.8527
15181TIP3    H166958   2.596   1.364   3.024  0.0808  0.1291  0.7502
15181TIP3    H266959   2.617   1.422   3.162 -0.1032  0.8452  0.4810
15182TIP3   OH266960   1.530   0.281  16.252  0.5318  0.0492 -0.4065
15182TIP3    H166961   1.534   0.186  16.258 -2.1311 -0.1258  0.1042
15182TIP3    H266962   1.530   0.311  16.343  1.1588  0.5364 -0.5585
15183TIP3   OH266963   1.252   2.365  16.206  0.3993  0.4292  0.6230
15183TIP3    H166964   1.308   2.442  16.201  0.9627  0.1563  2.2523
15183TIP3    H266965   1.163   2.400  16.209  0.6111  0.9742  0.5928
15184TIP3   OH266966   2.418   2.588   0.143 -0.2220  0.0931 -0.3178
15184TIP3    H166967   2.394   2.541   0.063 -0.0682 -1.2282  0.3914
15184TIP3    H266968   2.448   2.674   0.112 -0.6016 -0.2285 -1.6325
15185TIP3   OH266969   5.665   5.120  14.552  0.0441 -0.4727 -0.1182
15185TIP3    H166970   5.584   5.068  14.557 -0.8382  0.7526 -0.9765
15185TIP3    H266971   5.675   5.138  14.459  1.0905 -0.2430  0.0353
15186TIP3   OH266972   5.410   4.319   5.657  1.0174 -0.3254  0.4941
15186TIP3    H166973   5.348   4.301   5.728  1.9341 -0.6612  1.2398
15186TIP3    H266974   5.357   4.319   5.578  0.3209 -2.4419  0.8941
15187TIP3   OH266975   5.336   3.072   5.222  0.3918  0.5758 -0.0243
15187TIP3    H166976   5.326   3.063   5.317 -0.7727 -2.0453 -0.2983
15187TIP3    H266977   5.426   3.100   5.210  0.4918  1.2107  1.8529
15188TIP3   OH266978   3.650   5.151  15.698  0.5655 -0.1020  0.2000
15188TIP3    H166979   3.669   5.240  15.728 -0.0192  0.2442 -0.4189
15188TIP3    H266980   3.572   5.125  15.746  1.2422 -0.6397  1.0429
15189TIP3   OH266981   4.687   0.181   0.888 -0.2619  1.0209  0.0357
15189TIP3    H166982   4.698   0.149   0.977  0.3222  1.2380  0.0454
15189TIP3    H266983   4.592   0.184   0.875 -0.3283 -0.4358  0.1220
15190TIP3   OH266984   4.299   5.692  12.159  0.5008  0.1600 -0.1555
15190TIP3    H166985   4.362   5.764  12.160  0.0799  0.5549  1.8436
15190TIP3    H266986   4.351   5.615  12.134  1.0084  1.0720 -2.0706
15191TIP3   OH266987   0.462   3.434   4.141 -0.3072  0.1711 -0.3778
15191TIP3    H166988   0.525   3.367   4.114  0.0409  0.6426 -0.7325
15191TIP3    H266989   0.462   3.429   4.237  0.7535  0.6013 -0.3451
15192TIP3   OH266990   1.212   2.840  15.253  0.3001 -0.3747  0.2429
15192TIP3    H166991   1.205   2.933  15.274  0.8120 -0.1164 -0.6852
15192TIP3    H266992   1.286   2.809  15.305 -0.5241 -0.5241  1.3678
15193TIP3   OH266993   6.165   2.574   0.464  0.7173  0.7126  0.2308
15193TIP3    H166994   6.092   2.605   0.517 -0.7948 -0.4714 -1.0828
15193TIP3    H266995   6.240   2.575   0.524 -0.9965 -0.9834  2.5739
15194TIP3   OH266996   4.107   0.225   4.941 -0.0897 -0.1212  0.3162
15194TIP3    H166997   4.064   0.306   4.968 -1.3389 -0.2877 -1.0524
15194TIP3    H266998   4.049   0.155   4.970 -0.1770 -0.4084 -0.5217
15195TIP3   OH266999   2.198   1.131   0.092 -0.2000 -0.1829 -0.0692
15195TIP3    H167000   2.161   1.106   0.176 -0.2934  1.1965  0.3215
15195TIP3    H267001   2.291   1.109   0.100  0.1991  1.7427  1.1693
15196TIP3   OH267002   6.478   0.685   3.948  0.1142  0.2977  0.0437
15196TIP3    H167003   6.470   0.775   3.914 -0.4044  1.1802  2.3011
15196TIP3    H267004   6.396   0.670   3.995  0.5103 -1.0748  0.3357
15197TIP3   OH267005   6.699   6.506   3.563 -0.0193 -0.3836  0.2593
15197TIP3    H167006   6.683   6.469   3.649  0.0714  2.0334  1.4201
15197TIP3    H267007   6.679   6.599   3.573  3.4635  0.7237 -1.2941
15198TIP3   OH267008   6.524   4.783   0.651 -0.0085 -0.0421  0.1638
15198TIP3    H167009   6.436   4.820   0.655  0.9138  2.2512  2.2658
15198TIP3    H267010   6.527   4.719   0.721  0.8502  2.3314  2.4756
15199TIP3   OH267011   4.951   0.060  14.953  0.3820  0.2025 -0.0822
15199TIP3    H167012   4.962   0.152  14.929  0.2269  0.3785  0.4871
15199TIP3    H267013   4.918   0.018  14.874 -0.1367  0.7586 -0.1690
15200TIP3   OH267014   3.163   6.108  11.792 -0.7913  0.1048 -0.0354
15200TIP3    H167015   3.148   6.057  11.872  0.4943  0.5215  0.5071
15200TIP3    H267016   3.113   6.062  11.725  0.7354 -2.2504  0.3026
15201TIP3   OH267017   3.693   5.624   5.356  0.0900 -0.0974 -0.3349
15201TIP3    H167018   3.656   5.582   5.433 -2.4495  0.6305 -1.0682
15201TIP3    H267019   3.725   5.551   5.302  1.1386 -0.6573  0.9923
15202TIP3   OH267020   0.539   3.976  10.642  0.0106 -0.3212  0.3113
15202TIP3    H167021   0.524   3.896  10.591  2.3307 -0.2473 -0.6224
15202TIP3    H267022   0.634   3.979  10.655  0.0091  2.2999  0.2852
15203TIP3   OH267023   2.696   0.093  11.809  0.6375  0.2191  0.4329
15203TIP3    H167024   2.616   0.052  11.842  0.6933  2.2168  3.3732
15203TIP3    H267025   2.667   0.150  11.738 -0.0913 -1.1678 -0.4232
15204TIP3   OH267026   0.765   3.971   5.562  0.6434  0.3844 -0.0993
15204TIP3    H167027   0.701   3.940   5.498  0.3850  0.0182  0.3257
15204TIP3    H267028   0.714   3.990   5.640  0.9568  0.8167  0.0050
15205TIP3   OH267029   4.099   3.819  11.547  0.3460  0.8417 -0.6128
15205TIP3    H167030   4.021   3.833  11.601 -0.9574  0.1746 -2.2264
15205TIP3    H267031   4.116   3.904  11.507  0.1534  0.8761 -0.6228
15206TIP3   OH267032   4.412   1.307   3.971 -0.0815 -0.3536 -0.4829
15206TIP3    H167033   4.413   1.237   4.036  0.2811 -0.0729 -0.1801
15206TIP3    H267034   4.498   1.301   3.928 -0.0478 -0.0939 -0.4538
15207TIP3   OH267035   4.274   4.922   1.009 -0.1645  0.1329  0.9119
15207TIP3    H167036   4.355   4.904   1.057  1.0044 -0.9791 -1.2832
15207TIP3    H267037   4.280   5.014   0.984  0.9897 -0.1858 -0.0993
15208TIP3   OH267038   4.510   2.467  12.216 -0.5754  0.4110 -0.2337
15208TIP3    H167039   4.488   2.401  12.283  0.1639 -0.0245 -0.4136
15208TIP3    H267040   4.518   2.549  12.266 -1.3940  0.3644  0.0063
15209TIP3   OH267041   4.981   1.534   3.876 -0.4649  0.0189  0.0221
15209TIP3    H167042   5.040   1.483   3.931 -1.7320  0.1202  1.5551
15209TIP3    H267043   5.019   1.529   3.788  1.3081 -0.6394  0.7872
15210TIP3   OH267044   1.055   3.698  13.508  0.4891 -0.7176 -0.2647
15210TIP3    H167045   1.132   3.663  13.551  0.3932  0.4397  0.8991
15210TIP3    H267046   1.075   3.692  13.414  3.4694  2.6111 -0.0378
15211TIP3   OH267047   0.324   2.560   1.972 -0.0853  0.0285 -0.4870
15211TIP3    H167048   0.261   2.533   1.906 -1.0532  0.4826  0.2321
15211TIP3    H267049   0.286   2.533   2.055 -0.8180  2.8751  0.2254
15212TIP3   OH267050   5.896   5.695   1.525  0.7995  0.4287  0.1786
15212TIP3    H167051   5.935   5.630   1.466 -0.1081 -0.4039  0.4657
15212TIP3    H267052   5.888   5.649   1.608 -1.7300  0.1936 -0.1230
15213TIP3   OH267053   2.614   0.623  11.030 -0.7654  0.1376  0.0446
15213TIP3    H167054   2.645   0.654  11.116 -2.2112 -2.8939  1.8433
15213TIP3    H267055   2.518   0.621  11.039 -0.8943 -1.0430 -1.3084
15214TIP3   OH267056   6.234   2.677   4.934  0.2251  0.6337  0.3540
15214TIP3    H167057   6.189   2.702   4.853  0.1251  0.9012  0.4882
15214TIP3    H267058   6.326   2.672   4.910 -0.0775 -2.2638 -0.4995
15215TIP3   OH267059   4.853   0.676  14.767 -0.1610  0.3992 -0.1368
15215TIP3    H167060   4.920   0.744  14.779  0.2781  0.3451 -1.9941
15215TIP3    H267061   4.881   0.628  14.689 -1.0840 -1.2008  0.4780
15216TIP3   OH267062   6.233   0.197  13.176  0.5090  0.5270 -0.3199
15216TIP3    H167063   6.153   0.186  13.226  0.5652 -0.0342 -0.3533
15216TIP3    H267064   6.224   0.284  13.136 -0.1696  0.3861 -0.4868
15217TIP3   OH267065   2.145   4.046  10.429  0.1072  0.0139 -0.5863
15217TIP3    H167066   2.192   4.119  10.468  0.4308 -0.3976 -0.1910
15217TIP3    H267067   2.191   4.028  10.347  1.6322 -1.3780  0.5229
15218TIP3   OH267068   2.910   4.105  12.502 -0.0549 -0.1118  0.8489
15218TIP3    H167069   2.948   4.127  12.417 -1.0660 -0.5133  0.2695
15218TIP3    H267070   2.982   4.066  12.551  0.1536 -1.5014 -0.4727
15219TIP3   OH267071   3.233   4.515   4.952  0.1325  0.4303  0.0122
15219TIP3    H167072   3.194   4.499   4.866  1.3246 -1.4600 -0.2214
15219TIP3    H267073   3.236   4.429   4.994 -0.1337  1.2523  1.8546
15220TIP3   OH267074   6.622   3.153  15.195  0.1055 -0.1440 -0.4891
15220TIP3    H167075   6.539   3.111  15.172 -1.0808  1.6735  0.2622
15220TIP3    H267076   6.680   3.081  15.217 -1.6273 -1.4347  0.0835
15221TIP3   OH267077   0.683   5.508  12.808 -0.5555 -0.0666  0.0497
15221TIP3    H167078   0.706   5.589  12.763  1.0340 -0.9958 -0.9442
15221TIP3    H267079   0.723   5.516  12.894 -0.3060  0.1814 -0.0875
15222TIP3   OH267080   3.563   3.648  11.649 -0.0462  0.0521 -0.5905
15222TIP3    H167081   3.610   3.623  11.729  0.3029  1.4564 -0.3257
15222TIP3    H267082   3.493   3.707  11.679 -0.7341 -0.4400 -1.1904
15223TIP3   OH267083   3.780   1.919   4.012 -0.8908  0.4420 -0.1456
15223TIP3    H167084   3.689   1.926   3.985 -1.5680  0.5313  1.9841
15223TIP3    H267085   3.801   1.826   4.001 -0.9140  0.5778 -1.5094
15224TIP3   OH267086   6.022   6.468   2.791  0.1551  0.9867  0.0857
15224TIP3    H167087   5.968   6.431   2.861  1.4578 -1.9452 -0.3014
15224TIP3    H267088   5.972   6.452   2.711  0.1998  1.1233  0.0308
15225TIP3   OH267089   2.382   0.519  15.814  0.8517 -0.0688  0.3437
15225TIP3    H167090   2.346   0.607  15.815  1.1929  0.0867  2.1654
15225TIP3    H267091   2.345   0.479  15.735 -1.9618  0.6178  1.1947
15226TIP3   OH267092   2.792   4.979   0.932  0.4536  0.8862  0.0785
15226TIP3    H167093   2.793   4.884   0.947  1.0153  0.6255 -1.4244
15226TIP3    H267094   2.784   5.017   1.020  1.3767 -0.5199  0.8174
15227TIP3   OH267095   3.480   5.105  15.936  0.1705 -0.2800  0.5660
15227TIP3    H167096   3.424   5.070  16.005 -0.3011  0.0090  0.3317
15227TIP3    H267097   3.469   5.200  15.942 -2.3452 -0.2872 -1.9013
15228TIP3   OH267098   0.428   6.587  12.665  0.1825  0.0098 -0.2203
15228TIP3    H167099   0.370   6.649  12.710  2.7242  1.1348  1.7465
15228TIP3    H267100   0.421   6.507  12.717 -1.3938 -0.7019 -1.4477
15229TIP3   OH267101   1.138   1.453   4.816 -0.0969  0.1415  0.4945
15229TIP3    H167102   1.087   1.488   4.744 -0.2938  0.7360  0.9155
15229TIP3    H267103   1.152   1.361   4.793  0.6161  0.5321 -0.7319
15230TIP3   OH267104   0.940   0.171  13.527  0.0743  0.5559  0.1841
15230TIP3    H167105   0.945   0.162  13.432  0.5266  0.1897  0.2366
15230TIP3    H267106   0.966   0.262  13.544 -1.0008  0.9332 -0.1063
15231TIP3   OH267107   1.734   5.468  11.457 -0.5191 -0.3182 -0.2858
15231TIP3    H167108   1.734   5.405  11.529 -0.2306  1.3054  1.1994
15231TIP3    H267109   1.811   5.444  11.404 -0.9539 -1.7626 -0.3073
15232TIP3   OH267110   3.163   5.782   2.324 -0.5468  0.9738 -0.0877
15232TIP3    H167111   3.177   5.695   2.285  0.8847  0.2214  1.8988
15232TIP3    H267112   3.115   5.831   2.257  0.3046 -0.7191 -2.0583
15233TIP3   OH267113   3.459   5.715  11.690  0.1762 -0.5842 -0.2273
15233TIP3    H167114   3.438   5.725  11.597  0.2434  0.5603 -0.1267
15233TIP3    H267115   3.547   5.752  11.699 -0.2739  0.3582  0.4861
15234TIP3   OH267116   5.915   0.322   2.860  0.0379 -0.4273  0.0716
15234TIP3    H167117   5.860   0.260   2.908  0.5599 -0.1101  1.1198
15234TIP3    H267118   5.873   0.331   2.774 -1.7096  0.0066  0.9223
15235TIP3   OH267119   2.418   6.697   3.506  0.1859  0.2066  0.0574
15235TIP3    H167120   2.426   6.618   3.560 -0.6064  2.7169  4.3280
15235TIP3    H267121   2.335   6.686   3.459 -0.3202 -1.1835  1.2043
15236TIP3   OH267122   1.209   0.806  14.442 -0.6022 -0.0276 -0.5713
15236TIP3    H167123   1.196   0.822  14.348  1.6428 -2.0358 -1.3422
15236TIP3    H267124   1.243   0.716  14.446  4.0827  1.5641  1.6542
15237TIP3   OH267125   5.715   4.075   3.287 -0.1281 -0.0123 -0.2294
15237TIP3    H167126   5.653   4.007   3.259 -0.3858  0.3100 -0.4596
15237TIP3    H267127   5.686   4.100   3.375 -0.8313  0.6974 -0.6376
15238TIP3   OH267128   2.401   2.909  11.278 -0.0915  0.2843 -0.5564
15238TIP3    H167129   2.367   2.914  11.189 -1.4963  1.2092 -0.0050
15238TIP3    H267130   2.324   2.925  11.334  0.8264  0.0961  0.8085
15239TIP3   OH267131   3.096   0.738  16.073 -0.4179  0.0579 -0.0934
15239TIP3    H167132   3.125   0.663  16.124  1.4483  1.0633  0.4374
15239TIP3    H267133   3.036   0.785  16.130 -0.0802 -0.0039  0.3132
15240TIP3   OH267134   3.438   5.944  14.988 -0.2412 -0.2598 -0.8339
15240TIP3    H167135   3.450   5.999  14.910  0.8437  0.5494 -0.1373
15240TIP3    H267136   3.395   6.002  15.051  2.3074  0.4096  0.4537
15241TIP3   OH267137   0.947   0.232  12.744  0.1720  0.5333  0.1230
15241TIP3    H167138   0.897   0.242  12.825  0.7748  0.7482  0.4733
15241TIP3    H267139   0.979   0.141  12.746 -1.2953 -0.0480 -0.7476
15242TIP3   OH267140   4.318   6.256  17.123  0.1370  0.4106 -0.3643
15242TIP3    H167141   4.372   6.325  17.084  1.3503 -0.5201 -0.3953
15242TIP3    H267142   4.373   6.219  17.192  0.3977 -1.9048 -1.6986
15243TIP3   OH267143   1.030   0.385   3.688  0.1094 -0.1658 -0.5902
15243TIP3    H167144   1.117   0.344   3.690  0.2380  0.1049 -0.6362
15243TIP3    H267145   1.020   0.424   3.775  1.0236  1.8450 -1.3169
15244TIP3   OH267146   0.172   1.444   6.141 -0.0496  0.2740 -0.2758
15244TIP3    H167147   0.132   1.526   6.171  1.7691  0.9821  0.3219
15244TIP3    H267148   0.106   1.378   6.161 -1.2266  1.4678 -0.0022
15245TIP3   OH267149   5.932   5.831   1.023  0.1576 -0.6344  0.5028
15245TIP3    H167150   5.919   5.858   0.932 -1.3035 -0.1640  0.8133
15245TIP3    H267151   5.970   5.743   1.016  1.2765 -0.1004 -0.5360
15246TIP3   OH267152   4.654   2.126  14.570 -0.5129 -0.3386  0.2589
15246TIP3    H167153   4.658   2.054  14.507  1.6434  0.6580 -0.8288
15246TIP3    H267154   4.742   2.132  14.607 -0.8953  1.1163  1.0317
15247TIP3   OH267155   5.641   4.228  13.639  0.1966  0.0934  0.1158
15247TIP3    H167156   5.561   4.225  13.692 -0.1229  1.6845 -0.2174
15247TIP3    H267157   5.691   4.300  13.678  2.8820 -2.6552  2.2038
15248TIP3   OH267158   1.309   2.094   1.764  0.3997 -0.7499 -0.3466
15248TIP3    H167159   1.303   2.187   1.784  0.0415 -0.2165 -2.6469
15248TIP3    H267160   1.219   2.062   1.769  0.5043 -0.9685  0.2988
15249TIP3   OH267161   3.121   2.074  16.523 -0.7244  0.1456  0.3297
15249TIP3    H167162   3.186   2.080  16.594 -3.2817 -2.3905  3.1443
15249TIP3    H267163   3.172   2.047  16.446  1.9156  1.1548  1.5913
15250TIP3   OH267164   0.791   1.301   0.109  0.4505  0.1040 -0.5656
15250TIP3    H167165   0.756   1.266   0.027 -0.4559 -1.6806  0.5190
15250TIP3    H267166   0.869   1.249   0.127  0.9280  0.8187 -0.5286
15251TIP3   OH267167   0.568   4.577   3.168  0.0447 -0.1371  0.4346
15251TIP3    H167168   0.591   4.583   3.261 -0.5833 -1.1789  0.6760
15251TIP3    H267169   0.475   4.554   3.168 -0.3719  1.3696 -0.4853
15252TIP3   OH267170   0.859   4.540   0.285 -0.1682  0.2239  0.4633
15252TIP3    H167171   0.942   4.504   0.318  1.2569  0.5691 -2.4298
15252TIP3    H267172   0.886   4.609   0.224 -2.6537  1.1578  0.3015
15253TIP3   OH267173   4.056   5.117   1.335  0.2238 -0.1083  0.3954
15253TIP3    H167174   4.024   5.206   1.349  2.3287  0.8202 -0.2961
15253TIP3    H267175   4.012   5.089   1.255 -0.0320  0.5201  0.3061
15254TIP3   OH267176   3.983   2.389   1.854  0.5925 -0.0619  0.0034
15254TIP3    H167177   3.937   2.466   1.887  0.4945 -1.2404  3.0006
15254TIP3    H267178   4.067   2.422   1.822  0.5979  1.3244  1.3253
15255TIP3   OH267179   2.689   0.136   2.295 -0.1151 -0.2577  0.2939
15255TIP3    H167180   2.676   0.093   2.210  1.3426  0.0379 -0.1115
15255TIP3    H267181   2.668   0.069   2.360 -0.6731 -0.6690 -0.3019
15256TIP3   OH267182   6.685   6.171  13.624  0.5669 -0.2232 -0.0793
15256TIP3    H167183   6.603   6.149  13.580  1.0460 -1.6775 -0.2753
15256TIP3    H267184   6.657   6.209  13.708 -0.3091  0.9292 -0.8556
15257TIP3   OH267185   6.522   1.606   0.797  0.4073 -0.3063  0.0419
15257TIP3    H167186   6.472   1.551   0.738 -0.3161  0.8017 -0.4185
15257TIP3    H267187   6.570   1.666   0.739  1.3045 -0.5414  0.5164
15258TIP3   OH267188   5.579   0.887   3.164 -0.6190  0.1428 -0.0424
15258TIP3    H167189   5.648   0.850   3.219  0.0215 -0.3423 -1.1339
15258TIP3    H267190   5.499   0.877   3.216  0.0107  0.0481  0.9448
15259TIP3   OH267191   6.318   0.316   5.787 -0.2712 -0.7376  0.1288
15259TIP3    H167192   6.292   0.354   5.703 -2.6264 -0.8094  0.7405
15259TIP3    H267193   6.235   0.289   5.828  0.2419  2.6440  4.1064
15260TIP3   OH267194   0.394   5.833   5.758  0.0245 -0.1277  0.2975
15260TIP3    H167195   0.479   5.791   5.768  0.4925  0.5847 -0.5152
15260TIP3    H267196   0.354   5.828   5.845  0.9248 -0.3957  0.7112
15261TIP3   OH267197   5.762   5.497   0.269  0.0764  0.1051  0.0022
15261TIP3    H167198   5.728   5.408   0.257 -0.1004  0.1093  0.4808
15261TIP3    H267199   5.763   5.510   0.363  3.7127 -0.8035  0.2327
15262TIP3   OH267200   5.559   3.987  14.495  0.2620 -0.0181 -0.5789
15262TIP3    H167201   5.618   3.919  14.528  1.9482  1.1013 -1.1261
15262TIP3    H267202   5.490   3.994  14.562  0.9199 -1.1616  0.2488
15263TIP3   OH267203   0.536   4.154   4.384  0.0444 -0.0219  0.0479
15263TIP3    H167204   0.511   4.171   4.293  1.2204 -1.2674 -0.5391
15263TIP3    H267205   0.631   4.143   4.381  0.0282 -0.6473  1.3346
15264TIP3   OH267206   4.530   0.992  17.054  0.1078 -0.0982 -0.2389
15264TIP3    H167207   4.600   0.998  16.989  0.1055 -1.9101 -0.4675
15264TIP3    H267208   4.491   1.080  17.056  2.2517  0.9037 -0.2176
15265TIP3   OH267209   1.335   2.862  11.192  0.9163 -0.2407  0.3466
15265TIP3    H167210   1.425   2.878  11.161  0.7680  3.1342  1.2038
15265TIP3    H267211   1.292   2.947  11.184 -2.1562 -1.6629  0.3086
15266TIP3   OH267212   6.518   1.105  14.466 -0.3177  0.2809  0.0361
15266TIP3    H167213   6.563   1.189  14.460  0.6896  0.0643  2.8075
15266TIP3    H267214   6.487   1.101  14.557 -0.4633 -2.2597 -0.0436
15267TIP3   OH267215   6.312   3.388  14.978 -0.4916  0.6879  0.0521
15267TIP3    H167216   6.263   3.409  15.058 -0.1801 -0.3925  0.5470
15267TIP3    H267217   6.249   3.341  14.923 -0.6595  1.2937 -0.2862
15268TIP3   OH267218   2.150   4.495   0.325  0.1094 -0.1641  0.3953
15268TIP3    H167219   2.141   4.441   0.403 -3.1907 -0.4356 -0.0254
15268TIP3    H267220   2.103   4.576   0.346  1.0019  0.6270 -0.5705
15269TIP3   OH267221   0.774   4.557  13.621 -0.0958  0.4147 -0.3519
15269TIP3    H167222   0.834   4.625  13.652  0.0770  0.6862 -1.2431
15269TIP3    H267223   0.771   4.570  13.526 -0.6393 -0.3569 -0.4459
15270TIP3   OH267224   3.792   1.105   2.940  0.2619 -0.4125  0.1483
15270TIP3    H167225   3.706   1.149   2.937 -0.0638 -1.0428  0.1782
15270TIP3    H267226   3.781   1.027   2.886  0.8416 -0.4615  0.0978
15271TIP3   OH267227   1.730   4.960   3.732 -0.9137  0.1958 -0.1916
15271TIP3    H167228   1.787   4.891   3.696 -1.2459 -0.2062  0.0515
15271TIP3    H267229   1.659   4.913   3.775 -0.1504  0.6538  1.6361
15272TIP3   OH267230   6.413   1.594   4.673 -0.1342  0.2169  0.5135
15272TIP3    H167231   6.356   1.519   4.655  0.4462 -0.5950  1.9211
15272TIP3    H267232   6.451   1.616   4.588 -1.6595  0.0680 -0.2496
15273TIP3   OH267233   2.818   1.227  13.567  0.6827 -0.3603 -0.5286
15273TIP3    H167234   2.739   1.196  13.613 -0.1370  0.6895 -1.1905
15273TIP3    H267235   2.805   1.321  13.560  1.4357 -0.3372 -1.7264
15274TIP3   OH267236   2.123   0.240  14.400  0.6252  0.2691 -0.6542
15274TIP3    H167237   2.211   0.256  14.433  1.3298 -1.3998 -1.6213
15274TIP3    H267238   2.128   0.259  14.306  0.1343 -0.3716 -0.8225
15275TIP3   OH267239   3.037   2.703  12.035  0.0820 -0.3176  0.0315
15275TIP3    H167240   3.079   2.623  12.067  0.2434 -0.5290 -0.6927
15275TIP3    H267241   2.945   2.692  12.058  0.3741  0.0831  1.4999
15276TIP3   OH267242   6.786   3.377  12.178 -0.3960  0.1649 -0.4329
15276TIP3    H167243   6.880   3.379  12.199 -0.5241 -1.4857  0.4958
15276TIP3    H267244   6.782   3.337  12.091 -0.2021  1.4071 -1.0415
15277TIP3   OH267245   6.205   2.451   5.108  0.3288 -0.3501 -0.0570
15277TIP3    H167246   6.275   2.404   5.063 -0.1756 -0.0261 -1.1976
15277TIP3    H267247   6.212   2.541   5.078 -0.2097 -0.1850  0.2819
15278TIP3   OH267248   6.109   1.336   1.849  0.3941 -0.2813 -0.5616
15278TIP3    H167249   6.138   1.412   1.799 -0.9528  0.6155 -0.0333
15278TIP3    H267250   6.190   1.293   1.877  1.2694  2.0581  0.7953
15279TIP3   OH267251   1.919   6.546   4.176  0.5003 -0.0711  0.2466
15279TIP3    H167252   1.953   6.635   4.171  2.6880 -0.7964  0.8772
15279TIP3    H267253   1.919   6.515   4.085 -0.4433  0.6131  0.0058
15280TIP3   OH267254   4.499   4.548  16.888 -0.2016 -0.1977  0.4609
15280TIP3    H167255   4.551   4.487  16.941 -0.1023  0.8753  1.6305
15280TIP3    H267256   4.549   4.629  16.888 -1.7047  0.7679  1.3509
15281TIP3   OH267257   5.820   1.617  13.707 -0.3210 -0.3946  0.0121
15281TIP3    H167258   5.739   1.650  13.747  1.4357  0.8243  2.8000
15281TIP3    H267259   5.821   1.524  13.728 -1.3058 -0.6011 -0.7290
15282TIP3   OH267260   3.937   2.927  15.935 -0.3191 -0.0340  0.3364
15282TIP3    H167261   3.974   3.012  15.960 -0.4653 -0.0659  0.6693
15282TIP3    H267262   3.845   2.932  15.962 -0.6705  0.1929 -0.8454
15283TIP3   OH267263   2.630   5.493  14.530  0.1799 -0.1545 -1.1091
15283TIP3    H167264   2.567   5.565  14.543  0.8740  0.1196  1.0306
15283TIP3    H267265   2.701   5.533  14.479  1.5631  1.3739  1.8036
15284TIP3   OH267266   3.412   0.179   4.056 -0.1770  0.5980 -0.0315
15284TIP3    H167267   3.486   0.139   4.101 -0.2355  0.1212 -0.3441
15284TIP3    H267268   3.369   0.232   4.122 -0.1700  0.0282  0.4383
15285TIP3   OH267269   2.672   2.041  14.756  0.1295  0.0378  0.1434
15285TIP3    H167270   2.592   1.991  14.744  0.2304 -0.6453  1.9442
15285TIP3    H267271   2.740   1.992  14.710  0.1059 -1.2034  1.3598
15286TIP3   OH267272   1.113   1.738  14.455 -0.7435 -0.2497 -0.1500
15286TIP3    H167273   1.132   1.719  14.363 -0.0210  1.2548 -0.3634
15286TIP3    H267274   1.018   1.738  14.461 -0.8087  0.0516 -1.0111
15287TIP3   OH267275   3.756   6.702   2.190 -0.0450 -0.0429  0.2337
15287TIP3    H167276   3.695   6.773   2.208  0.5178  0.3062  0.8177
15287TIP3    H267277   3.769   6.659   2.274  1.5268  0.7224  0.4113
15288TIP3   OH267278   4.363   5.807  12.695 -0.4284  0.5297 -0.3849
15288TIP3    H167279   4.334   5.825  12.606 -1.1482  0.8649 -0.0869
15288TIP3    H267280   4.452   5.772  12.685  0.5381  3.0175 -1.0628
15289TIP3   OH267281   5.523   6.603  15.384  0.3432 -0.1401 -0.0218
15289TIP3    H167282   5.509   6.510  15.401  0.9288 -0.2156  0.0384
15289TIP3    H267283   5.585   6.606  15.312 -0.3357  0.2023 -0.6142
15290TIP3   OH267284   1.958   4.028   0.304 -0.0309  0.5551 -0.4441
15290TIP3    H167285   1.900   4.101   0.282 -1.1766 -0.1295  0.1785
15290TIP3    H267286   1.898   3.958   0.332  1.0060 -0.7833 -1.4626
15291TIP3   OH267287   4.891   5.259   3.429 -0.1330 -0.1586  0.1408
15291TIP3    H167288   4.899   5.228   3.519 -0.3431 -0.1845  0.1509
15291TIP3    H267289   4.799   5.246   3.407 -0.5020  1.4708  0.5305
15292TIP3   OH267290   1.593   4.059   5.423 -0.1919  0.2506  0.4938
15292TIP3    H167291   1.579   4.025   5.511 -0.4296  0.1898  0.4321
15292TIP3    H267292   1.555   4.146   5.424  1.0749  0.8208  0.8711
15293TIP3   OH267293   1.475   0.790   2.780 -0.0774  0.4315  0.7415
15293TIP3    H167294   1.538   0.794   2.852 -0.2294  1.6806  0.8418
15293TIP3    H267295   1.463   0.882   2.755 -1.4800  0.1743  0.3960
15294TIP3   OH267296   2.492   3.159   2.896  0.6590 -0.1856 -0.1788
15294TIP3    H167297   2.423   3.218   2.865  0.5028  0.5732  1.5154
15294TIP3    H267298   2.448   3.103   2.960  0.9357 -1.8032 -1.3607
15295TIP3   OH267299   4.236   6.763  16.098 -0.2865 -0.0093 -0.2488
15295TIP3    H167300   4.246   6.856  16.117 -0.1770  0.2000 -1.2584
15295TIP3    H267301   4.144   6.744  16.119 -0.7458  0.7076 -1.4936
15296TIP3   OH267302   2.221   0.590  13.162  0.1767  0.2142  0.0630
15296TIP3    H167303   2.243   0.636  13.081  0.9840  0.6045  0.4913
15296TIP3    H267304   2.128   0.606  13.175  0.4915  1.9923  0.3591
15297TIP3   OH267305   6.200   4.922  11.867 -0.0791 -0.6357 -0.6716
15297TIP3    H167306   6.126   4.934  11.808  1.0721 -3.2519 -2.8401
15297TIP3    H267307   6.274   4.960  11.820  0.2724  0.6770  0.8476
15298TIP3   OH267308   6.593   0.476   5.531 -0.8157  0.0781  0.3977
15298TIP3    H167309   6.558   0.538   5.595 -2.0596  1.1141 -1.1900
15298TIP3    H267310   6.535   0.401   5.536 -1.0515  0.2543  0.3403
15299TIP3   OH267311   2.176   5.293   1.197 -0.6428  0.4256  0.5429
15299TIP3    H167312   2.210   5.347   1.126 -2.2139  0.0307 -0.5737
15299TIP3    H267313   2.129   5.354   1.254 -1.7761  0.3683 -0.3083
15300TIP3   OH267314   4.794   1.654  12.036  0.5266 -0.1403  0.3731
15300TIP3    H167315   4.873   1.706  12.051  0.9085 -0.4004 -0.6528
15300TIP3    H267316   4.823   1.582  11.980 -0.3789 -0.3969  0.2203
15301TIP3   OH267317   2.851   3.070   2.985 -0.7116  0.1403  0.0682
15301TIP3    H167318   2.799   3.080   3.065  0.0643 -1.8567  0.8895
15301TIP3    H267319   2.816   3.136   2.925 -2.7675  0.2649  1.3102
15302TIP3   OH267320   2.875   4.478   5.803  0.1515 -0.0915 -0.0184
15302TIP3    H167321   2.885   4.417   5.730  1.0189 -0.4633  0.3877
15302TIP3    H267322   2.965   4.500   5.829 -0.0057 -1.8803  2.4744
15303TIP3   OH267323   5.620   3.399   0.599 -0.0625  0.6137 -0.0490
15303TIP3    H167324   5.614   3.487   0.562  0.3376  0.6568 -0.0206
15303TIP3    H267325   5.714   3.378   0.596 -0.2636 -0.2450 -1.0494
15304TIP3   OH267326   3.643   6.659  16.665 -0.3865  0.7013  0.0524
15304TIP3    H167327   3.594   6.582  16.638  0.8749 -0.4605  0.9213
15304TIP3    H267328   3.663   6.706  16.584 -0.2884 -0.4323 -0.5864
15305TIP3   OH267329   2.270   5.635  14.807 -0.4881 -0.1951  0.5331
15305TIP3    H167330   2.228   5.720  14.812 -3.1246 -1.3897  0.3431
15305TIP3    H267331   2.292   5.614  14.898 -1.7743 -0.1872  0.8602
15306TIP3   OH267332   1.231   3.733  11.931 -0.5175  0.2344  0.0525
15306TIP3    H167333   1.146   3.695  11.953  0.2259 -1.2452  0.5208
15306TIP3    H267334   1.259   3.686  11.853 -0.4079  1.1835 -0.4963
15307TIP3   OH267335   5.433   4.015   3.193 -0.8221 -0.0797  0.5865
15307TIP3    H167336   5.446   4.086   3.130 -0.5807 -0.4070  0.2633
15307TIP3    H267337   5.409   4.059   3.275  0.0156  0.4068  0.5714
15308TIP3   OH267338   4.101   0.677   3.552 -0.0536 -0.0789 -0.1482
15308TIP3    H167339   4.048   0.676   3.632  0.7058 -3.0307  0.4438
15308TIP3    H267340   4.043   0.643   3.485  0.4512 -1.4397  0.0742
15309TIP3   OH267341   2.026   4.952  12.746 -0.1544 -0.1220  0.2767
15309TIP3    H167342   2.112   4.934  12.707  0.1177  0.4589  0.5861
15309TIP3    H267343   2.027   5.047  12.761 -1.7062  0.2929 -1.7807
15310TIP3   OH267344   6.781   0.412   1.372  0.0954  0.0034  0.0940
15310TIP3    H167345   6.859   0.454   1.335 -0.1808  0.1172 -0.3676
15310TIP3    H267346   6.730   0.387   1.295 -2.8548  4.5012  0.1948
15311TIP3   OH267347   2.387   5.771  12.532  0.1467  0.0102  0.1310
15311TIP3    H167348   2.337   5.750  12.453  2.0955 -0.4584 -1.0363
15311TIP3    H267349   2.373   5.697  12.590  0.8105 -0.9093 -0.8568
15312TIP3   OH267350   5.729   3.264  15.546  0.2368 -0.8202  0.6396
15312TIP3    H167351   5.797   3.329  15.560 -1.1545  0.9567 -0.3675
15312TIP3    H267352   5.745   3.228  15.459 -0.4809  0.1191  0.1038
15313TIP3   OH267353   5.424   4.945   6.062 -0.3589 -0.4502  0.3153
15313TIP3    H167354   5.464   5.032   6.067  0.3582 -0.7978  0.6588
15313TIP3    H267355   5.393   4.928   6.151  0.8735 -1.1879  0.6176
15314TIP3   OH267356   6.108   0.794  14.953  0.3913 -0.5706 -0.5393
15314TIP3    H167357   6.147   0.790  15.041  1.3550 -0.2691 -0.9310
15314TIP3    H267358   6.036   0.856  14.962 -0.6917 -1.9194  0.4439
15315TIP3   OH267359   6.523   3.392   1.591  0.3307  0.0836  0.0410
15315TIP3    H167360   6.591   3.451   1.558 -0.5043  0.0560 -1.8581
15315TIP3    H267361   6.544   3.307   1.551 -0.2300 -0.1669  0.2689
15316TIP3   OH267362   5.824   1.093  14.740  0.6254 -0.0482  0.6226
15316TIP3    H167363   5.826   1.048  14.656  1.0715  0.7156  0.2114
15316TIP3    H267364   5.797   1.183  14.718 -0.9819 -0.2779  1.5060
15317TIP3   OH267365   2.611   0.082   0.577 -0.0087 -0.2682  0.4129
15317TIP3    H167366   2.667   0.159   0.568 -0.5809 -0.0027 -1.2868
15317TIP3    H267367   2.669   0.014   0.611  0.6701  0.7025  1.2631
15318TIP3   OH267368   0.969   2.527   2.227 -0.0544 -0.3956  0.6228
15318TIP3    H167369   0.952   2.594   2.293  0.1990  0.2815  0.0092
15318TIP3    H267370   0.996   2.575   2.149 -1.4678 -1.1029 -0.3491
15319TIP3   OH267371   4.965   4.600   5.164  0.4712 -0.9650  1.0472
15319TIP3    H167372   4.957   4.665   5.094  0.7762 -1.1353  0.8493
15319TIP3    H267373   4.879   4.597   5.205  0.2276 -1.0225  0.5367
15320TIP3   OH267374   0.362   2.114   1.298 -0.1449 -0.2515 -0.4327
15320TIP3    H167375   0.367   2.207   1.319 -0.0522 -0.0925 -1.1099
15320TIP3    H267376   0.444   2.095   1.252  0.9133 -1.2191  1.7132
15321TIP3   OH267377   1.125   4.249   2.681 -0.4306 -0.2720  0.0803
15321TIP3    H167378   1.132   4.345   2.684  0.6349 -0.3642  2.1087
15321TIP3    H267379   1.034   4.233   2.654 -0.5746  1.2895 -0.4949
15322TIP3   OH267380   3.460   1.007  12.452 -0.0924  0.4207  0.3340
15322TIP3    H167381   3.413   0.934  12.492  1.0479 -0.5117  0.0290
15322TIP3    H267382   3.530   0.965  12.402  0.1056  1.6962 -0.4846
15323TIP3   OH267383   1.146   1.756   5.163 -0.2278 -0.4889 -0.2312
15323TIP3    H167384   1.211   1.695   5.129  1.0974 -0.7011  2.4314
15323TIP3    H267385   1.195   1.817   5.217 -1.9009  1.2119 -0.5098
15324TIP3   OH267386   6.104   2.023  15.452 -0.5187  0.2300 -0.0665
15324TIP3    H167387   6.191   1.984  15.444 -0.1958  0.3151  2.3519
15324TIP3    H267388   6.045   1.948  15.463 -0.6404  0.2114 -0.8181
15325TIP3   OH267389   1.352   4.096  14.154  0.1510  0.2134  0.0413
15325TIP3    H167390   1.437   4.062  14.127 -0.8826 -1.4105 -1.3697
15325TIP3    H267391   1.297   4.087  14.076 -1.8347 -0.6604  1.4624
15326TIP3   OH267392   0.231   1.718  13.067 -0.2826  0.1602  0.1617
15326TIP3    H167393   0.211   1.724  13.160 -0.1971  0.8060  0.1417
15326TIP3    H267394   0.156   1.759  13.024  0.3432  1.1934  0.0186
15327TIP3   OH267395   6.250   4.774  13.149  0.4117 -0.1843 -0.2714
15327TIP3    H167396   6.313   4.720  13.100 -0.7288 -0.8146 -1.0931
15327TIP3    H267397   6.165   4.746  13.117 -0.3311  0.2453  1.2324
15328TIP3   OH267398   6.353   2.644   1.485  0.1303  0.1171 -0.0407
15328TIP3    H167399   6.260   2.662   1.476  0.0688  0.1733  0.6348
15328TIP3    H267400   6.364   2.619   1.577  0.5948 -1.0013 -0.3858
15329TIP3   OH267401   0.493   6.497  13.362  0.0006  0.1744  0.9003
15329TIP3    H167402   0.406   6.460  13.375  0.3991 -2.0249 -1.7149
15329TIP3    H267403   0.482   6.566  13.297  0.1043  0.3179  1.0350
15330TIP3   OH267404   3.548   6.261   5.227 -0.2031  0.2212 -0.6907
15330TIP3    H167405   3.595   6.300   5.154  1.3744  1.0435  0.7019
15330TIP3    H267406   3.605   6.274   5.302 -2.1028  0.1065  0.8515
15331TIP3   OH267407   5.408   3.341   1.752 -0.3616 -0.5604 -0.1211
15331TIP3    H167408   5.462   3.290   1.693 -0.0964 -1.5743  0.9666
15331TIP3    H267409   5.331   3.287   1.768 -0.5208 -0.2186  0.3072
15332TIP3   OH267410   3.967   4.534  16.593  0.3948 -0.3004 -0.0049
15332TIP3    H167411   3.908   4.493  16.657  0.7444  0.5379  0.8828
15332TIP3    H267412   4.026   4.587  16.646 -0.0571  1.3769 -1.1013
15333TIP3   OH267413   5.717   6.431   4.920 -0.3678 -0.2600  0.3423
15333TIP3    H167414   5.759   6.357   4.876 -1.4922  0.4506 -2.1180
15333TIP3    H267415   5.659   6.390   4.984  1.2334 -1.3571  1.1751
15334TIP3   OH267416   6.484   5.266   5.850 -0.3741 -0.3995 -0.3965
15334TIP3    H167417   6.440   5.317   5.918 -0.0050 -0.3830 -0.1684
15334TIP3    H267418   6.537   5.202   5.897 -1.9533 -2.0020 -0.6759
15335TIP3   OH267419   3.989   3.391  13.190  0.4563 -0.0305  0.5679
15335TIP3    H167420   3.965   3.387  13.097  2.6089 -1.3795 -0.0104
15335TIP3    H267421   3.975   3.482  13.215 -0.7517  0.2263 -0.8976
15336TIP3   OH267422   1.714   1.129   4.818 -0.2076  0.3897  0.0981
15336TIP3    H167423   1.658   1.054   4.833  1.6088 -1.4149 -1.4880
15336TIP3    H267424   1.756   1.146   4.902 -1.5582  0.4602  0.7755
15337TIP3   OH267425   3.047   5.912  11.650  0.1017 -0.1137 -0.0196
15337TIP3    H167426   2.962   5.919  11.606 -0.5772  2.1388  1.4354
15337TIP3    H267427   3.104   5.868  11.587 -1.5839  0.2622 -1.9116
15338TIP3   OH267428   0.306   4.163   3.415  0.2753  0.1241 -0.1583
15338TIP3    H167429   0.392   4.197   3.391  0.7908 -0.1087  1.2759
15338TIP3    H267430   0.273   4.225   3.480 -0.1494 -0.4106  0.1409
15339TIP3   OH267431   5.540   3.380  14.270 -0.3106  0.0280  0.2007
15339TIP3    H167432   5.451   3.412  14.252  0.6765  1.7915 -2.0156
15339TIP3    H267433   5.570   3.433  14.343 -0.1148  1.5092 -0.9000
15340TIP3   OH267434   3.775   4.866  12.761  0.1454 -0.4746  0.1056
15340TIP3    H167435   3.790   4.938  12.700 -0.8107 -0.5945 -0.2832
15340TIP3    H267436   3.721   4.904  12.830 -0.7974 -0.9247 -0.3617
15341TIP3   OH267437   3.376   4.567   1.578  0.0547 -0.1580 -0.1632
15341TIP3    H167438   3.420   4.488   1.611 -2.7924 -1.0966  1.8038
15341TIP3    H267439   3.297   4.534   1.536 -1.6179  1.5972  1.4195
15342TIP3   OH267440   1.045   2.146   3.533  0.3282 -0.0509  0.6825
15342TIP3    H167441   1.079   2.072   3.583 -0.8738 -1.3896 -0.4089
15342TIP3    H267442   1.081   2.133   3.445 -3.2152 -1.8184 -0.6736
15343TIP3   OH267443   5.183   5.643  13.144 -0.4004 -0.2407 -0.0507
15343TIP3    H167444   5.125   5.713  13.173 -1.4504 -0.8047 -0.7096
15343TIP3    H267445   5.221   5.675  13.063 -1.4218 -0.6702 -0.7310
15344TIP3   OH267446   3.490   1.695   6.771 -0.8843 -0.2634  0.5257
15344TIP3    H167447   3.446   1.644   6.839  0.3917  0.4233  1.9147
15344TIP3    H267448   3.500   1.633   6.698 -1.6633 -1.2153  1.2015
15345TIP3   OH267449   0.623   0.531   3.495  0.6725  0.3775 -0.3483
15345TIP3    H167450   0.708   0.569   3.473  0.2822  1.3748 -0.2085
15345TIP3    H267451   0.621   0.533   3.591  0.7379 -0.2166 -0.3329
15346TIP3   OH267452   0.061   5.051  12.293 -0.0830 -0.2587 -0.0010
15346TIP3    H167453  -0.006   5.114  12.264 -0.5593 -0.4224  0.7084
15346TIP3    H267454   0.038   4.970  12.249  0.6596  0.0950 -1.0887
15347TIP3   OH267455   5.377   6.624  15.017 -0.2088 -0.1424  0.3467
15347TIP3    H167456   5.464   6.642  14.984  0.7758 -0.2731  2.6748
15347TIP3    H267457   5.346   6.708  15.052 -1.5551  0.1905 -1.4851
15348TIP3   OH267458   6.308   5.226  14.321 -0.2857 -0.4953 -0.4227
15348TIP3    H167459   6.264   5.154  14.276 -2.2570 -0.1809  0.8957
15348TIP3    H267460   6.265   5.232  14.406  0.6313  1.4717 -0.0292
15349TIP3   OH267461   4.646   5.449  12.801 -0.0795  0.1992  0.0168
15349TIP3    H167462   4.598   5.467  12.721  1.3113 -1.8962 -1.4074
15349TIP3    H267463   4.596   5.379  12.843  0.0753  0.1553  0.1289
15350TIP3   OH267464   5.765   3.578  13.420 -0.0114  0.3266 -0.1188
15350TIP3    H167465   5.676   3.614  13.412  1.3600  5.0189  1.9637
15350TIP3    H267466   5.822   3.652  13.401  3.4704 -1.9241  0.6542
15351TIP3   OH267467   6.220   2.977   3.710 -0.4319  0.2466 -0.4766
15351TIP3    H167468   6.271   2.966   3.630  0.0316  0.1109 -0.1606
15351TIP3    H267469   6.279   3.019   3.772 -0.2376 -1.1583  0.3430
15352TIP3   OH267470   1.351   0.468   1.488  0.1770  0.3115  0.3998
15352TIP3    H167471   1.267   0.441   1.452  0.0552 -1.8352  2.1087
15352TIP3    H267472   1.415   0.439   1.424 -0.1888 -1.2711  0.7082
15353TIP3   OH267473   0.459   2.110   5.516 -0.7184  0.2038 -0.3366
15353TIP3    H167474   0.411   2.027   5.514 -1.1279  0.3818  1.1721
15353TIP3    H267475   0.398   2.172   5.555 -0.2634  1.1297 -1.0702
15354TIP3   OH267476   2.051   6.235   1.883 -0.6398 -0.1423 -0.1946
15354TIP3    H167477   2.026   6.310   1.938  1.2838 -0.6380  1.4837
15354TIP3    H267478   2.036   6.265   1.793 -0.8222  1.9082  0.4639
15355TIP3   OH267479   2.075   2.139  14.234  0.4745 -0.0506  0.3654
15355TIP3    H167480   2.068   2.227  14.196  0.0379 -1.0455 -1.9947
15355TIP3    H267481   2.160   2.107  14.205  0.4648 -0.5812  0.8911
15356TIP3   OH267482   5.784   3.779   0.312  0.4938  0.4165  0.1719
15356TIP3    H167483   5.852   3.783   0.245 -0.2366 -2.1698 -0.8532
15356TIP3    H267484   5.712   3.832   0.277  0.9522  0.9285 -0.0089
15357TIP3   OH267485   3.253   6.156   4.966 -0.2996 -0.8970  0.3187
15357TIP3    H167486   3.312   6.232   4.959 -0.7567 -0.5749 -0.1059
15357TIP3    H267487   3.311   6.082   4.983  0.3428 -0.7654 -1.1398
15358TIP3   OH267488   0.751   3.386  13.941 -0.2822 -0.0522  0.5583
15358TIP3    H167489   0.806   3.429  13.877  0.0751  1.1215  1.6161
15358TIP3    H267490   0.747   3.294  13.912  1.4481  0.0403 -0.0447
15359TIP3   OH267491   0.852   4.081   1.965  0.3203 -0.4458 -0.1129
15359TIP3    H167492   0.781   4.142   1.984 -0.4599 -0.8307 -1.6171
15359TIP3    H267493   0.884   4.054   2.051 -1.6434 -0.5909  0.6318
15360TIP3   OH267494   0.635   3.575   5.695 -0.6615  0.4607 -0.3786
15360TIP3    H167495   0.657   3.635   5.766 -0.9015 -0.0638  0.1448
15360TIP3    H267496   0.718   3.559   5.651 -0.2368 -0.3857  0.7083
15361TIP3   OH267497   5.878   3.708  13.937  0.0082 -0.0864 -0.5306
15361TIP3    H167498   5.834   3.664  14.010  0.2441  0.2816 -0.1612
15361TIP3    H267499   5.842   3.796  13.937 -0.1556 -0.1547 -1.0038
15362TIP3   OH267500   5.045   0.987  14.065 -0.3757 -0.6463  0.0753
15362TIP3    H167501   5.020   1.052  13.999  1.1972  0.6332  0.6879
15362TIP3    H267502   5.129   0.953  14.034 -0.5883 -1.4832  0.4086
15363TIP3   OH267503   6.727   1.799   2.602 -0.1944 -0.1273  0.4462
15363TIP3    H167504   6.753   1.729   2.542 -1.1165  0.1571 -0.3072
15363TIP3    H267505   6.641   1.773   2.634 -0.0268  0.0902  1.0822
15364TIP3   OH267506   2.498   1.792   0.016  0.2509 -0.7525 -0.7623
15364TIP3    H167507   2.412   1.751   0.020 -0.5294  0.9019 -0.0022
15364TIP3    H267508   2.559   1.720   0.032 -0.9890 -1.8724 -0.9030
15365TIP3   OH267509   5.541   5.065  10.551  0.0428  0.5030 -0.0604
15365TIP3    H167510   5.553   5.023  10.465  0.2110  1.3053 -0.4354
15365TIP3    H267511   5.605   5.023  10.608 -0.6022 -0.6014 -0.1138
15366TIP3   OH267512   4.738   0.459   0.001  0.3457 -0.2045  0.2331
15366TIP3    H167513   4.670   0.523  -0.023 -1.6578 -1.6320  1.7348
15366TIP3    H267514   4.795   0.507   0.060  1.7018  1.4979 -2.2676
15367TIP3   OH267515   1.415   1.024   3.302 -0.2109 -0.6293  0.0764
15367TIP3    H167516   1.371   1.012   3.386 -0.3201  1.2847  0.3296
15367TIP3    H267517   1.358   0.979   3.239 -1.6887  0.3855  0.6322
15368TIP3   OH267518   1.734   5.676  13.660  0.1506  0.4163 -0.4945
15368TIP3    H167519   1.663   5.692  13.723  0.1655 -0.9546 -0.0951
15368TIP3    H267520   1.720   5.741  13.592 -1.0893  0.6273 -0.0706
15369TIP3   OH267521   0.640   6.758  11.698  0.1972 -0.6922  0.3091
15369TIP3    H167522   0.569   6.815  11.669 -1.1643 -2.2820  0.3314
15369TIP3    H267523   0.687   6.735  11.618 -0.5301 -1.1645  0.0058
15370TIP3   OH267524   0.834   3.713  12.875  0.2833 -0.2261 -0.4402
15370TIP3    H167525   0.899   3.727  12.944  2.4007 -0.0778 -2.3376
15370TIP3    H267526   0.878   3.742  12.795 -2.1290 -0.2062 -1.8496
15371TIP3   OH267527   4.651   0.918  13.624 -0.4120 -0.6991 -0.0133
15371TIP3    H167528   4.692   0.906  13.709 -0.4211 -1.5421 -0.1171
15371TIP3    H267529   4.573   0.971  13.642 -0.0965 -0.3759  0.4067
15372TIP3   OH267530   0.094   1.121   5.378  0.0380 -0.0203  0.2192
15372TIP3    H167531   0.013   1.172   5.375 -0.5459 -0.9633 -0.3308
15372TIP3    H267532   0.163   1.187   5.381 -0.7494  0.8022  0.9676
15373TIP3   OH267533   6.038   6.518   0.199 -0.2056  0.2359 -0.4189
15373TIP3    H167534   5.954   6.481   0.227 -0.8967  1.6876 -0.4961
15373TIP3    H267535   6.041   6.503   0.104 -0.8882  1.1343 -0.5911
15374TIP3   OH267536   0.622   0.660   1.097 -0.1735 -0.1172  0.1767
15374TIP3    H167537   0.546   0.703   1.136  0.4007  0.0531  1.1272
15374TIP3    H267538   0.600   0.566   1.099 -0.9605  0.0269 -0.8965
15375TIP3   OH267539   6.134   3.252  14.788  0.5176  0.8370 -0.1381
15375TIP3    H167540   6.066   3.291  14.733 -1.1330  1.5276  2.2282
15375TIP3    H267541   6.105   3.162  14.801 -0.0976  1.1816  1.0181
15376TIP3   OH267542   0.402   4.067  13.115 -0.0082  0.1652 -0.9510
15376TIP3    H167543   0.459   4.128  13.069  0.3284 -0.3350 -1.2108
15376TIP3    H267544   0.440   4.058  13.202  0.7481 -0.7292 -1.3571
15377TIP3   OH267545   4.359   2.684   5.621  0.5481 -0.1598 -0.5843
15377TIP3    H167546   4.362   2.735   5.540  1.0187 -0.7732 -0.9600
15377TIP3    H267547   4.439   2.708   5.668  1.0116 -0.9010 -0.9825
15378TIP3   OH267548   4.646   2.429  14.550  0.5839 -0.4197 -0.5695
15378TIP3    H167549   4.706   2.358  14.574  1.8696  0.7261 -0.2480
15378TIP3    H267550   4.638   2.481  14.630 -0.8949 -0.5653 -0.5992
15379TIP3   OH267551   2.498   2.887  13.869 -0.0112  0.2563  0.0352
15379TIP3    H167552   2.430   2.908  13.806 -0.5333 -1.8425 -0.1696
15379TIP3    H267553   2.551   2.820  13.826  2.6110  2.2110 -0.0558
15380TIP3   OH267554   4.570   4.060   4.990 -0.8507 -0.0767 -0.6507
15380TIP3    H167555   4.487   4.105   4.976 -0.8291  0.2778  0.2446
15380TIP3    H267556   4.564   4.028   5.080 -0.3844 -0.8426 -0.8897
15381TIP3   OH267557   1.053   6.574  12.892  0.1373 -0.2139  0.3720
15381TIP3    H167558   1.041   6.599  12.984  0.0281 -0.8384  0.5336
15381TIP3    H267559   1.110   6.497  12.895  1.7215  0.8941 -0.2080
15382TIP3   OH267560   1.701   0.006  14.336  0.3048 -0.1637  0.3295
15382TIP3    H167561   1.621  -0.006  14.285  0.0574  0.9793  0.4212
15382TIP3    H267562   1.771  -0.022  14.278 -0.1528 -1.1770  0.2461
15383TIP3   OH267563   4.627   2.384   2.085 -0.5274  0.2716 -0.1287
15383TIP3    H167564   4.661   2.453   2.028  0.8645  0.3684  0.7679
15383TIP3    H267565   4.553   2.347   2.037 -0.7734  1.8146 -1.0088
15384TIP3   OH267566   6.170   6.423   2.517 -0.1445  0.0599 -0.5950
15384TIP3    H167567   6.239   6.488   2.530 -0.6399  0.3978  0.3972
15384TIP3    H267568   6.217   6.339   2.517  0.2033  0.2354  0.7907
15385TIP3   OH267569   2.350   1.372   4.784  0.4407 -0.4338  0.2749
15385TIP3    H167570   2.358   1.297   4.724  0.4719 -1.3795  1.4362
15385TIP3    H267571   2.398   1.345   4.862  0.5683  0.8686  0.6717
15386TIP3   OH267572   0.628   6.732   2.515  0.2088  0.3631 -0.1380
15386TIP3    H167573   0.721   6.721   2.495 -0.4379 -1.4122 -2.6834
15386TIP3    H267574   0.601   6.808   2.464  0.4323  1.6173  1.5225
15387TIP3   OH267575   0.087   6.536   4.800  0.0561 -0.0191 -0.0041
15387TIP3    H167576   0.180   6.549   4.815  0.4294 -1.1552 -1.0975
15387TIP3    H267577   0.057   6.484   4.875  0.7049 -1.1032 -0.4681
15388TIP3   OH267578   0.839   3.217  12.143  0.2454  0.1268 -0.0653
15388TIP3    H167579   0.776   3.273  12.188 -3.5268 -2.4743 -1.5277
15388TIP3    H267580   0.862   3.265  12.064 -0.3009  0.9760  0.2812
15389TIP3   OH267581   4.880   3.945  14.824  0.0368  0.6933  0.0724
15389TIP3    H167582   4.810   3.920  14.883 -0.8760  1.0278 -0.8328
15389TIP3    H267583   4.874   4.040  14.818 -0.3579  0.6201 -1.0816
15390TIP3   OH267584   0.353   4.063  17.125 -0.2066  0.3263 -0.6913
15390TIP3    H167585   0.321   4.039  17.212 -2.2481  0.2647 -1.4141
15390TIP3    H267586   0.436   4.108  17.142 -0.2529 -0.2118  1.2341
15391TIP3   OH267587   3.727   2.659   4.327 -0.6273  0.4285  0.3109
15391TIP3    H167588   3.716   2.606   4.248  2.2481 -1.9415  1.3349
15391TIP3    H267589   3.692   2.604   4.397  1.6114  0.1501  1.2877
15392TIP3   OH267590   6.075   1.057  14.467 -0.3012 -0.3642 -0.4182
15392TIP3    H167591   6.153   1.038  14.519  0.1601  0.6730 -0.6982
15392TIP3    H267592   6.011   0.992  14.495  0.5927 -1.0973 -0.0247
15393TIP3   OH267593   0.735   3.143   3.373  0.4430  0.0024  0.5579
15393TIP3    H167594   0.725   3.232   3.338 -0.6868 -0.3919 -0.1784
15393TIP3    H267595   0.757   3.156   3.465 -0.3469  1.0541  0.6162
15394TIP3   OH267596   4.688   5.565   3.364  0.3002  0.3217 -0.8312
15394TIP3    H167597   4.759   5.508   3.393  0.2442  0.4477 -0.4421
15394TIP3    H267598   4.721   5.605   3.283  1.3339  1.6209  0.2031
15395TIP3   OH267599   0.070   5.928   3.401  0.0317  0.2801 -0.3045
15395TIP3    H167600   0.014   5.872   3.348 -0.3891 -0.7883  1.1917
15395TIP3    H267601   0.137   5.869   3.435  1.9415  1.4878 -1.8314
15396TIP3   OH267602   6.404   2.207   3.356 -0.7290 -0.6396 -0.5559
15396TIP3    H167603   6.385   2.227   3.264 -1.9827  0.7326 -0.0422
15396TIP3    H267604   6.362   2.277   3.405 -1.2520 -2.0706  1.1580
15397TIP3   OH267605   4.345   5.024  14.759  0.4135 -0.3616  0.3378
15397TIP3    H167606   4.266   5.078  14.753 -0.5371 -1.6737  0.6480
15397TIP3    H267607   4.414   5.085  14.785 -0.7298  0.6008  1.2202
15398TIP3   OH267608   5.019   2.445  13.620  0.0028 -0.2645 -0.2671
15398TIP3    H167609   4.975   2.503  13.682  0.2696  0.1348 -0.4450
15398TIP3    H267610   5.065   2.381  13.675 -0.7658 -0.6707 -0.0806
15399TIP3   OH267611   5.428   0.623   1.018  0.1272  0.5801  0.2355
15399TIP3    H167612   5.337   0.594   1.030 -0.3440  2.0696  0.4572
15399TIP3    H267613   5.462   0.632   1.107  0.3536  0.4472  0.1622
15400TIP3   OH267614   3.353   6.312   0.924 -0.0281 -0.5599 -0.0110
15400TIP3    H167615   3.389   6.224   0.923  0.9172 -0.1834  0.1631
15400TIP3    H267616   3.421   6.366   0.965 -1.1687  0.0124  1.2099
15401TIP3   OH267617   1.022   5.960  13.662 -0.0712  0.1923  0.3087
15401TIP3    H167618   1.084   6.026  13.695 -0.7288  0.0216  2.0141
15401TIP3    H267619   0.936   5.999  13.678 -0.4420 -0.5617  0.1795
15402TIP3   OH267620   2.893   1.074   5.157  0.8327  0.3309 -0.5327
15402TIP3    H167621   2.856   1.007   5.215  1.3185 -0.9416 -1.6302
15402TIP3    H267622   2.827   1.087   5.089  0.2415  1.8539  0.3007
15403TIP3   OH267623   5.224   0.390   6.126  0.1547  0.3528  0.3580
15403TIP3    H167624   5.231   0.453   6.197 -1.3720 -1.6440  2.4264
15403TIP3    H267625   5.137   0.405   6.090  0.7469  1.0419 -0.8533
15404TIP3   OH267626   1.316   1.275   3.065 -0.3057 -0.6922 -0.1934
15404TIP3    H167627   1.239   1.329   3.048 -0.7244 -1.0641  0.4951
15404TIP3    H267628   1.286   1.209   3.128  0.8441 -0.1752  0.9281
15405TIP3   OH267629   5.122   2.790  13.350 -0.1169 -0.3035 -0.5120
15405TIP3    H167630   5.065   2.729  13.304 -1.5928  2.0066 -1.9650
15405TIP3    H267631   5.172   2.736  13.410 -2.3898 -2.7323 -0.6348
15406TIP3   OH267632   6.449   1.226   4.633 -0.3908 -0.4237 -0.1968
15406TIP3    H167633   6.419   1.235   4.723  1.8906 -0.2627  0.6211
15406TIP3    H267634   6.412   1.143   4.603 -0.7497 -0.7374  1.0754
15407TIP3   OH267635   4.425   4.977  13.155  0.5020  0.8009  0.7558
15407TIP3    H167636   4.474   4.904  13.117  0.4729  0.1895  1.8650
15407TIP3    H267637   4.357   4.936  13.207  0.4094  1.6257  1.3001
15408TIP3   OH267638   6.540   4.495  16.499  0.5680  0.3390  0.3065
15408TIP3    H167639   6.612   4.537  16.454  0.7901 -1.9838 -1.7287
15408TIP3    H267640   6.466   4.555  16.489  1.6540  1.7301  0.4736
15409TIP3   OH267641   2.636   3.958  12.273  0.2143  0.5671  0.2609
15409TIP3    H167642   2.637   4.043  12.227 -2.4666  0.5078 -0.0925
15409TIP3    H267643   2.587   3.900  12.214  0.4486 -0.7226  1.3060
15410TIP3   OH267644   5.489   6.552  15.663  0.1185 -0.2705 -0.2312
15410TIP3    H167645   5.577   6.513  15.665 -0.6195 -2.0574  0.0165
15410TIP3    H267646   5.486   6.602  15.582  1.1107 -0.8495 -0.6438
15411TIP3   OH267647   4.603   1.246  12.535 -0.1924 -0.3997 -0.1295
15411TIP3    H167648   4.605   1.316  12.600 -2.3401 -0.8600  0.5243
15411TIP3    H267649   4.628   1.288  12.453  4.0706 -0.1118  1.0926
15412TIP3   OH267650   3.917   4.980   0.747 -0.2287 -0.6887 -0.2677
15412TIP3    H167651   3.997   4.940   0.712  0.3504  1.1116 -1.1053
15412TIP3    H267652   3.876   5.022   0.672 -1.2831 -0.4761  0.4050
15413TIP3   OH267653   2.807   3.565  15.061  0.0568 -0.6616 -0.1629
15413TIP3    H167654   2.898   3.559  15.033  0.3660  1.4673  0.2026
15413TIP3    H267655   2.757   3.559  14.980  0.7273  1.0879 -0.7754
15414TIP3   OH267656   5.091   4.473   2.975 -0.3857 -0.5548 -0.1771
15414TIP3    H167657   5.050   4.429   2.900  0.0229 -2.2639  0.5591
15414TIP3    H267658   5.180   4.492   2.946 -0.0133 -1.8202  0.0555
15415TIP3   OH267659   6.137   2.630   4.615  0.8311  0.4085 -0.2813
15415TIP3    H167660   6.102   2.718   4.599  0.6925  0.2445 -0.8931
15415TIP3    H267661   6.218   2.627   4.564  1.3867  0.5410  0.5729
15416TIP3   OH267662   6.034   2.275   3.152 -0.1182 -0.5890 -0.1011
15416TIP3    H167663   6.002   2.257   3.063  0.7401 -0.4485 -0.4498
15416TIP3    H267664   6.030   2.190   3.196  0.3431 -0.8628 -0.5720
15417TIP3   OH267665   6.333   5.092  14.625 -0.7592 -0.6345  0.1928
15417TIP3    H167666   6.295   5.178  14.606 -2.3772 -1.2396  0.5504
15417TIP3    H267667   6.287   5.032  14.567  2.2784 -0.9975 -2.1460
15418TIP3   OH267668   5.985   1.856  16.450  0.6343  0.4333  0.0207
15418TIP3    H167669   5.961   1.804  16.526 -0.7207  0.6459 -0.2300
15418TIP3    H267670   6.071   1.892  16.471  1.8456 -2.2504  0.0070
15419TIP3   OH267671   3.532   6.132  16.121  0.3131  0.2945  0.0984
15419TIP3    H167672   3.522   6.216  16.076  0.5074  0.6456  0.6973
15419TIP3    H267673   3.519   6.153  16.214  0.3021 -0.3465  0.2436
15420TIP3   OH267674   6.657   6.627   4.358  0.5675 -0.0234  0.7899
15420TIP3    H167675   6.574   6.592   4.389 -1.0821  0.4585 -2.6794
15420TIP3    H267676   6.644   6.722   4.354  1.7877  0.2025  1.3880
15421TIP3   OH267677   5.357   3.525  15.104 -0.2829  0.2884  0.2560
15421TIP3    H167678   5.339   3.432  15.089 -0.6037  0.3645  0.1735
15421TIP3    H267679   5.276   3.560  15.139 -0.3296  0.6535 -0.2092
15422TIP3   OH267680   6.059   5.890   0.121 -0.6500  0.7589  0.0069
15422TIP3    H167681   6.000   5.888   0.046  0.0690  0.9092 -0.5787
15422TIP3    H267682   6.061   5.982   0.147  0.6251  1.0665 -1.0564
15423TIP3   OH267683   2.039   3.784   3.973 -0.0539  0.1118 -0.2586
15423TIP3    H167684   1.954   3.786   4.017  0.5995 -0.0077  1.0911
15423TIP3    H267685   2.038   3.860   3.915 -0.5693  0.9493  0.7939
15424TIP3   OH267686   0.447   1.126  12.601  0.2467  0.5025  0.0911
15424TIP3    H167687   0.418   1.217  12.608  1.5455  1.0550 -1.2446
15424TIP3    H267688   0.542   1.131  12.595  0.5417 -1.1045  2.0661
15425TIP3   OH267689   0.416   5.225   5.647  0.0337 -0.0758  0.0164
15425TIP3    H167690   0.487   5.238   5.709  1.6118  0.0611 -1.7155
15425TIP3    H267691   0.376   5.311   5.638 -0.8620 -0.3004  1.5251
15426TIP3   OH267692   1.131   0.078  11.353 -0.1630 -0.0122  0.5909
15426TIP3    H167693   1.039   0.100  11.339 -0.3731 -0.3534  1.3802
15426TIP3    H267694   1.144  -0.003  11.304  0.0156  0.6300 -0.4390
15427TIP3   OH267695   4.944   6.299  15.682  0.1081 -0.4446  0.6320
15427TIP3    H167696   5.031   6.330  15.656 -0.1643 -0.6237 -0.5400
15427TIP3    H267697   4.962   6.227  15.743  0.8797 -2.3029 -1.6227
15428TIP3   OH267698   4.604   5.286  10.755  0.2863 -0.3461  0.3312
15428TIP3    H167699   4.676   5.345  10.780  0.2801 -0.3004  0.2381
15428TIP3    H267700   4.552   5.278  10.835 -0.1725  0.4307  0.1171
15429TIP3   OH267701   4.847   3.653   3.647  0.2810  0.3722 -0.0469
15429TIP3    H167702   4.851   3.575   3.702  0.3559  1.4593  1.5404
15429TIP3    H267703   4.933   3.694   3.659  0.0674  0.9550 -0.4983
15430TIP3   OH267704   3.448   1.272  16.276  0.0062  0.2662 -0.3495
15430TIP3    H167705   3.397   1.192  16.262  0.1315  0.4262 -1.8898
15430TIP3    H267706   3.465   1.273  16.370 -0.7419 -1.0599 -0.1679
15431TIP3   OH267707   3.213   4.203  16.799  0.5976 -0.1996 -0.4589
15431TIP3    H167708   3.224   4.280  16.856  1.9707 -0.8755  0.2455
15431TIP3    H267709   3.286   4.210  16.736 -0.5274  0.1922 -1.7725
15432TIP3   OH267710   2.855   3.466  13.151 -0.0580 -0.2824  0.6373
15432TIP3    H167711   2.895   3.403  13.092 -1.4406 -0.7089  0.1290
15432TIP3    H267712   2.881   3.551  13.117  0.7444 -0.5453  0.5698
15433TIP3   OH267713   4.326   5.511  13.726 -0.0306 -0.8223  0.0347
15433TIP3    H167714   4.263   5.515  13.798  0.0872  2.3162  0.0858
15433TIP3    H267715   4.398   5.457  13.760 -0.8852 -1.1059  1.4822
15434TIP3   OH267716   4.380   4.602   1.297  0.3367 -0.1849  0.3485
15434TIP3    H167717   4.466   4.602   1.338 -0.2762 -2.9199  1.8779
15434TIP3    H267718   4.319   4.608   1.370 -0.7913 -0.5541 -0.5300
15435TIP3   OH267719   0.288   5.988  15.096 -0.7154  0.2159 -0.7461
15435TIP3    H167720   0.365   5.933  15.104 -1.1580 -0.5824 -1.7681
15435TIP3    H267721   0.284   6.036  15.179 -0.2240 -1.1549  0.0966
15436TIP3   OH267722   2.592   0.722   1.519 -0.2902  0.2472 -0.0263
15436TIP3    H167723   2.519   0.776   1.487 -1.0091 -0.4908  0.3342
15436TIP3    H267724   2.666   0.782   1.522 -0.8776  1.0131 -0.4212
15437TIP3   OH267725   0.055   1.827   5.964  0.2722  0.0095 -0.2908
15437TIP3    H167726   0.144   1.842   5.996 -0.4949  3.8352  0.6105
15437TIP3    H267727   0.021   1.915   5.947 -2.7601 -1.3958 -2.3706
15438TIP3   OH267728   5.724   1.424   1.392 -0.1530  0.5201  0.1349
15438TIP3    H167729   5.788   1.414   1.322  0.7310  0.1044  0.9707
15438TIP3    H267730   5.727   1.517   1.415 -1.4371  0.9397 -1.2635
15439TIP3   OH267731   3.092   6.640  11.920  0.1060  0.1949 -0.7159
15439TIP3    H167732   3.133   6.554  11.932  1.1867  0.9203  1.2820
15439TIP3    H267733   3.158   6.702  11.950 -1.5377  1.5771  0.2132
15440TIP3   OH267734   3.909   4.349  14.528  0.8210 -0.4683  0.1541
15440TIP3    H167735   3.945   4.437  14.541  0.9471 -0.5816  0.5949
15440TIP3    H267736   3.945   4.297  14.600 -0.5997 -0.4659  0.9139
15441TIP3   OH267737   4.242   5.113  11.146 -0.0097  0.1586  0.4408
15441TIP3    H167738   4.187   5.035  11.136  0.4649 -0.0319 -0.9235
15441TIP3    H267739   4.326   5.087  11.109 -0.6801  2.1822 -2.9441
15442TIP3   OH267740   5.250   3.272   5.864  0.0992  0.3024 -0.7026
15442TIP3    H167741   5.175   3.223   5.830  0.4978  0.1777 -1.4202
15442TIP3    H267742   5.213   3.330   5.931 -0.7928  0.9102 -1.6897
15443TIP3   OH267743   6.748   6.453   4.531 -0.3108 -0.4800 -0.5182
15443TIP3    H167744   6.716   6.510   4.461  3.0512  0.6592 -1.2952
15443TIP3    H267745   6.736   6.504   4.611  0.4432  0.3265 -0.9120
15444TIP3   OH267746   3.849   3.226   1.406 -0.2121  0.0756 -0.0369
15444TIP3    H167747   3.919   3.267   1.356 -1.3368  0.7693 -1.1112
15444TIP3    H267748   3.775   3.286   1.397 -1.0962 -0.8752  0.6305
15445TIP3   OH267749   3.273   1.848  16.908 -0.5056  0.0317  0.5873
15445TIP3    H167750   3.219   1.927  16.912  0.0485  0.5132 -0.8669
15445TIP3    H267751   3.347   1.866  16.966 -0.6454  0.3572  0.6652
15446TIP3   OH267752   1.307   2.525  12.345 -0.7305  0.0407  0.1519
15446TIP3    H167753   1.390   2.488  12.316 -0.4769 -0.1653  1.0855
15446TIP3    H267754   1.308   2.615  12.313  0.0245  0.1480  0.4520
15447TIP3   OH267755   1.272   3.873   1.083  0.4653 -0.5606 -0.0567
15447TIP3    H167756   1.321   3.807   1.132  0.2990  0.5682  1.7568
15447TIP3    H267757   1.180   3.851   1.098  0.4056  0.1061  0.6646
15448TIP3   OH267758   3.941   0.891  12.932  0.2779 -0.5376  0.2159
15448TIP3    H167759   3.949   0.928  13.020  0.9567  1.3246 -0.5762
15448TIP3    H267760   3.848   0.873  12.922  0.2247 -1.0046  1.3997
15449TIP3   OH267761   5.174   1.467   1.328 -0.2087  0.6013 -0.4900
15449TIP3    H167762   5.141   1.505   1.409 -0.6253 -1.1336  0.2147
15449TIP3    H267763   5.268   1.458   1.341 -0.0387  1.7503 -0.8419
15450TIP3   OH267764   4.300   1.397   5.517 -0.1112  0.5221 -0.4472
15450TIP3    H167765   4.241   1.322   5.516 -1.1073  1.2826 -0.9752
15450TIP3    H267766   4.279   1.445   5.437  1.2947  0.7737 -0.6858
15451TIP3   OH267767   5.831   2.615   0.342  0.7121  0.2787 -0.0352
15451TIP3    H167768   5.765   2.559   0.300  0.3284  0.1682  0.6948
15451TIP3    H267769   5.859   2.566   0.419 -0.3093  1.4541  1.1492
15452TIP3   OH267770   1.452   0.901  14.051 -0.3825  0.3980  0.0512
15452TIP3    H167771   1.448   0.941  13.964 -0.6396 -0.8930 -0.5631
15452TIP3    H267772   1.525   0.840  14.045  0.3402  1.1287  1.1324
15453TIP3   OH267773   3.901   1.373  13.591 -0.0049 -0.2240  0.3526
15453TIP3    H167774   3.869   1.421  13.667 -1.8389 -0.7128 -0.0583
15453TIP3    H267775   3.822   1.333  13.553  0.9196 -0.3654 -1.5368
15454TIP3   OH267776   2.561   5.920   5.705  0.2467  0.3051 -0.4019
15454TIP3    H167777   2.481   5.971   5.689 -0.4263 -0.9657 -1.2450
15454TIP3    H267778   2.598   5.959   5.785  0.1964  2.6024 -1.4221
15455TIP3   OH267779   5.895   4.209  12.456 -0.1162 -0.3264 -0.0985
15455TIP3    H167780   5.958   4.282  12.458 -1.6744  1.0520  0.9548
15455TIP3    H267781   5.943   4.136  12.493  0.0759  1.4448  3.6054
15456TIP3   OH267782   0.283   0.651  16.950 -0.2622  0.4556  0.2419
15456TIP3    H167783   0.195   0.688  16.957 -0.8867 -0.8988 -0.1473
15456TIP3    H267784   0.328   0.710  16.890 -1.3784  0.3531 -0.7409
15457TIP3   OH267785   2.007   5.224  12.797 -0.1645  0.7809  0.7103
15457TIP3    H167786   2.080   5.260  12.746 -0.2892  0.5395  0.3515
15457TIP3    H267787   1.960   5.300  12.831  0.7820  0.9375  1.7121
15458TIP3   OH267788   5.693   0.390   6.180 -0.0777 -0.3896  0.0691
15458TIP3    H167789   5.686   0.399   6.275 -0.8766  0.5774 -0.0624
15458TIP3    H267790   5.784   0.365   6.165  0.4916  1.0237  0.9794
15459TIP3   OH267791   4.166   6.098   1.334 -0.2536 -0.1655  0.2694
15459TIP3    H167792   4.132   6.183   1.307  0.4033 -0.3812 -1.3163
15459TIP3    H267793   4.095   6.037   1.317  0.0668 -0.2614 -0.7951
15460TIP3   OH267794   4.811   1.323  15.136  0.3456  0.7772 -0.3225
15460TIP3    H167795   4.882   1.362  15.086  2.1266 -1.0735  0.6396
15460TIP3    H267796   4.854   1.274  15.206 -1.9463  1.2305  1.5707
15461TIP3   OH267797   0.241   3.493   2.252  0.1050  0.2889  0.8699
15461TIP3    H167798   0.192   3.567   2.289 -2.9471 -1.1229 -0.0369
15461TIP3    H267799   0.205   3.416   2.297  1.6278 -0.8290  0.2192
15462TIP3   OH267800   6.273   2.404   2.605  0.4373 -0.0646 -0.1802
15462TIP3    H167801   6.369   2.404   2.609  0.3952 -0.3163  1.8043
15462TIP3    H267802   6.246   2.441   2.689 -1.2244  0.8623 -1.0774
15463TIP3   OH267803   5.142   1.574  12.355 -0.1150 -0.2701 -0.1753
15463TIP3    H167804   5.144   1.603  12.446 -0.0078 -1.6972  0.2955
15463TIP3    H267805   5.198   1.496  12.352 -1.3811 -1.1994 -1.1023
15464TIP3   OH267806   4.470   5.531  15.428  0.2446 -0.0135 -0.4745
15464TIP3    H167807   4.553   5.579  15.424  0.8202 -1.0363 -1.6178
15464TIP3    H267808   4.408   5.587  15.383  0.8019 -0.1154 -1.4015
15465TIP3   OH267809   0.191   4.586  14.219  0.8080 -0.1495  0.0098
15465TIP3    H167810   0.106   4.621  14.193 -0.0690 -0.4033  2.3527
15465TIP3    H267811   0.216   4.528  14.147 -0.1433  1.2593 -1.5183
15466TIP3   OH267812   1.532   0.392   4.142  0.2176  0.1679  0.3912
15466TIP3    H167813   1.574   0.396   4.228  1.4444  1.7950 -0.2375
15466TIP3    H267814   1.450   0.345   4.158  0.6184  0.0385  2.3480
15467TIP3   OH267815   6.520   4.369  11.308 -0.0642  0.1930  0.2589
15467TIP3    H167816   6.556   4.387  11.395 -0.8565 -0.3366  0.7001
15467TIP3    H267817   6.562   4.287  11.282 -2.6429 -1.7531  1.7964
15468TIP3   OH267818   1.863   2.299   6.077 -0.1894 -0.0082 -0.7324
15468TIP3    H167819   1.884   2.326   6.167 -0.6797  3.1697 -1.4663
15468TIP3    H267820   1.769   2.279   6.079  0.1223 -1.6231 -0.2478
15469TIP3   OH267821   6.365   5.205  12.263  0.0147  0.0196  0.5260
15469TIP3    H167822   6.292   5.230  12.206  1.8046  1.8968 -1.0906
15469TIP3    H267823   6.343   5.242  12.348 -1.4371 -0.4993  0.4085
15470TIP3   OH267824   1.158   2.468  16.512  0.3628 -0.6069 -0.7332
15470TIP3    H167825   1.241   2.513  16.527 -0.1645 -0.1513  1.1277
15470TIP3    H267826   1.177   2.377  16.535  0.0711 -0.2771  0.9225
15471TIP3   OH267827   0.877   5.807   1.829  0.5552  0.1102  0.0846
15471TIP3    H167828   0.876   5.713   1.815 -1.8968  0.1418 -0.4512
15471TIP3    H267829   0.822   5.843   1.759 -1.2526  1.5703  2.0930
15472TIP3   OH267830   1.714   6.483  15.212  0.3832 -0.0030 -0.0713
15472TIP3    H167831   1.743   6.519  15.128 -1.4919  1.5418 -0.1394
15472TIP3    H267832   1.795   6.469  15.261  1.4869 -0.2676 -1.8547
15473TIP3   OH267833   4.082   5.023  14.919 -0.1306  0.2997 -0.2138
15473TIP3    H167834   4.143   5.036  14.991 -1.6544  0.9991  1.0020
15473TIP3    H267835   4.027   4.950  14.948  0.7830 -1.0831 -1.7864
15474TIP3   OH267836   1.718   2.095   1.527 -0.5243  0.1328  0.3199
15474TIP3    H167837   1.740   2.167   1.586  0.5553  0.4985 -0.4956
15474TIP3    H267838   1.649   2.129   1.471  0.6390  0.8863 -0.6887
15475TIP3   OH267839   5.051   4.190  12.602  0.1465 -0.2259 -0.3515
15475TIP3    H167840   5.079   4.253  12.536 -1.1379  4.3363  2.8857
15475TIP3    H267841   4.964   4.161  12.573  1.0066 -1.1095 -2.1968
15476TIP3   OH267842   5.242   5.653   0.015  0.2046  0.0663  0.4437
15476TIP3    H167843   5.183   5.710   0.066  0.3821  1.6851 -1.0819
15476TIP3    H267844   5.318   5.641   0.072 -0.7672 -0.4597  1.6689
15477TIP3   OH267845   5.924   5.366   2.666 -0.1130 -0.3350  0.1366
15477TIP3    H167846   5.900   5.381   2.574 -0.0728 -2.5828 -0.3056
15477TIP3    H267847   6.012   5.403   2.673  0.0576 -0.5067 -0.8639
15478TIP3   OH267848   1.306   4.657  11.906 -0.4365 -0.0599  0.0829
15478TIP3    H167849   1.277   4.652  11.815 -2.1877 -1.8823  0.6545
15478TIP3    H267850   1.227   4.685  11.954  0.1582 -0.1710  1.1488
15479TIP3   OH267851   3.702   5.546  10.841  0.2823 -0.3712 -0.1968
15479TIP3    H167852   3.709   5.457  10.875 -0.6596 -0.1749  0.5288
15479TIP3    H267853   3.673   5.599  10.915  2.4401  0.8846 -0.1391
15480TIP3   OH267854   3.724   4.102  14.752 -0.2855  0.0893 -0.4487
15480TIP3    H167855   3.764   4.067  14.673 -0.1652  0.0286 -0.3613
15480TIP3    H267856   3.761   4.050  14.823 -0.5334  0.0229 -0.3697
15481TIP3   OH267857   2.848   1.231   4.320 -0.1642  0.6212 -0.1292
15481TIP3    H167858   2.904   1.168   4.275  0.8416  1.3703  0.0042
15481TIP3    H267859   2.814   1.288   4.251 -0.3769  0.4527 -0.1627
15482TIP3   OH267860   5.556   5.463   0.706 -0.2736  0.3671  0.3281
15482TIP3    H167861   5.477   5.470   0.761 -0.3131  1.8919  0.1248
15482TIP3    H267862   5.611   5.536   0.734  1.1468 -0.7384  0.5419
15483TIP3   OH267863   6.193   2.520   1.150  1.0145  0.7283 -0.1526
15483TIP3    H167864   6.256   2.502   1.081 -0.0470 -1.1454 -0.7114
15483TIP3    H267865   6.222   2.466   1.224  1.0607  1.2420  0.2136
15484TIP3   OH267866   3.039   3.479  14.823 -0.2225 -0.0412  0.6387
15484TIP3    H167867   3.091   3.473  14.903  3.0816 -1.0811 -1.3703
15484TIP3    H267868   3.080   3.550  14.773  0.2411 -1.7929 -1.6239
15485TIP3   OH267869   2.948   6.183  12.881 -0.3269  0.2511 -0.3798
15485TIP3    H167870   2.863   6.159  12.920 -0.8961  1.7969 -0.5945
15485TIP3    H267871   2.991   6.099  12.865 -1.6785 -0.5629  0.0410
15486TIP3   OH267872   5.693   0.203  12.154  0.2101 -0.3044 -0.2399
15486TIP3    H167873   5.619   0.250  12.193 -0.1741 -0.1899 -1.0867
15486TIP3    H267874   5.742   0.271  12.107  0.7399 -0.4189  0.1394
15487TIP3   OH267875   1.454   2.414  14.588  0.1424  0.2256 -0.3131
15487TIP3    H167876   1.416   2.329  14.565  0.1228 -0.2996  1.4935
15487TIP3    H267877   1.379   2.472  14.598  0.1418  0.4184 -1.3145
15488TIP3   OH267878   2.772   6.418  14.945 -0.2899 -0.1697 -0.4029
15488TIP3    H167879   2.750   6.364  14.869 -0.5478  0.3598 -0.7106
15488TIP3    H267880   2.750   6.364  15.021  0.8137 -1.0526 -0.6913
15489TIP3   OH267881   4.497   1.059  11.543 -0.2681 -0.1379  0.3195
15489TIP3    H167882   4.525   1.062  11.451 -0.1151 -1.3674  0.3121
15489TIP3    H267883   4.404   1.041  11.539 -0.5302  1.0801  0.4044
15490TIP3   OH267884   4.678   6.305  13.412  0.2844 -0.7737  0.4073
15490TIP3    H167885   4.617   6.248  13.459  1.3986 -1.7062  0.7677
15490TIP3    H267886   4.627   6.341  13.340 -0.4207 -2.3647  0.0788
15491TIP3   OH267887   3.611   5.161   4.599 -0.1610  0.1592  0.2819
15491TIP3    H167888   3.594   5.245   4.555  0.3971 -0.3789 -1.0289
15491TIP3    H267889   3.675   5.182   4.668  0.2641  0.7624 -0.2801
15492TIP3   OH267890   1.641   4.660   0.014 -0.1828  0.0415 -0.7665
15492TIP3    H167891   1.735   4.648  -0.003 -0.1211 -1.0320  0.1546
15492TIP3    H267892   1.613   4.575   0.048 -1.1482  0.8302  0.4733
15493TIP3   OH267893   4.063   3.088   0.479  0.2903  0.3591  0.1273
15493TIP3    H167894   4.020   3.052   0.401  0.6491 -0.3707  0.2539
15493TIP3    H267895   4.139   3.031   0.492 -0.3884 -0.2431  1.6809
15494TIP3   OH267896   4.308   0.905   5.267 -0.2539  0.4611  0.4130
15494TIP3    H167897   4.268   0.925   5.182 -0.5524 -0.9264  0.2081
15494TIP3    H267898   4.284   0.814   5.285  0.0284  0.6414  1.8693
15495TIP3   OH267899   1.948   0.304   1.717  0.2382 -0.0742 -0.2534
15495TIP3    H167900   2.017   0.241   1.734  1.0813  0.7021 -0.6977
15495TIP3    H267901   1.921   0.288   1.627  0.2621  0.0127 -0.2766
15496TIP3   OH267902   2.847   3.299   0.799  0.3180  0.5655  0.1554
15496TIP3    H167903   2.891   3.368   0.849  1.0525 -0.7365  1.3955
15496TIP3    H267904   2.919   3.250   0.758 -0.1025 -0.2812  0.4136
15497TIP3   OH267905   4.657   0.744  13.936  0.6132 -0.7989 -0.0927
15497TIP3    H167906   4.617   0.723  14.021 -1.6242 -0.0373 -0.8918
15497TIP3    H267907   4.618   0.682  13.875 -0.0355  0.5031 -1.0515
15498TIP3   OH267908   6.040   6.374  13.322  0.7134 -0.6099  0.3202
15498TIP3    H167909   6.075   6.422  13.397  2.0804  0.0401 -0.6920
15498TIP3    H267910   6.105   6.306  13.304  0.6611 -0.4425 -0.5717
15499TIP3   OH267911   6.600   3.196   5.347  0.4872 -0.3862  0.3021
15499TIP3    H167912   6.656   3.268   5.377 -1.2220  0.2980  2.0771
15499TIP3    H267913   6.564   3.226   5.264  0.7397  0.2950  0.4365
15500TIP3   OH267914   4.472   4.009  10.610  0.0953  0.1607  0.0197
15500TIP3    H167915   4.400   3.947  10.605 -0.3419  0.5893  0.7006
15500TIP3    H267916   4.458   4.068  10.536  0.2190 -0.2480 -0.3288
15501TIP3   OH267917   4.114   4.230   5.490  0.3727  0.6086 -0.1081
15501TIP3    H167918   4.179   4.291   5.522  0.6673  0.0748  0.3276
15501TIP3    H267919   4.069   4.198   5.569  0.4372  0.0272 -0.2973
15502TIP3   OH267920   5.902   3.505   1.398 -0.5742 -0.9433  0.3426
15502TIP3    H167921   5.884   3.597   1.415  0.9755 -0.7242  0.9398
15502TIP3    H267922   5.984   3.504   1.349 -1.2646 -1.9627 -0.8752
15503TIP3   OH267923   6.586   5.777  14.921 -0.5482  0.5157 -0.2117
15503TIP3    H167924   6.588   5.792  14.827  0.0134 -0.5463 -0.3889
15503TIP3    H267925   6.646   5.843  14.957  1.2002 -0.6255 -0.8691
15504TIP3   OH267926   0.386   0.923   4.575  0.3929  0.0498 -0.0617
15504TIP3    H167927   0.400   0.892   4.664 -0.9425  1.2779  0.6219
15504TIP3    H267928   0.313   0.985   4.582  1.0888  1.1589 -1.7844
15505TIP3   OH267929   4.591   4.124  11.570  0.3032  0.7108 -0.0997
15505TIP3    H167930   4.591   4.048  11.627  0.5246  0.8694  0.1118
15505TIP3    H267931   4.681   4.129  11.537  0.3570  1.0340  0.0929
15506TIP3   OH267932   6.071   2.213   4.088 -0.6733 -0.1555  0.0553
15506TIP3    H167933   6.141   2.234   4.150  0.1044  1.6231 -1.3577
15506TIP3    H267934   6.064   2.289   4.032 -2.5421 -1.0252 -1.0042
15507TIP3   OH267935   3.430   5.152  13.882 -0.0831  0.0082 -0.3263
15507TIP3    H167936   3.382   5.235  13.889  0.2377  0.2246 -0.6532
15507TIP3    H267937   3.454   5.131  13.972 -1.7239 -0.6768 -0.0094
15508TIP3   OH267938   3.472   2.360   6.089 -0.3004 -0.3413  0.4493
15508TIP3    H167939   3.557   2.319   6.105  0.4700  1.6175  1.7555
15508TIP3    H267940   3.452   2.339   5.997  1.6969 -0.6526  0.0482
15509TIP3   OH267941   0.744   5.761   4.019 -0.1296  0.1191  0.1046
15509TIP3    H167942   0.666   5.773   3.965 -0.6243 -1.9906  0.2865
15509TIP3    H267943   0.733   5.824   4.090 -2.3198 -0.9336  0.8009
15510TIP3   OH267944   4.980   0.570  16.652 -0.0177 -0.2921  0.1807
15510TIP3    H167945   4.886   0.584  16.637  0.0242 -0.8497 -0.6431
15510TIP3    H267946   5.022   0.614  16.579  0.2297 -2.4036 -1.0172
15511TIP3   OH267947   6.139   3.243  13.790 -0.6555 -0.3541 -0.2628
15511TIP3    H167948   6.118   3.327  13.831 -0.0403 -0.1470 -0.3654
15511TIP3    H267949   6.168   3.266  13.702  0.2426 -0.5990 -0.0468
15512TIP3   OH267950   6.654   0.957   6.262  0.2119  0.1146 -0.8597
15512TIP3    H167951   6.581   0.926   6.315 -0.5725  0.9167 -1.4378
15512TIP3    H267952   6.725   0.970   6.325 -0.4869  0.3876 -0.1080
15513TIP3   OH267953   6.088   4.238  14.268 -0.0140  0.0443 -0.6313
15513TIP3    H167954   6.159   4.177  14.291 -0.3638 -0.4519 -0.8459
15513TIP3    H267955   6.128   4.325  14.273  0.3370 -0.1534  0.2957
15514TIP3   OH267956   2.554   4.002   5.099  0.3945  0.1299  0.6155
15514TIP3    H167957   2.600   3.976   5.019 -0.3201  1.6933 -0.3366
15514TIP3    H267958   2.569   3.929   5.159  0.7281 -1.2118 -1.0163
15515TIP3   OH267959   4.324   0.070   4.955 -0.0988 -0.0376  0.1367
15515TIP3    H167960   4.244   0.123   4.961 -0.0103  0.2552 -1.0412
15515TIP3    H267961   4.363   0.095   4.871  0.4061 -1.3365 -0.0410
15516TIP3   OH267962   3.411   1.704   3.487  0.0730 -0.5370 -0.5799
15516TIP3    H167963   3.378   1.733   3.402  0.4015  2.1416  0.1158
15516TIP3    H267964   3.333   1.691   3.541 -0.1806 -2.9334 -1.3998
15517TIP3   OH267965   5.454   2.953   3.912 -0.6483  0.0587 -0.0231
15517TIP3    H167966   5.467   3.048   3.915 -2.1592  0.3258 -0.8997
15517TIP3    H267967   5.538   2.918   3.883 -0.0494  1.1100  0.3660
15518TIP3   OH267968   3.200   5.230   2.307 -0.1694 -0.2132  0.2427
15518TIP3    H167969   3.160   5.290   2.371  0.2335  0.9170 -0.5469
15518TIP3    H267970   3.129   5.169   2.285 -1.3701  1.4537 -0.7592
15519TIP3   OH267971   0.196   5.661   4.580 -0.7518 -0.3308 -0.2103
15519TIP3    H167972   0.109   5.644   4.614 -1.1174 -0.5255 -1.2173
15519TIP3    H267973   0.202   5.756   4.575  0.1448 -0.1678  2.4748
15520TIP3   OH267974   1.980   5.221  13.281 -0.1608 -0.0274 -0.1800
15520TIP3    H167975   1.918   5.164  13.327 -0.9466  0.5406 -0.5026
15520TIP3    H267976   2.025   5.268  13.351 -0.7464  0.2146  0.0406
15521TIP3   OH267977   0.961   5.234  12.969  0.2997  0.4363 -0.3395
15521TIP3    H167978   0.875   5.211  13.005 -0.8851  1.5150 -2.3070
15521TIP3    H267979   0.982   5.161  12.910  1.8244 -0.9009  1.7374
15522TIP3   OH267980   1.339   4.679   0.215  0.5101  0.2704  0.0280
15522TIP3    H167981   1.294   4.758   0.244  2.1324  1.5390 -0.7227
15522TIP3    H267982   1.422   4.679   0.263  0.3950 -1.2073  0.2944
15523TIP3   OH267983   4.045   6.403  11.108 -0.1891 -0.3076  0.4485
15523TIP3    H167984   4.141   6.406  11.114  0.0040 -1.0618 -1.4925
15523TIP3    H267985   4.017   6.369  11.193  1.3034 -0.5352  0.8862
15524TIP3   OH267986   6.065   4.606   2.943 -0.0624  0.4490 -0.0474
15524TIP3    H167987   6.122   4.679   2.967 -0.9960  1.5222 -0.9590
15524TIP3    H267988   6.111   4.562   2.872 -0.1563  1.0602 -0.4956
15525TIP3   OH267989   3.643   4.094  13.115  0.1222  0.5365  0.1314
15525TIP3    H167990   3.648   4.070  13.207  1.5097  0.6006  0.0931
15525TIP3    H267991   3.569   4.155  13.110 -1.2953 -1.0135  0.8170
15526TIP3   OH267992   1.631   4.484  14.932  0.4049  0.1592  0.2307
15526TIP3    H167993   1.582   4.408  14.965  1.2172 -0.6007 -0.2511
15526TIP3    H267994   1.716   4.448  14.909  0.7424  1.2038 -0.1776
15527TIP3   OH267995   2.585   0.070   3.038  0.3471  0.2748  0.2244
15527TIP3    H167996   2.593   0.078   3.133 -1.1343  0.8325  0.3375
15527TIP3    H267997   2.565  -0.022   3.024 -1.1156  0.4932  0.6435
15528TIP3   OH267998   4.818   0.643   5.040 -0.2113 -0.4055 -0.6267
15528TIP3    H167999   4.831   0.659   5.133 -0.5496 -1.9821 -0.2837
15528TIP3    H268000   4.893   0.588   5.014 -0.6581 -0.8367 -1.0371
15529TIP3   OH268001   3.646   5.747  16.372  0.8408 -0.1249  0.2244
15529TIP3    H168002   3.706   5.743  16.297  1.3545 -2.1013  0.6739
15529TIP3    H268003   3.682   5.684  16.434 -1.7441 -1.4696  0.4679
15530TIP3   OH268004   1.671   3.147  14.328 -0.1408  0.0612  0.1356
15530TIP3    H168005   1.732   3.220  14.320 -0.3169  0.0917 -1.0554
15530TIP3    H268006   1.657   3.116  14.238 -1.8771  0.0677  0.3596
15531TIP3   OH268007   0.022   5.944   0.002  0.2712 -0.8341 -0.2831
15531TIP3    H168008  -0.066   5.953  -0.034 -0.0331 -0.3411  0.5411
15531TIP3    H268009   0.080   5.983  -0.064 -0.3469  0.7658  0.0806
15532TIP3   OH268010   0.160   4.838  16.948 -0.0981 -0.2100  0.1137
15532TIP3    H168011   0.232   4.846  17.010  0.2510 -1.1231 -0.1568
15532TIP3    H268012   0.176   4.755  16.903 -0.2942  0.4781 -1.2663
15533TIP3   OH268013   0.172   3.072  10.392 -0.2931  0.3807 -0.0877
15533TIP3    H168014   0.082   3.102  10.408 -0.9980  0.6255 -3.6445
15533TIP3    H268015   0.171   2.979  10.415 -0.6426  0.9134  2.3488
15534TIP3   OH268016   3.485   6.545   2.353  0.0845 -0.2943  0.2649
15534TIP3    H168017   3.458   6.637   2.348  0.0845 -0.2609  0.8503
15534TIP3    H268018   3.479   6.523   2.446 -1.3762 -1.3395 -0.0428
15535TIP3   OH268019   0.855   2.565  11.498 -0.2031 -0.5055  0.3075
15535TIP3    H168020   0.903   2.593  11.576 -2.3427 -0.8436  1.8268
15535TIP3    H268021   0.921   2.565  11.429  1.7655 -0.0773  2.0650
15536TIP3   OH268022   2.982   5.924   4.709 -0.0216 -0.3960  0.2995
15536TIP3    H168023   3.066   5.962   4.683 -0.0642 -1.1361 -1.0243
15536TIP3    H268024   2.975   5.942   4.802  0.9024  1.0084  0.1244
15537TIP3   OH268025   4.185   4.300   0.516  0.1491  0.3725  0.1688
15537TIP3    H168026   4.208   4.291   0.424  1.8199  0.8983  0.4873
15537TIP3    H268027   4.126   4.228   0.534  1.3874 -0.9572 -0.8480
15538TIP3   OH268028   0.619   3.296  11.121 -0.6249  0.3067  0.2361
15538TIP3    H168029   0.660   3.381  11.138  0.7725 -0.2622 -0.1017
15538TIP3    H268030   0.607   3.257  11.208  2.7921 -0.9182  0.3288
15539TIP3   OH268031   0.792   3.278  16.413 -0.1956  0.4520 -0.1169
15539TIP3    H168032   0.717   3.220  16.424  1.0858 -1.1659  0.5896
15539TIP3    H268033   0.776   3.350  16.474 -2.4727  1.6465 -1.9953
15540TIP3   OH268034   6.453   2.056  10.795  0.5084  0.3502 -0.3358
15540TIP3    H168035   6.484   1.992  10.731  1.2393 -1.2884  1.5756
15540TIP3    H268036   6.358   2.053  10.787  0.3733 -2.5128  1.0108
15541TIP3   OH268037   2.766   3.942   2.529  0.2359  0.1928 -0.0154
15541TIP3    H168038   2.704   3.878   2.495  0.4868  1.0832 -2.3119
15541TIP3    H268039   2.721   3.981   2.604  0.1287 -2.6701  1.5941
15542TIP3   OH268040   2.273   1.976   1.774 -0.3055 -0.1497  0.5656
15542TIP3    H168041   2.233   2.022   1.701 -0.0699 -0.2290  0.3850
15542TIP3    H268042   2.332   1.913   1.733  1.3077  1.1267  0.8337
15543TIP3   OH268043   5.867   1.599  13.432 -0.6146 -0.2190  0.0901
15543TIP3    H168044   5.840   1.605  13.524  2.5382  1.8799  1.0312
15543TIP3    H268045   5.942   1.540  13.433 -1.4419 -1.3891 -1.4786
15544TIP3   OH268046   0.046   4.074  15.243  0.1212  0.1293 -0.3082
15544TIP3    H168047   0.128   4.090  15.289  1.0313 -0.2954 -1.7278
15544TIP3    H268048   0.015   4.161  15.217  0.3806  0.2561 -0.1873
15545TIP3   OH268049   4.198   0.794   4.865  0.3595 -0.1279  0.1986
15545TIP3    H168050   4.104   0.793   4.849  0.5316  0.1671 -0.9428
15545TIP3    H268051   4.227   0.705   4.844  0.3296 -0.2334  0.6002
15546TIP3   OH268052   5.677   1.443  11.597 -0.2908 -0.2690  0.1493
15546TIP3    H168053   5.620   1.382  11.549 -0.8131  0.6254 -0.4014
15546TIP3    H268054   5.627   1.525  11.600  0.8954  0.4965 -0.2117
15547TIP3   OH268055   2.933   3.564   4.527  0.6909  0.0841  0.2382
15547TIP3    H168056   2.887   3.491   4.486 -0.0288  1.3473 -1.3021
15547TIP3    H268057   2.866   3.611   4.576  1.0337  0.0859  0.7198
15548TIP3   OH268058   4.313   1.234   2.714  0.3640  0.1699 -0.6831
15548TIP3    H168059   4.279   1.157   2.668  0.5357 -0.9132  0.8826
15548TIP3    H268060   4.292   1.308   2.658 -1.5172 -0.8255 -1.3747
15549TIP3   OH268061   6.172   1.864   6.021  0.2002  0.1876 -0.6566
15549TIP3    H168062   6.092   1.828   5.982  1.0518 -2.2531 -0.3299
15549TIP3    H268063   6.229   1.879   5.946  0.0084  0.4268 -0.7575
15550TIP3   OH268064   3.874   2.870   3.550 -0.1194  0.4201 -0.2383
15550TIP3    H168065   3.908   2.824   3.473 -1.3795 -3.1135  1.1030
15550TIP3    H268066   3.784   2.891   3.527 -0.4373 -0.4630  0.1827
15551TIP3   OH268067   2.310   4.491  16.447  0.0692  0.2115 -0.1413
15551TIP3    H168068   2.253   4.566  16.430  0.0491  0.5462  1.2640
15551TIP3    H268069   2.393   4.531  16.474  0.6668 -0.2781 -1.1952
15552TIP3   OH268070   6.472   4.437  15.859 -0.4537 -0.3993  0.7243
15552TIP3    H168071   6.459   4.344  15.839 -0.6919 -0.8411  2.6670
15552TIP3    H268072   6.565   4.452  15.844 -0.2623 -1.1564  1.0766
15553TIP3   OH268073   0.987   6.369   4.850 -0.0057 -0.1454 -0.0611
15553TIP3    H168074   0.956   6.302   4.789  1.2023 -1.2568  0.5076
15553TIP3    H268075   0.971   6.452   4.805  1.2463 -0.9440 -2.1046
15554TIP3   OH268076   4.521   3.571  16.498  0.3084  0.5617  0.1286
15554TIP3    H168077   4.582   3.630  16.542 -1.6841  2.4172  0.5623
15554TIP3    H268078   4.523   3.598  16.407  0.0771  0.6889  0.1603
15555TIP3   OH268079   3.809   0.611  16.846 -0.0036  0.1018  0.2732
15555TIP3    H168080   3.894   0.620  16.890  0.4096 -3.0100  0.3947
15555TIP3    H268081   3.830   0.573  16.761 -1.2479 -0.8326  0.3470
15556TIP3   OH268082   1.768   2.135  16.685 -0.1126  0.1744  0.5319
15556TIP3    H168083   1.702   2.066  16.696 -0.0892  0.0622  0.0026
15556TIP3    H268084   1.725   2.214  16.718 -0.6297  0.1623 -0.0798
15557TIP3   OH268085   0.848   1.230   1.438 -0.6545  0.9105 -0.4346
15557TIP3    H168086   0.857   1.293   1.509 -2.5777  1.5881 -0.7453
15557TIP3    H268087   0.911   1.161   1.459  0.9789  2.5574  0.2934
15558TIP3   OH268088   0.200   1.986  16.150 -0.5225  0.8392 -0.1086
15558TIP3    H168089   0.137   1.932  16.196 -1.2367  1.6190 -0.1460
15558TIP3    H268090   0.276   1.929  16.137 -0.2902  0.5905  2.0018
15559TIP3   OH268091   5.337   6.344   2.573  0.1254 -0.2972  0.6446
15559TIP3    H168092   5.320   6.249   2.569  0.3742 -0.3029 -1.5491
15559TIP3    H268093   5.379   6.364   2.490 -1.3109  2.0085  0.3798
15560TIP3   OH268094   1.652   2.247  17.114 -0.2993  0.1112  0.3500
15560TIP3    H168095   1.690   2.332  17.135  1.5501 -0.6272  0.1201
15560TIP3    H268096   1.596   2.264  17.037 -1.2275  1.3853  1.2614
15561TIP3   OH268097   3.823   6.389   5.778 -0.1880 -0.3295  0.2392
15561TIP3    H168098   3.890   6.405   5.844  1.3440  2.8810 -1.8428
15561TIP3    H268099   3.859   6.322   5.721 -0.4013 -1.2554  1.1731
15562TIP3   OH268100   2.996   2.959  15.222 -0.5125  0.2012 -0.4949
15562TIP3    H168101   2.939   3.020  15.175 -0.2562 -0.2069 -1.3704
15562TIP3    H268102   2.944   2.879  15.228 -1.3326  0.8226  1.7415
15563TIP3   OH268103   0.102   0.061   1.613 -0.0208  0.0688 -0.0637
15563TIP3    H168104   0.075   0.153   1.619 -1.7256 -0.4341  0.2737
15563TIP3    H268105   0.140   0.042   1.698  0.3452  0.4427 -0.1343
15564TIP3   OH268106   5.612   1.803  11.348 -0.3562 -0.0916  0.1344
15564TIP3    H168107   5.697   1.800  11.391 -0.1418 -1.2556 -0.3177
15564TIP3    H268108   5.610   1.887  11.302  0.6925 -0.2138 -0.1467
15565TIP3   OH268109   1.411   3.768  12.133  0.1173  0.1268 -0.3105
15565TIP3    H168110   1.385   3.781  12.224 -0.6964  1.3659 -0.6920
15565TIP3    H268111   1.328   3.761  12.085  0.5360 -1.3940 -0.8604
15566TIP3   OH268112   1.065   3.534  14.318  0.0871  0.5958 -0.3834
15566TIP3    H168113   1.131   3.529  14.249  0.1666  1.3042 -0.3647
15566TIP3    H268114   1.008   3.459  14.302  0.8511  0.0136 -0.4415
15567TIP3   OH268115   2.020   0.345  11.195 -0.3166 -0.7344  0.3260
15567TIP3    H168116   2.041   0.431  11.157 -1.4058  0.3983  2.1611
15567TIP3    H268117   2.096   0.324  11.249 -0.1083 -0.8856 -0.0179
15568TIP3   OH268118   0.879   4.795   6.050  0.4011 -0.2433  0.2130
15568TIP3    H168119   0.874   4.880   6.006  2.2548 -1.1985 -2.0849
15568TIP3    H268120   0.949   4.805   6.114 -0.1599  0.2839  0.7426
15569TIP3   OH268121   5.999   5.685   0.329  0.5191  0.5826  0.4487
15569TIP3    H168122   5.928   5.628   0.300  1.0472 -0.4382  1.0899
15569TIP3    H268123   6.004   5.754   0.262 -0.3501  0.0651 -0.1684
15570TIP3   OH268124   0.931   3.561   4.166 -0.1768  0.3144 -0.6579
15570TIP3    H168125   0.968   3.521   4.244  0.0298  0.0788 -0.8769
15570TIP3    H268126   0.925   3.490   4.102 -2.0397  0.0679 -0.2889
15571TIP3   OH268127   0.306   5.937  16.297 -0.2916 -0.0503  0.1433
15571TIP3    H168128   0.256   5.856  16.309  1.6265 -1.2578  0.3070
15571TIP3    H268129   0.242   6.006  16.315 -2.5906 -1.3813 -2.1197
15572TIP3   OH268130   6.662   3.258  12.392 -0.2764  0.3176 -0.3244
15572TIP3    H168131   6.720   3.313  12.341 -0.5550  1.0979  0.1790
15572TIP3    H268132   6.589   3.238  12.333  1.0025 -1.6093 -1.3411
15573TIP3   OH268133   2.434   1.911  13.229 -1.1911 -0.0164  0.0194
15573TIP3    H168134   2.388   1.857  13.293  0.6813 -1.5797  0.1439
15573TIP3    H268135   2.491   1.850  13.183 -1.3922  1.3185 -2.1559
15574TIP3   OH268136   1.939   2.140   4.861 -0.3441 -0.0211 -0.1556
15574TIP3    H168137   1.899   2.133   4.774 -0.0153  0.0926 -0.3195
15574TIP3    H268138   1.871   2.109   4.921 -0.2880 -0.8579 -0.5162
15575TIP3   OH268139   6.207   0.956  12.361 -0.2054 -0.2724  0.6051
15575TIP3    H168140   6.158   0.878  12.335 -1.1757  0.3151  0.6273
15575TIP3    H268141   6.197   1.017  12.288  0.3461 -0.0710  0.6881
15576TIP3   OH268142   4.637   6.779  16.652  0.2646 -0.3674  0.0529
15576TIP3    H168143   4.669   6.753  16.739 -0.3522 -3.6833 -0.5920
15576TIP3    H268144   4.662   6.706  16.595 -1.2035  0.7677 -2.1340
15577TIP3   OH268145   3.739   1.237  14.409  0.2719  0.2284 -0.2051
15577TIP3    H168146   3.661   1.293  14.413 -0.1012 -0.3459  2.0140
15577TIP3    H268147   3.794   1.267  14.481  0.4955 -1.5862  0.4294
15578TIP3   OH268148   5.412   2.541  16.310 -0.3493 -0.1037 -0.5854
15578TIP3    H168149   5.411   2.446  16.315 -1.4769 -0.1223 -0.7724
15578TIP3    H268150   5.455   2.561  16.227 -0.0136 -0.4429 -0.4931
15579TIP3   OH268151   4.863   2.553   2.212 -0.4430 -0.0767  0.4181
15579TIP3    H168152   4.931   2.487   2.199 -0.0977  0.5534 -1.1840
15579TIP3    H268153   4.790   2.524   2.158 -1.0568 -0.1616  1.2639
15580TIP3   OH268154   6.417   4.001   0.466 -0.1771  0.0200 -0.1632
15580TIP3    H168155   6.345   3.940   0.450 -1.1376  1.2632 -0.7945
15580TIP3    H268156   6.413   4.019   0.560 -1.5274  1.0219 -0.3760
15581TIP3   OH268157   5.221   4.170  13.897  0.3351 -0.3956 -0.4854
15581TIP3    H168158   5.262   4.175  13.811  0.4469 -0.6821 -0.4481
15581TIP3    H268159   5.225   4.078  13.921  0.4001 -0.3003 -0.1235
15582TIP3   OH268160   5.354   0.045  12.611  0.4464 -0.5661 -0.2246
15582TIP3    H168161   5.429   0.000  12.649 -0.4247 -2.0834 -0.2106
15582TIP3    H268162   5.335  -0.004  12.531 -1.1516 -0.8711  0.3127
15583TIP3   OH268163   5.439   3.105   2.989  0.4490  0.4161  0.4214
15583TIP3    H168164   5.418   3.015   2.967 -0.4633  0.9090 -0.8557
15583TIP3    H268165   5.459   3.147   2.905  0.5749  1.4697  0.9493
15584TIP3   OH268166   6.155   4.990   5.161 -0.2134 -0.2613  0.1964
15584TIP3    H168167   6.229   5.049   5.174 -0.3885  0.0295 -0.1241
15584TIP3    H268168   6.096   5.008   5.234  0.2126 -0.7802  0.6835
15585TIP3   OH268169   1.154   2.135  12.277 -0.0948 -0.1641 -0.1479
15585TIP3    H168170   1.088   2.204  12.291 -0.0914 -0.4659  1.6741
15585TIP3    H268171   1.223   2.178  12.227 -1.7933  0.0597 -2.4384
15586TIP3   OH268172   1.183   1.787   2.857  0.3361 -0.5254 -0.3075
15586TIP3    H168173   1.147   1.870   2.827  0.4565  0.4781  2.1477
15586TIP3    H268174   1.278   1.798   2.851  0.3606 -0.3305  0.3353
15587TIP3   OH268175   0.534   3.101   2.469 -0.1125  0.3753 -0.5980
15587TIP3    H168176   0.464   3.046   2.435  0.4357 -0.5955 -0.1843
15587TIP3    H268177   0.539   3.080   2.562 -0.1675  1.4347 -0.3415
15588TIP3   OH268178   6.331   3.312  14.380  0.2664  0.1227  0.4182
15588TIP3    H168179   6.301   3.249  14.314 -0.1409  0.8755 -0.1233
15588TIP3    H268180   6.382   3.259  14.441  1.0391 -0.5195 -0.7407
15589TIP3   OH268181   4.205   2.806   6.557 -0.5616 -0.5111  0.3172
15589TIP3    H168182   4.292   2.769   6.572  0.9404  1.6641 -2.2781
15589TIP3    H268183   4.211   2.848   6.472 -4.4685 -0.9667 -0.3522
15590TIP3   OH268184   5.385   2.858   4.493 -0.6087  0.0616 -0.1968
15590TIP3    H168185   5.349   2.909   4.566 -1.0949 -0.8285  0.2065
15590TIP3    H268186   5.317   2.794   4.474  0.4339 -1.1595  0.0518
15591TIP3   OH268187   0.934   1.094  11.840  0.3978  0.6849  0.2262
15591TIP3    H168188   0.850   1.050  11.831  1.0067 -0.5381  0.3018
15591TIP3    H268189   0.951   1.093  11.934  0.7911  0.3553  0.1526
15592TIP3   OH268190   4.812   0.903   0.981  0.2855  0.2605  0.3190
15592TIP3    H168191   4.876   0.907   1.052  1.5292  0.8748 -0.7932
15592TIP3    H268192   4.833   0.979   0.927 -1.2196  0.2996 -0.2270
15593TIP3   OH268193   3.534   3.896   1.355  0.3369 -0.2006 -0.0943
15593TIP3    H168194   3.495   3.809   1.344  2.6428 -1.3155 -0.1745
15593TIP3    H268195   3.586   3.908   1.276  0.7987  0.8403  0.3610
15594TIP3   OH268196   5.449   2.840   1.328 -0.2594 -0.1579 -0.0434
15594TIP3    H168197   5.540   2.869   1.336  0.6875 -2.9452  0.1834
15594TIP3    H268198   5.449   2.750   1.360 -3.1174 -0.2554 -0.0627
15595TIP3   OH268199   2.925   4.190  17.139 -0.3064  0.1604  0.0268
15595TIP3    H168200   3.015   4.164  17.118 -0.7256 -1.6596  0.3181
15595TIP3    H268201   2.892   4.228  17.058  0.6771  0.7551 -0.1144
15596TIP3   OH268202   2.891   0.452   4.997 -0.0095 -0.0950 -0.1808
15596TIP3    H168203   2.802   0.430   4.970 -0.7470  1.7310  0.5664
15596TIP3    H268204   2.894   0.431   5.091  0.8276 -1.4637 -0.4859
15597TIP3   OH268205   2.645   2.721  12.103  0.1396 -0.5781  1.1956
15597TIP3    H168206   2.665   2.808  12.138 -1.5801  0.3074  0.0543
15597TIP3    H268207   2.569   2.692  12.153  1.2000 -1.8465  2.1604
15598TIP3   OH268208   5.692   4.286   1.943 -0.0885  0.5383 -0.1042
15598TIP3    H168209   5.753   4.353   1.973 -0.0722  0.4195  0.1343
15598TIP3    H268210   5.610   4.307   1.989 -0.5732  1.3925 -1.3035
15599TIP3   OH268211   6.298   4.462   2.541 -0.3637  0.3448  0.1597
15599TIP3    H168212   6.254   4.407   2.606 -2.7299  0.3330 -1.3450
15599TIP3    H268213   6.348   4.399   2.488 -1.1162 -0.0910 -0.0570
15600TIP3   OH268214   6.184   0.186  16.848  0.2252  0.2142 -0.0726
15600TIP3    H168215   6.228   0.221  16.925  0.8060  0.9550 -0.7199
15600TIP3    H268216   6.113   0.248  16.830  1.1189  0.9764 -1.0930
15601TIP3   OH268217   6.657   1.057   2.537  0.4110 -0.4307 -0.4137
15601TIP3    H168218   6.735   1.034   2.588 -0.3547 -0.7131  0.6574
15601TIP3    H268219   6.663   1.002   2.459 -0.9712 -3.9554  1.7157
15602TIP3   OH268220   6.159   3.505  12.556  0.4399  0.1562 -0.0247
15602TIP3    H168221   6.180   3.434  12.494  0.2775  0.3342 -0.2877
15602TIP3    H268222   6.110   3.462  12.626 -1.0177  0.2475 -0.9471
15603TIP3   OH268223   5.680   3.827  14.242  0.1349 -0.1334  0.3566
15603TIP3    H168224   5.760   3.877  14.254  0.6272 -1.0464  1.0912
15603TIP3    H268225   5.709   3.736  14.238 -0.7926 -0.4207 -0.1680
15604TIP3   OH268226   4.423   0.003  14.807  0.0036 -0.0757  0.2130
15604TIP3    H168227   4.406   0.017  14.900  2.7961  2.4663  0.5051
15604TIP3    H268228   4.423   0.091  14.770  3.1578 -0.5709 -1.2656
15605TIP3   OH268229   6.383   4.368   3.687 -0.1168 -0.4455 -0.5620
15605TIP3    H168230   6.418   4.325   3.609  2.0394  1.3458 -0.6584
15605TIP3    H268231   6.306   4.415   3.656 -0.5678 -1.5133 -1.1241
15606TIP3   OH268232   3.296   5.740   2.569 -0.0846  0.4047 -0.3832
15606TIP3    H168233   3.273   5.659   2.616  1.0531  0.5822  0.5388
15606TIP3    H268234   3.234   5.744   2.496 -0.3139 -1.1818 -0.3199
15607TIP3   OH268235   1.091   6.097   1.203  0.4847  0.4714 -0.5616
15607TIP3    H168236   1.123   6.046   1.128  1.1869  0.7088 -0.4264
15607TIP3    H268237   1.083   6.032   1.273 -0.1020  0.2617 -0.8124
15608TIP3   OH268238   1.897   0.594  13.489  0.1595 -0.9426  0.2518
15608TIP3    H168239   1.992   0.603  13.488  0.2298 -1.6965 -0.2102
15608TIP3    H268240   1.881   0.503  13.465 -0.7699 -0.1497 -2.5273
15609TIP3   OH268241   6.552   0.644   0.282  0.1360 -0.0858 -0.0941
15609TIP3    H168242   6.588   0.726   0.247 -1.1026  0.6439  0.2757
15609TIP3    H268243   6.548   0.585   0.207 -0.4316  0.7312 -0.7297
15610TIP3   OH268244   4.419   6.559  13.369  0.0272  0.0474 -0.2241
15610TIP3    H168245   4.386   6.557  13.458  0.7713  1.3728  0.1114
15610TIP3    H268246   4.380   6.483  13.327 -3.6522  1.5742  0.0683
15611TIP3   OH268247   4.591   5.751   2.391  0.7246 -0.0167 -0.0250
15611TIP3    H168248   4.545   5.834   2.388 -1.0427 -0.8782  1.4147
15611TIP3    H268249   4.680   5.773   2.420 -0.0817  1.2575  1.5946
15612TIP3   OH268250   5.031   5.107  15.132 -0.0604 -0.0507 -1.0792
15612TIP3    H168251   5.117   5.072  15.155  0.6367  1.5775 -1.1074
15612TIP3    H268252   5.048   5.191  15.091 -1.7063  0.9059  0.0455
15613TIP3   OH268253   2.506   5.775  10.882 -0.7007 -0.3662  0.0589
15613TIP3    H168254   2.444   5.706  10.905  0.8977 -1.5926  0.8885
15613TIP3    H268255   2.589   5.730  10.868  0.6129  1.4383  1.4164
15614TIP3   OH268256   4.728   1.054  15.332  0.4739  0.5474  0.5437
15614TIP3    H168257   4.784   1.112  15.384 -1.4129  1.0870  2.0765
15614TIP3    H268258   4.709   0.980  15.390  0.4539 -0.1534 -0.3378
15615TIP3   OH268259   0.798   3.100   2.014  0.4884 -0.3183 -0.2869
15615TIP3    H168260   0.893   3.110   2.024  0.4514  0.5479 -0.6316
15615TIP3    H268261   0.764   3.107   2.103  0.7194 -0.1997 -0.2047
15616TIP3   OH268262   1.879   2.554  16.151 -0.2288  0.2954  0.7036
15616TIP3    H168263   1.891   2.473  16.201 -0.5183 -0.6317 -0.6679
15616TIP3    H268264   1.928   2.620  16.200  2.9901 -1.4245  0.0961
15617TIP3   OH268265   1.884   3.609  15.957  0.6358 -0.1547  0.6031
15617TIP3    H168266   1.890   3.630  16.050  0.9770 -1.4099  0.8893
15617TIP3    H268267   1.870   3.514  15.955  2.2980 -0.4291 -0.6482
15618TIP3   OH268268   6.523   5.573   5.250  0.8382  0.7292 -0.0302
15618TIP3    H168269   6.448   5.518   5.274  0.1033  1.5654 -0.3653
15618TIP3    H268270   6.558   5.604   5.333 -0.1686  1.6034  0.0885
15619TIP3   OH268271   4.002   1.571  14.037  0.0787 -0.4434 -0.0945
15619TIP3    H168272   4.019   1.664  14.025 -0.5290 -0.5930 -2.6846
15619TIP3    H268273   4.089   1.532  14.048  0.6372  0.0845 -2.2439
15620TIP3   OH268274   5.301   4.229   6.328 -0.0739 -0.4845 -0.3272
15620TIP3    H168275   5.390   4.261   6.318 -0.7372  1.8306  0.4593
15620TIP3    H268276   5.247   4.292   6.279 -1.6236  0.6860  2.6301
15621TIP3   OH268277   2.893   0.346  14.519 -0.1759  0.0084 -0.0178
15621TIP3    H168278   2.800   0.323  14.521  0.1046 -1.2050  0.4572
15621TIP3    H268279   2.915   0.366  14.610  0.2437 -0.7410  0.0599
15622TIP3   OH268280   0.732   0.416   6.387 -0.1550 -0.1649  0.7374
15622TIP3    H168281   0.685   0.454   6.461 -0.6894 -0.4963  0.5760
15622TIP3    H268282   0.683   0.446   6.310 -0.5463 -1.1013  0.6043
15623TIP3   OH268283   0.230   4.308   2.828 -0.3318 -0.1825 -0.4520
15623TIP3    H168284   0.205   4.223   2.865  1.2814 -1.0940 -1.3478
15623TIP3    H268285   0.312   4.330   2.873 -2.4550  2.7982  2.5339
15624TIP3   OH268286   3.130   4.319  14.090  0.5479 -0.3706 -0.4294
15624TIP3    H168287   3.085   4.235  14.089  0.9874 -0.6481  0.8648
15624TIP3    H268288   3.121   4.350  14.180  0.6385  0.8384 -0.8211
15625TIP3   OH268289   2.380   1.608   1.986  0.1547 -0.1780  0.2663
15625TIP3    H168290   2.400   1.655   2.067  1.3026 -1.4367  0.7465
15625TIP3    H268291   2.292   1.573   2.000  0.3807 -0.4692  1.0258
15626TIP3   OH268292   3.409   3.144   4.635  0.4156  0.5014 -0.1400
15626TIP3    H168293   3.324   3.186   4.623 -0.4966 -1.1167  0.3791
15626TIP3    H268294   3.455   3.201   4.696 -0.6823  0.8776  0.3610
15627TIP3   OH268295   5.499   2.900  11.942 -0.7443 -0.2067 -0.2102
15627TIP3    H168296   5.578   2.847  11.950  0.2851  1.3624  0.5222
15627TIP3    H268297   5.461   2.900  12.030 -0.7953  0.1774 -0.2306
15628TIP3   OH268298   4.494   0.284  14.125 -0.4109 -0.1004  0.3416
15628TIP3    H168299   4.444   0.273  14.205 -0.0459 -1.6865  0.3848
15628TIP3    H268300   4.482   0.202  14.077  3.0654 -1.0901  0.9180
15629TIP3   OH268301   4.601   4.301  13.483  0.0150 -0.0885 -0.1068
15629TIP3    H168302   4.643   4.360  13.420 -0.5114  1.8880  1.2780
15629TIP3    H268303   4.507   4.306  13.461 -0.0088 -0.6683 -0.1581
15630TIP3   OH268304   5.153   1.059  16.799 -0.4626 -0.2572 -0.5695
15630TIP3    H168305   5.215   1.030  16.866  1.3995 -1.5396 -2.6758
15630TIP3    H268306   5.068   1.028  16.829  0.2585 -0.4629  1.3640
15631TIP3   OH268307   4.262   0.931  11.489 -0.5227 -0.1081  0.1890
15631TIP3    H168308   4.300   0.871  11.553  0.3582 -1.0038 -1.1221
15631TIP3    H268309   4.182   0.963  11.531  1.1532  1.1657  2.6678
15632TIP3   OH268310   6.780   3.901  15.466 -0.0122  0.2618 -0.5329
15632TIP3    H168311   6.831   3.820  15.459  0.1932  0.2535  0.7907
15632TIP3    H268312   6.804   3.951  15.389  1.2595 -0.1629 -0.4270
15633TIP3   OH268313   4.182   1.374   6.289 -0.2965 -0.0748 -0.0141
15633TIP3    H168314   4.264   1.396   6.333 -0.0921  0.1825 -0.5137
15633TIP3    H268315   4.116   1.427   6.334  0.0802  1.0495 -0.7335
15634TIP3   OH268316   6.109   1.590   4.445 -0.1037  0.2041  0.6395
15634TIP3    H168317   6.186   1.540   4.417  2.3337  2.0774  3.3708
15634TIP3    H268318   6.088   1.645   4.369 -0.1985 -1.8630 -0.9134
15635TIP3   OH268319   3.284   1.369  16.924  0.1383  0.1640 -0.5427
15635TIP3    H168320   3.246   1.442  16.972 -0.8495 -0.9801  0.4953
15635TIP3    H268321   3.335   1.321  16.989  0.1165 -0.5153 -1.0083
15636TIP3   OH268322   0.979   0.407  11.528 -0.0472  0.0134 -0.2651
15636TIP3    H168323   1.075   0.412  11.530 -0.0671  0.2107  0.1820
15636TIP3    H268324   0.953   0.396  11.619 -0.3848 -1.3628 -0.4969
15637TIP3   OH268325   0.789   1.313  14.309 -0.2794 -0.2342  0.1377
15637TIP3    H168326   0.799   1.340  14.400 -0.4957 -0.0801  0.1164
15637TIP3    H268327   0.734   1.235  14.313  1.6128 -1.6273  0.3374
15638TIP3   OH268328   6.205   4.157  15.071  0.5793 -0.1839 -0.2222
15638TIP3    H168329   6.210   4.219  15.144  1.7276 -1.2009  0.6092
15638TIP3    H268330   6.112   4.136  15.063  0.2686  1.0291 -0.0198
15639TIP3   OH268331   3.436   0.450   0.836 -0.2695 -0.5828  0.3809
15639TIP3    H168332   3.462   0.362   0.864  2.7120  0.0272 -0.1306
15639TIP3    H268333   3.498   0.508   0.880 -0.9043  1.1032 -0.8457
15640TIP3   OH268334   2.003   0.950   3.546  0.5189  0.4847  0.0762
15640TIP3    H168335   2.068   0.908   3.489  0.2509 -2.0600  1.4749
15640TIP3    H268336   2.055   0.993   3.613  0.8605 -1.5839  1.2194
15641TIP3   OH268337   4.861   5.923  10.376 -0.3100 -0.6672  0.4367
15641TIP3    H168338   4.849   5.882  10.291  0.9925  0.5717 -0.3966
15641TIP3    H268339   4.781   5.904  10.425 -2.1283  0.5926 -1.8885
15642TIP3   OH268340   3.339   4.946  11.228  0.0555  0.4082 -0.0202
15642TIP3    H168341   3.404   4.966  11.294  1.0633  0.1606 -0.9104
15642TIP3    H268342   3.378   4.975  11.145 -2.0112  2.6403 -0.3170
15643TIP3   OH268343   4.956   4.486  13.011  0.5095 -0.0730  0.7386
15643TIP3    H168344   4.972   4.427  12.937  0.5067  1.9501 -0.9653
15643TIP3    H268345   4.978   4.573  12.978 -0.8392  1.0996  2.6832
15644TIP3   OH268346   0.447   4.705   5.021  0.1548 -0.5116  0.3310
15644TIP3    H168347   0.358   4.674   5.037  0.0399 -0.0939  0.5331
15644TIP3    H268348   0.473   4.744   5.105  0.0609  0.4769 -0.0796
15645TIP3   OH268349   0.458   6.571   4.498 -0.4218  0.3295  0.2988
15645TIP3    H168350   0.534   6.513   4.503  1.2586  2.5111  2.8146
15645TIP3    H268351   0.383   6.511   4.499  1.1895 -1.8877  2.3807
15646TIP3   OH268352   1.354   4.405  12.589 -0.1703  0.0048  0.8401
15646TIP3    H168353   1.344   4.497  12.567 -0.4958 -0.2214 -0.0193
15646TIP3    H268354   1.447   4.394  12.608  0.1327  0.2497 -0.3819
15647TIP3   OH268355   0.740   0.587  13.137 -0.8274  0.2238  0.5013
15647TIP3    H168356   0.701   0.500  13.129 -1.2241  0.4613 -0.2438
15647TIP3    H268357   0.758   0.614  13.046 -0.9705  1.0335  0.7076
15648TIP3   OH268358   0.980   5.609  14.620  0.3974 -0.0590  0.6668
15648TIP3    H168359   0.918   5.537  14.627  1.0880 -0.7338  0.0565
15648TIP3    H268360   0.932   5.679  14.576  0.3848 -0.9730 -0.8325
15649TIP3   OH268361   5.271   2.591  15.775  0.1147  0.4461  0.4535
15649TIP3    H168362   5.313   2.556  15.854  0.4406 -0.1797  0.0146
15649TIP3    H268363   5.301   2.533  15.705 -2.4933 -0.8482  0.2833
15650TIP3   OH268364   4.238   6.168   3.388 -0.1628 -0.5138  0.1731
15650TIP3    H168365   4.255   6.097   3.449 -1.6075 -1.4529 -0.4743
15650TIP3    H268366   4.156   6.145   3.345 -1.0036  1.8197  0.3462
15651TIP3   OH268367   5.047   1.201   2.303  0.2671  0.4577 -0.1762
15651TIP3    H168368   5.123   1.145   2.323  0.2341  0.2706 -0.5607
15651TIP3    H268369   4.971   1.148   2.329  0.2175  0.1530 -0.9274
15652TIP3   OH268370   0.622   2.634   4.631  0.5022  0.8426  0.5121
15652TIP3    H168371   0.558   2.567   4.653  0.2482 -0.5765 -3.6612
15652TIP3    H268372   0.570   2.706   4.595  1.0723  0.8835 -0.2510
15653TIP3   OH268373   5.639   2.838   4.556 -0.1091  0.3381  0.2572
15653TIP3    H168374   5.549   2.864   4.535  0.8485  2.2503 -1.9162
15653TIP3    H268375   5.650   2.753   4.511 -0.8900 -0.0627  0.7954
15654TIP3   OH268376   5.256   3.092   0.361  0.0286  0.5037  0.2657
15654TIP3    H168377   5.257   3.135   0.446 -2.9016 -0.5204  0.9353
15654TIP3    H268378   5.200   3.147   0.306 -0.2942 -0.2227 -0.1566
15655TIP3   OH268379   1.845   2.769  14.618  0.5717 -0.4011  0.4285
15655TIP3    H168380   1.878   2.808  14.538 -0.7611 -0.4968 -0.1968
15655TIP3    H268381   1.793   2.839  14.659  0.9187 -0.4755  1.0096
15656TIP3   OH268382   3.071   3.287  13.790  1.0338 -0.3480  0.8639
15656TIP3    H168383   3.045   3.263  13.701 -1.1787  0.2069  1.2898
15656TIP3    H268384   3.140   3.352  13.779  0.6084 -0.0975 -0.4527
15657TIP3   OH268385   3.874   1.637   4.297 -0.3452  1.0926 -0.4790
15657TIP3    H168386   3.931   1.567   4.264  0.1245  0.0026  2.2856
15657TIP3    H268387   3.934   1.707   4.323 -0.5358  1.2532 -0.4722
15658TIP3   OH268388   5.490   3.765  13.021 -0.2478  0.3329 -0.1384
15658TIP3    H168389   5.530   3.799  13.101  0.8556 -1.5716  0.1919
15658TIP3    H268390   5.548   3.795  12.951 -1.2070  1.9907 -0.2655
15659TIP3   OH268391   4.716   3.325   4.132  0.1352 -0.2438 -0.0691
15659TIP3    H168392   4.691   3.273   4.056  1.2458  0.6517 -1.0846
15659TIP3    H268393   4.636   3.369   4.159 -0.5734 -1.5972  0.1316
15660TIP3   OH268394   4.079   0.377   3.527  0.1579 -0.3127  0.2743
15660TIP3    H168395   4.033   0.328   3.460  0.8693  0.1896 -0.6018
15660TIP3    H268396   4.171   0.377   3.499  0.0909  2.1938 -0.2050
15661TIP3   OH268397   6.288   4.895   0.659 -0.1234 -0.2058 -0.7032
15661TIP3    H168398   6.197   4.913   0.638  0.2772  1.6072 -1.0361
15661TIP3    H268399   6.292   4.901   0.755 -0.5501 -1.4138 -0.5935
15662TIP3   OH268400   2.932   6.502  14.583 -0.2291 -0.0637  0.3314
15662TIP3    H168401   2.912   6.593  14.604 -0.9967  0.4689 -2.3310
15662TIP3    H268402   2.929   6.457  14.667 -0.6072  2.2121  1.6217
15663TIP3   OH268403   3.111   3.211   4.949 -0.4905 -0.6127  0.2090
15663TIP3    H168404   3.055   3.137   4.926  0.8712 -1.3680 -0.7953
15663TIP3    H268405   3.192   3.171   4.980 -0.2812  0.4632  1.1128
15664TIP3   OH268406   3.650   3.698  15.062 -0.1024 -0.5283 -0.1436
15664TIP3    H168407   3.678   3.610  15.089 -0.3787 -1.0752 -1.5370
15664TIP3    H268408   3.691   3.757  15.125  0.0041 -1.6608  0.8810
15665TIP3   OH268409   1.660   6.409   1.456 -0.4728 -0.6418  0.2504
15665TIP3    H168410   1.709   6.490   1.446 -5.3782  2.6208 -1.2350
15665TIP3    H268411   1.638   6.405   1.550 -1.5348  0.7870  0.0957
15666TIP3   OH268412   0.862   1.574   0.179 -0.5925 -0.2198  0.4424
15666TIP3    H168413   0.938   1.614   0.136 -0.0506  0.8172  2.2493
15666TIP3    H268414   0.872   1.481   0.162  0.2489  0.0452 -0.6427
15667TIP3   OH268415   2.014   2.252  11.895 -0.3711 -0.3020  0.0715
15667TIP3    H168416   2.015   2.289  11.984  3.4283  2.9330 -1.0741
15667TIP3    H268417   2.084   2.188  11.895 -0.7597 -0.7372 -0.4646
15668TIP3   OH268418   4.365   0.975  11.244  0.0500  0.0906 -0.0256
15668TIP3    H168419   4.301   1.016  11.186 -1.0920 -1.3282  0.1966
15668TIP3    H268420   4.323   0.976  11.330 -0.1457 -1.7952 -0.0725
15669TIP3   OH268421   4.350   6.433  12.164 -0.2712 -0.0073  0.0874
15669TIP3    H168422   4.297   6.460  12.238 -1.1800  2.1523 -1.2536
15669TIP3    H268423   4.296   6.452  12.087  1.5507  0.1529 -1.2349
15670TIP3   OH268424   5.394   2.795  11.705 -0.4925  0.4319 -0.5789
15670TIP3    H168425   5.425   2.838  11.785 -0.8693  1.1141 -0.7867
15670TIP3    H268426   5.469   2.745  11.674 -0.8154 -1.1587  1.0643
15671TIP3   OH268427   6.346   4.803  15.150 -0.4820  0.6285  0.0552
15671TIP3    H168428   6.285   4.800  15.076 -0.4187  1.5269 -0.0413
15671TIP3    H268429   6.430   4.777  15.112 -1.2680 -3.7987  0.7885
15672TIP3   OH268430   1.454   6.191   3.211  0.1615  0.4437 -0.2555
15672TIP3    H168431   1.427   6.099   3.208  0.4467  0.2855  1.2427
15672TIP3    H268432   1.446   6.221   3.121 -1.2879 -0.6568 -0.5376
15673TIP3   OH268433   4.261   3.318  12.744 -0.1252  0.2342 -0.5419
15673TIP3    H168434   4.245   3.280  12.830 -0.2070  0.4383 -0.4658
15673TIP3    H268435   4.265   3.412  12.760  3.0611  0.1566 -0.2160
15674TIP3   OH268436   2.218   3.151  10.879 -0.5887  0.1290 -0.4857
15674TIP3    H168437   2.263   3.096  10.815 -2.2000 -2.5204  0.5035
15674TIP3    H268438   2.196   3.231  10.831  2.7396  0.4814 -1.7133
15675TIP3   OH268439   6.166   4.592   0.587 -0.2093 -0.2024  0.5335
15675TIP3    H168440   6.229   4.664   0.590  1.0047 -1.2042 -0.0050
15675TIP3    H268441   6.211   4.523   0.538 -0.6416 -1.9912  2.5217
15676TIP3   OH268442   5.734   3.142   2.924 -0.7030 -0.0832  0.8340
15676TIP3    H168443   5.763   3.224   2.962  0.0246 -0.4506  1.0756
15676TIP3    H268444   5.699   3.092   2.997 -1.1096 -0.0156  0.6927
15677TIP3   OH268445   4.170   2.564  10.590  0.0081 -0.2170 -0.1013
15677TIP3    H168446   4.162   2.609  10.506  1.5398  0.6078  0.1656
15677TIP3    H268447   4.083   2.572  10.629 -0.2290  0.9837 -0.8168
15678TIP3   OH268448   0.796   0.385  15.334 -0.1475 -0.0269  0.0378
15678TIP3    H168449   0.774   0.478  15.327 -0.7833 -0.1720  0.0829
15678TIP3    H268450   0.716   0.339  15.309  0.5018 -0.5793 -1.1408
15679TIP3   OH268451   1.327   5.571  13.962 -0.4191  0.6250  0.0587
15679TIP3    H168452   1.358   5.574  13.872 -0.9880  0.8280 -0.1366
15679TIP3    H268453   1.323   5.663  13.989  0.9799  0.5132  0.7363
15680TIP3   OH268454   1.123   2.318  10.739 -0.1245  0.1599 -0.2048
15680TIP3    H168455   1.196   2.380  10.749 -0.1662 -0.0240  1.4873
15680TIP3    H268456   1.059   2.346  10.804 -0.5886 -1.0413 -0.1266
15681TIP3   OH268457   5.236   0.445  11.362  0.3176  0.5259 -0.4742
15681TIP3    H168458   5.253   0.403  11.278 -1.1628  1.6097 -1.3699
15681TIP3    H268459   5.141   0.461  11.362  0.5579  2.1914  0.6034
15682TIP3   OH268460   3.720   1.038  13.898 -0.2921 -0.1317  0.3591
15682TIP3    H168461   3.644   1.095  13.884  1.1706  2.1685  1.2074
15682TIP3    H268462   3.754   1.065  13.983  1.1540 -1.5305  0.2620
15683TIP3   OH268463   4.128   2.333  16.282  0.5616 -0.3486  0.2577
15683TIP3    H168464   4.165   2.353  16.196  0.7981  0.0340  0.4429
15683TIP3    H268465   4.069   2.406  16.301 -0.9358 -1.3390 -0.3778
15684TIP3   OH268466   0.043   6.374   5.066  0.3589 -0.2350  0.4250
15684TIP3    H168467   0.071   6.331   5.147 -0.6827 -1.5915  0.0913
15684TIP3    H268468   0.023   6.302   5.006  0.2502  0.7452 -0.7484
15685TIP3   OH268469   3.170   5.368   3.701  0.0182 -0.3473 -0.3531
15685TIP3    H168470   3.187   5.450   3.654  0.7127 -0.3141 -0.0495
15685TIP3    H268471   3.237   5.308   3.671  1.1854  0.0015  1.3915
15686TIP3   OH268472   4.626   6.426  12.299  0.3583  0.2780  0.8516
15686TIP3    H168473   4.635   6.429  12.394 -0.9056 -1.0719  1.0472
15686TIP3    H268474   4.532   6.415  12.284  0.6572 -0.7579 -0.4907
15687TIP3   OH268475   3.800   2.579   4.623 -0.5366 -0.2192 -0.4089
15687TIP3    H168476   3.874   2.614   4.574  0.1136 -0.8734  0.0836
15687TIP3    H268477   3.840   2.533   4.697 -1.2411 -3.2899 -1.7770
15688TIP3   OH268478   1.681   1.231  10.669 -0.3733 -0.0401  0.4096
15688TIP3    H168479   1.763   1.246  10.623 -0.3926 -1.8424 -0.2932
15688TIP3    H268480   1.693   1.146  10.712 -1.5614  0.0748  1.0132
15689TIP3   OH268481   5.585   2.544   4.190  0.7950  0.7180 -0.5328
15689TIP3    H168482   5.645   2.477   4.160  1.7783  0.1770  2.2915
15689TIP3    H268483   5.501   2.499   4.201  0.9364  0.4442 -0.5702
15690TIP3   OH268484   2.780   1.293  15.800  0.0502 -0.2166  0.4954
15690TIP3    H168485   2.698   1.328  15.836  1.4922  1.5624  2.3113
15690TIP3    H268486   2.804   1.222  15.859 -0.1064 -0.6457  0.0468
15691TIP3   OH268487   1.030   4.979   2.740  0.2824 -0.0945 -0.4591
15691TIP3    H168488   0.943   4.966   2.702  0.7481  0.5244 -1.7958
15691TIP3    H268489   1.013   4.996   2.833 -0.8659 -2.0074 -0.2650
15692TIP3   OH268490   4.775   2.726  15.078  0.0767  0.2526  0.1274
15692TIP3    H168491   4.825   2.661  15.027 -0.0877  0.7205 -0.6561
15692TIP3    H268492   4.684   2.707  15.057  0.0188  0.5790  0.0808
15693TIP3   OH268493   6.774   1.379   0.529 -0.2055  0.2481  0.2369
15693TIP3    H168494   6.797   1.341   0.614  0.3932 -1.8729 -0.8007
15693TIP3    H268495   6.703   1.324   0.497  0.4659  0.1618 -1.1914
15694TIP3   OH268496   6.496   1.816   5.400  0.4763  0.5759 -0.8067
15694TIP3    H168497   6.450   1.898   5.383  1.5275  0.5514 -4.3878
15694TIP3    H268498   6.551   1.835   5.476 -1.1699  2.3243  0.0390
15695TIP3   OH268499   1.938   4.164  13.249 -0.4408 -0.2466  0.6962
15695TIP3    H168500   1.895   4.083  13.224  2.4935 -1.4543 -0.9503
15695TIP3    H268501   2.000   4.139  13.317  1.3302  0.2532 -0.6326
15696TIP3   OH268502   0.191   3.791  12.270 -0.1385 -0.1829 -0.3767
15696TIP3    H168503   0.168   3.749  12.353  0.8893  1.0508  0.5708
15696TIP3    H268504   0.108   3.823  12.235 -0.6483 -1.1356 -0.0773
15697TIP3   OH268505   6.139   5.124   4.055  0.6571  0.1058  0.0654
15697TIP3    H168506   6.166   5.033   4.043 -3.3710 -1.4762  1.2675
15697TIP3    H268507   6.135   5.135   4.150  0.5636  1.3939 -0.0725
15698TIP3   OH268508   4.812   5.565  14.857 -0.1101 -0.4129 -0.1155
15698TIP3    H168509   4.767   5.481  14.852 -2.9660  0.9811  0.2412
15698TIP3    H268510   4.850   5.577  14.770 -2.8566 -0.4834 -1.4185
15699TIP3   OH268511   4.975   2.486  12.448  0.1235  0.4839  0.5667
15699TIP3    H168512   4.967   2.411  12.506 -4.6736  2.3858  2.8643
15699TIP3    H268513   4.907   2.472  12.381  0.8733  1.6045 -0.4777
15700TIP3   OH268514   1.288   4.732   1.690 -0.3643  0.1248  0.0273
15700TIP3    H168515   1.283   4.827   1.685 -0.0235  0.1019 -1.1936
15700TIP3    H268516   1.382   4.714   1.699 -0.4536 -0.0943  0.5670
15701TIP3   OH268517   5.290   1.571   4.946 -0.5963  0.1782 -0.0064
15701TIP3    H168518   5.370   1.574   4.998 -0.0943  0.0014 -0.7495
15701TIP3    H268519   5.238   1.644   4.978 -0.8499 -0.6712  1.6014
15702TIP3   OH268520   3.226   0.807   4.520 -0.1253  0.3798 -0.1353
15702TIP3    H168521   3.213   0.855   4.438  0.1208  1.5393  0.4876
15702TIP3    H268522   3.137   0.780   4.545 -0.4572  1.7991  0.2612
15703TIP3   OH268523   6.472   6.230  12.156 -0.0575  0.7092  0.0107
15703TIP3    H168524   6.497   6.307  12.207  0.4589 -0.5372  1.7201
15703TIP3    H268525   6.511   6.156  12.203 -1.4338 -0.7034 -0.9630
15704TIP3   OH268526   5.118   0.513   4.686 -0.8668 -0.1093 -0.6067
15704TIP3    H168527   5.161   0.595   4.709 -1.4592 -0.1660  0.8371
15704TIP3    H268528   5.186   0.462   4.641  0.6811 -0.2257  1.6437
15705TIP3   OH268529   2.006   4.022  13.787  0.0073 -0.5242  0.4626
15705TIP3    H168530   2.091   3.984  13.761  0.4267  0.6479  0.0568
15705TIP3    H268531   1.951   4.011  13.710 -0.0867 -0.9129  0.5828
15706TIP3   OH268532   0.614   0.552  14.033 -0.7088  0.1574  0.3169
15706TIP3    H168533   0.608   0.513  13.946 -1.0829  0.0918  0.3684
15706TIP3    H268534   0.573   0.487  14.091  0.1450 -0.1035  0.6416
15707TIP3   OH268535   0.447   6.197  10.893  0.0584 -0.0090 -0.2851
15707TIP3    H168536   0.416   6.141  10.821 -2.0882  0.3627  0.2898
15707TIP3    H268537   0.393   6.275  10.887  2.3956  1.7210 -0.5191
15708TIP3   OH268538   2.896   3.393   5.135 -0.4165  0.2922  0.8745
15708TIP3    H168539   2.861   3.393   5.046 -0.1876 -0.1762  0.7833
15708TIP3    H268540   2.844   3.460   5.181  0.1234  1.2418  0.1405
15709TIP3   OH268541   4.762   1.298  16.212  0.1151 -0.3770 -0.1484
15709TIP3    H168542   4.673   1.263  16.220  0.6480 -1.6376  0.5095
15709TIP3    H268543   4.770   1.359  16.285 -0.0086 -0.7332  0.1684
15710TIP3   OH268544   1.402   3.194   1.908  0.1296  0.5551 -0.2698
15710TIP3    H168545   1.360   3.253   1.846  0.0771  0.6427 -0.1505
15710TIP3    H268546   1.338   3.124   1.922  1.3474 -1.2277 -2.8083
15711TIP3   OH268547   3.202   5.095   6.039  0.3865 -0.1467  0.2982
15711TIP3    H168548   3.247   5.178   6.058  0.4777  0.2876 -1.5851
15711TIP3    H268549   3.200   5.049   6.123 -0.2057  2.0067  1.5637
15712TIP3   OH268550   2.291   5.414  13.129  0.0153  0.1482 -0.4556
15712TIP3    H168551   2.313   5.331  13.086  0.1957 -1.1349  1.9689
15712TIP3    H268552   2.204   5.436  13.096 -0.1455 -1.1374 -0.9365
15713TIP3   OH268553   4.416   5.928  16.862  0.2798 -0.0254 -0.3462
15713TIP3    H168554   4.480   5.946  16.931 -0.7747  0.3185  0.5813
15713TIP3    H268555   4.438   5.990  16.792  2.3555 -1.4394 -1.0464
15714TIP3   OH268556   3.619   1.854   5.394 -0.2687  0.5402 -0.1787
15714TIP3    H168557   3.670   1.914   5.339  1.3233  0.8738  1.5316
15714TIP3    H268558   3.658   1.768   5.378  1.2256  0.8500  1.4136
15715TIP3   OH268559   5.502   0.976  12.790 -0.6475  0.3027  0.3580
15715TIP3    H168560   5.570   0.937  12.736 -1.0921  0.4990 -0.3575
15715TIP3    H268561   5.522   0.947  12.879 -1.3498 -2.1484 -0.2066
15716TIP3   OH268562   2.704   2.545   4.894  0.2647  0.3049 -0.0777
15716TIP3    H168563   2.782   2.543   4.949  1.2235 -2.1380 -1.3766
15716TIP3    H268564   2.633   2.564   4.955  1.0891 -3.3962  2.3903
15717TIP3   OH268565   6.688   3.225  13.085 -0.2941  0.4740  0.0122
15717TIP3    H168566   6.763   3.253  13.136  1.1798 -1.0112 -1.2290
15717TIP3    H268567   6.625   3.297  13.093  1.9241  2.5847 -0.3030
15718TIP3   OH268568   0.436   2.393   2.307 -0.0565 -0.4135 -0.3938
15718TIP3    H168569   0.434   2.348   2.223  2.1318 -2.2793  0.4666
15718TIP3    H268570   0.398   2.331   2.369  0.1659  0.1494  0.3318
15719TIP3   OH268571   2.998   6.337  11.808 -0.5990 -0.1096  0.1825
15719TIP3    H168572   3.031   6.248  11.792 -0.1766  0.4194 -2.3355
15719TIP3    H268573   3.042   6.365  11.888  0.2792 -1.6729  0.2998
15720TIP3   OH268574   5.021   6.470  12.911 -0.7438 -0.1499  0.4479
15720TIP3    H168575   4.945   6.524  12.932 -0.3200  0.0126  1.6312
15720TIP3    H268576   5.029   6.475  12.816 -0.5861  2.0311  0.5419
15721TIP3   OH268577   1.296   5.842  15.179  0.0445 -0.2385  0.5818
15721TIP3    H168578   1.306   5.937  15.185 -1.2831 -0.0298 -0.3203
15721TIP3    H268579   1.363   5.815  15.117 -0.1686  0.2238  0.1449
15722TIP3   OH268580   2.003   2.377  12.138 -0.2971  0.6403  0.6780
15722TIP3    H168581   1.923   2.336  12.172 -0.7616  1.0776  0.1411
15722TIP3    H268582   1.990   2.470  12.153  0.1967  0.6982  0.7534
15723TIP3   OH268583   4.760   0.803  15.428  0.3784  0.0693 -0.1719
15723TIP3    H168584   4.772   0.708  15.420  0.0141 -0.0933  0.9909
15723TIP3    H268585   4.804   0.839  15.351  0.4333 -1.0457 -0.6900
15724TIP3   OH268586   6.424   1.969  14.621  0.4335 -0.4608  0.0681
15724TIP3    H168587   6.404   1.876  14.609  0.9915 -0.4301 -1.2028
15724TIP3    H268588   6.339   2.013  14.618  0.2832 -0.7985 -0.5943
15725TIP3   OH268589   1.765   6.617   4.834  0.1516  0.0670  0.1465
15725TIP3    H168590   1.731   6.647   4.750  0.8418 -0.9446 -0.5183
15725TIP3    H268591   1.687   6.601   4.887 -0.4815 -1.9023 -1.2336
15726TIP3   OH268592   1.159   2.408   2.731  0.0610  0.1095  0.0631
15726TIP3    H168593   1.168   2.500   2.754 -1.1614  0.0086  0.9989
15726TIP3    H268594   1.137   2.408   2.638 -0.3876  0.7863  0.1654
15727TIP3   OH268595   2.661   0.344   3.639  0.2118 -0.6977  0.4952
15727TIP3    H168596   2.586   0.354   3.580  0.4358 -1.2230  0.1143
15727TIP3    H268597   2.623   0.350   3.726 -0.5512 -2.5843  0.3458
15728TIP3   OH268598   6.249   5.126   3.246 -0.0252 -0.1529 -0.0288
15728TIP3    H168599   6.217   5.213   3.222 -1.8746 -0.9589 -0.6805
15728TIP3    H268600   6.173   5.081   3.282  0.4863 -1.9882 -1.0970
15729TIP3   OH268601   0.805   3.808   4.794  0.2713  0.6428  0.5891
15729TIP3    H168602   0.831   3.734   4.740  1.2882  0.6050  1.1105
15729TIP3    H268603   0.718   3.785   4.826  0.4927 -0.2441  0.5869
15730TIP3   OH268604   4.208   0.865  16.585  0.2732 -0.1760 -0.9209
15730TIP3    H168605   4.117   0.860  16.557 -0.3523  1.1384  0.7202
15730TIP3    H268606   4.218   0.793  16.649 -0.1951  0.8417  0.3351
15731TIP3   OH268607   2.853   2.911  12.652  0.1005  0.5046  0.1088
15731TIP3    H168608   2.777   2.860  12.682  0.7573  0.1998  1.3187
15731TIP3    H268609   2.892   2.858  12.582 -1.4518  1.2152 -1.3641
15732TIP3   OH268610   6.642   1.678   4.515  0.1112 -0.4164  0.3587
15732TIP3    H168611   6.575   1.715   4.458 -1.2450  0.2338  2.2350
15732TIP3    H268612   6.682   1.754   4.558 -0.4082 -0.9151  1.8139
15733TIP3   OH268613   4.897   0.485  12.693  0.1287 -0.3257 -0.5662
15733TIP3    H168614   4.825   0.520  12.641 -0.0770 -1.1461 -0.8439
15733TIP3    H268615   4.915   0.554  12.758 -2.3849 -0.9546  0.9415
15734TIP3   OH268616   0.503   1.591  15.839 -0.7990  0.2158  0.4539
15734TIP3    H168617   0.477   1.513  15.789  0.1649  1.5863 -2.4007
15734TIP3    H268618   0.587   1.566  15.878 -0.5707 -0.2549 -0.3053
15735TIP3   OH268619   2.311   4.238  11.898  0.3746 -0.7773  0.0286
15735TIP3    H168620   2.320   4.147  11.870  1.4830  0.4421 -4.2387
15735TIP3    H268621   2.224   4.264  11.868 -1.0463 -0.9225  3.5007
15736TIP3   OH268622   1.548   6.372   2.681  0.3022  0.3354 -0.4346
15736TIP3    H168623   1.517   6.415   2.601  0.6994  1.0319 -0.2257
15736TIP3    H268624   1.636   6.340   2.658  1.0330  1.8340  0.1436
15737TIP3   OH268625   4.830   5.994   3.394  0.1741  0.0313 -0.6454
15737TIP3    H168626   4.755   5.936   3.405  0.7064 -0.3574  1.2481
15737TIP3    H268627   4.801   6.078   3.428  1.2107 -0.6811  2.3328
15738TIP3   OH268628   1.839   4.150   0.613 -0.5588 -0.3808  0.0654
15738TIP3    H168629   1.844   4.239   0.578 -1.1160  0.1929  1.3706
15738TIP3    H268630   1.930   4.122   0.623 -0.3391  0.6187  1.0136
15739TIP3   OH268631   3.163   2.902  16.920 -0.0819 -0.4919 -0.3121
15739TIP3    H168632   3.089   2.845  16.941  0.5849 -0.9317  0.9372
15739TIP3    H268633   3.220   2.849  16.864 -0.4889 -0.3078 -0.9051
15740TIP3   OH268634   2.409   6.759  14.215  0.0821 -0.2892 -0.1573
15740TIP3    H168635   2.353   6.682  14.224  1.9200 -1.6261  0.4616
15740TIP3    H268636   2.425   6.766  14.120 -0.9136 -0.0249 -0.3176
15741TIP3   OH268637   6.685   1.000   4.746 -0.1573 -0.1607  0.5006
15741TIP3    H168638   6.633   0.984   4.825 -0.7124 -0.5185  0.0740
15741TIP3    H268639   6.644   0.944   4.679  0.3795  0.0451 -0.0081
15742TIP3   OH268640   3.573   1.677  14.439  0.3594 -0.1319  0.0928
15742TIP3    H168641   3.533   1.615  14.500  0.4628  0.2211  0.5287
15742TIP3    H268642   3.613   1.743  14.495  1.2345 -0.2739 -0.3420
15743TIP3   OH268643   4.798   4.112  11.792  0.5092  0.9073 -0.4591
15743TIP3    H168644   4.850   4.149  11.864 -0.4109  1.0353  0.1587
15743TIP3    H268645   4.732   4.059  11.836  0.0369  0.8591 -1.2246
15744TIP3   OH268646   4.714   2.515   1.654  0.0168 -0.2378  0.1246
15744TIP3    H168647   4.657   2.578   1.699  0.4616  0.8184 -0.7376
15744TIP3    H268648   4.655   2.452   1.614 -0.4207 -0.7285  1.4793
15745TIP3   OH268649   0.510   4.751  16.852 -0.1199 -0.3380  0.0930
15745TIP3    H168650   0.559   4.734  16.772 -0.2554  1.2855 -0.3633
15745TIP3    H268651   0.439   4.808  16.825  0.3785  1.0213  1.5062
15746TIP3   OH268652   3.589   3.517   0.420  0.9871  0.0043 -0.0865
15746TIP3    H168653   3.605   3.543   0.330  2.6346 -0.8178 -0.0726
15746TIP3    H268654   3.600   3.422   0.421  0.9742 -0.0057  0.9629
15747TIP3   OH268655   0.273   5.904  14.494  0.0821 -0.2722 -0.1364
15747TIP3    H168656   0.202   5.949  14.540  0.8487  0.3036  0.5142
15747TIP3    H268657   0.250   5.811  14.500 -0.8535 -0.0708 -0.3607
15748TIP3   OH268658   4.421   6.221  12.014  0.0054 -0.2492 -0.0707
15748TIP3    H168659   4.384   6.146  12.061 -0.5145  0.0520  0.0014
15748TIP3    H268660   4.417   6.293  12.077 -0.6203  0.1371 -0.5380
15749TIP3   OH268661   0.037   3.229   2.118  0.7399  0.3361 -0.4656
15749TIP3    H168662   0.125   3.220   2.082  1.2857  0.2097  0.8771
15749TIP3    H268663   0.022   3.149   2.167  0.3810  0.9091  0.3797
15750TIP3   OH268664   0.332   5.416  12.322 -0.0789 -0.5034 -0.7890
15750TIP3    H168665   0.320   5.327  12.287 -0.5957 -0.5452 -0.5153
15750TIP3    H268666   0.260   5.466  12.283 -0.3216 -0.4168 -0.2306
15751TIP3   OH268667   1.132   1.008  14.577 -0.2075  0.1993  0.6146
15751TIP3    H168668   1.162   0.927  14.536 -2.1201 -1.2771  1.9345
15751TIP3    H268669   1.114   1.067  14.503  1.5256 -0.4228 -0.3569
15752TIP3   OH268670   5.603   4.547   0.957  0.5242 -0.1959 -0.1268
15752TIP3    H168671   5.562   4.536   1.043 -0.2766  0.4263 -0.4244
15752TIP3    H268672   5.544   4.501   0.897  0.8338 -0.2185 -0.4153
15753TIP3   OH268673   5.957   5.500   6.231  0.0841 -0.2698  0.1951
15753TIP3    H168674   5.871   5.476   6.265 -0.7873  2.3731  0.1460
15753TIP3    H268675   5.946   5.499   6.136 -0.8829  2.7280  0.1534
15754TIP3   OH268676   6.129   5.160   1.584 -0.5062  0.3554 -0.5709
15754TIP3    H168677   6.180   5.228   1.540  0.4758 -1.0776 -1.7296
15754TIP3    H268678   6.110   5.096   1.516  1.4530 -2.1730  1.0749
15755TIP3   OH268679   5.693   1.099  14.339  0.2751  1.1414 -0.2508
15755TIP3    H168680   5.655   1.172  14.387  1.9339  1.5389  0.5212
15755TIP3    H268681   5.742   1.050  14.404  1.3229  0.8222 -1.2375
15756TIP3   OH268682   1.181   5.735   0.632  0.0236  0.3077  0.6670
15756TIP3    H168683   1.213   5.682   0.705  1.9089 -0.7517 -0.8366
15756TIP3    H268684   1.209   5.687   0.553 -1.2007  1.8191 -0.7631
15757TIP3   OH268685   6.177   2.385  15.868 -0.2966 -0.4200 -0.3374
15757TIP3    H168686   6.118   2.445  15.821  0.0377  0.3964  0.2752
15757TIP3    H268687   6.179   2.307  15.812 -0.9828  0.0054 -0.9943
15758TIP3   OH268688   5.069   1.541   3.603  0.2593  0.3642 -0.0522
15758TIP3    H168689   5.140   1.484   3.635  1.0690  0.4873 -1.5747
15758TIP3    H268690   5.010   1.482   3.557 -1.2610  0.0785  2.1082
15759TIP3   OH268691   1.296   1.155   0.858  0.1143 -0.4417  0.3460
15759TIP3    H168692   1.315   1.224   0.920 -0.5761 -1.1044  1.3291
15759TIP3    H268693   1.205   1.130   0.876  0.1140 -1.1127 -0.4707
15760TIP3   OH268694   3.686   1.587   5.348  0.2844  0.3815  0.4292
15760TIP3    H168695   3.729   1.535   5.280 -2.6102 -1.2617 -0.3181
15760TIP3    H268696   3.654   1.523   5.412  0.2374  1.6270  1.7206
15761TIP3   OH268697   0.985   3.825   5.614  0.9121  0.0459 -0.6560
15761TIP3    H168698   0.901   3.870   5.604  0.5865 -0.0533  1.2726
15761TIP3    H268699   0.964   3.732   5.607  0.5718 -0.0603  1.2532
15762TIP3   OH268700   5.694   1.776   4.975 -0.5439 -0.2992 -0.3571
15762TIP3    H168701   5.638   1.807   5.045  1.0899  0.9289  0.4947
15762TIP3    H268702   5.696   1.681   4.985 -2.1125 -0.3285 -0.1711
15763TIP3   OH268703   6.618   1.666  13.743  0.3055  0.3071  0.6698
15763TIP3    H168704   6.644   1.631  13.658  0.6108  2.1775 -0.0522
15763TIP3    H268705   6.672   1.619  13.806  1.1464 -0.0663 -0.3010
15764TIP3   OH268706   5.698   1.552  16.153 -0.5980  0.2245  0.3557
15764TIP3    H168707   5.644   1.473  16.146 -2.6581  1.5597  0.2589
15764TIP3    H268708   5.751   1.538  16.231 -0.0164 -1.7328 -0.3195
15765TIP3   OH268709   3.176   5.963   1.673  0.0346  0.1358  0.0314
15765TIP3    H168710   3.270   5.959   1.686  0.2503 -1.0365 -1.6969
15765TIP3    H268711   3.141   5.897   1.733  0.0424  2.0530  2.3194
15766TIP3   OH268712   3.632   0.775   1.803  0.4259  0.1014 -0.3781
15766TIP3    H168713   3.617   0.829   1.881  0.5679 -1.4999  0.8073
15766TIP3    H268714   3.546   0.738   1.783  0.4712  0.1963 -0.7506
15767TIP3   OH268715   4.315   4.590  14.082 -0.5611  0.6510 -0.2299
15767TIP3    H168716   4.296   4.618  14.171  1.2333 -2.8171  1.4633
15767TIP3    H268717   4.384   4.649  14.052 -1.1474  1.8270  0.6617
15768TIP3   OH268718   1.692   6.718  12.747  0.2912 -0.1989  0.3090
15768TIP3    H168719   1.625   6.753  12.689  1.7273 -2.1970 -2.8104
15768TIP3    H268720   1.659   6.631  12.771  1.6929 -1.2566 -1.3632
15769TIP3   OH268721   5.982   4.366   3.085  0.0901  0.3121 -0.3826
15769TIP3    H168722   5.989   4.417   3.005 -0.6552 -2.6408 -2.5268
15769TIP3    H268723   6.055   4.304   3.081 -0.8514 -0.8968  0.4124
15770TIP3   OH268724   5.157   1.377   2.016  0.3334 -0.0985 -0.0398
15770TIP3    H168725   5.187   1.296   2.055 -0.5017  0.0345  0.9275
15770TIP3    H268726   5.105   1.420   2.085  1.4854  1.6868 -0.2103
15771TIP3   OH268727   4.764   2.912   1.323  0.2028 -0.3673  0.3636
15771TIP3    H168728   4.789   2.862   1.401  0.4887 -2.3005 -0.9084
15771TIP3    H268729   4.842   2.912   1.268 -0.4138 -0.2602 -0.5307
15772TIP3   OH268730   0.196   3.920   3.773  0.2751 -0.5984  0.2827
15772TIP3    H168731   0.183   3.944   3.864  0.8896 -0.6741  0.3966
15772TIP3    H268732   0.253   3.988   3.737 -0.1325 -0.4533 -0.1039
15773TIP3   OH268733   0.131   1.909  12.745  0.2056  0.6426  0.0603
15773TIP3    H168734   0.186   1.972  12.792  0.3961 -0.0284  0.7579
15773TIP3    H268735   0.071   1.875  12.812 -0.7092  0.9638 -0.5766
15774TIP3   OH268736   3.409   2.190   5.415  0.6084  0.2854 -0.5750
15774TIP3    H168737   3.321   2.160   5.440  0.8324 -0.4326 -0.6408
15774TIP3    H268738   3.457   2.194   5.497  0.8997 -0.6121 -0.6921
15775TIP3   OH268739   3.178   3.142  17.046  0.1014  0.1594 -0.0112
15775TIP3    H168740   3.084   3.158  17.037  0.3511  1.2608 -0.7449
15775TIP3    H268741   3.195   3.065  16.991 -0.5804 -0.8880  1.1785
15776TIP3   OH268742   5.954   0.286  11.612  0.2147  0.3556  0.4453
15776TIP3    H168743   5.860   0.288  11.632  0.1662  1.4530  0.2051
15776TIP3    H268744   5.961   0.232  11.534  0.1172 -1.9027  1.9165
15777TIP3   OH268745   2.085   5.431   3.106  0.2191  0.0438  0.0270
15777TIP3    H168746   2.155   5.446   3.170  0.1920  0.4753 -0.0421
15777TIP3    H268747   2.015   5.490   3.133  0.9834  1.7893 -1.5838
15778TIP3   OH268748   1.607   4.560   2.853 -0.1390  0.2094  0.5152
15778TIP3    H168749   1.664   4.514   2.792 -1.2408  1.3320 -1.4524
15778TIP3    H268750   1.549   4.492   2.888 -1.5919 -0.0336 -2.1614
15779TIP3   OH268751   0.790   1.576  14.873 -0.2156 -0.2075  0.5628
15779TIP3    H168752   0.825   1.488  14.891  1.1524  0.3587  0.7445
15779TIP3    H268753   0.728   1.592  14.945 -2.5324 -2.0422 -0.8590
15780TIP3   OH268754   3.804   1.759   1.521  0.4823  0.7023  0.2088
15780TIP3    H168755   3.773   1.796   1.604 -1.7232 -0.6548  0.0585
15780TIP3    H268756   3.841   1.674   1.545 -0.7824  0.0089 -0.2614
15781TIP3   OH268757   4.952   1.722  13.428 -0.3794  0.0288  0.3054
15781TIP3    H168758   4.978   1.633  13.450 -1.5095 -0.4826 -0.2920
15781TIP3    H268759   5.017   1.751  13.364 -0.4763 -0.7036 -0.1422
15782TIP3   OH268760   2.360   5.759  13.364 -0.0305  0.0442  0.0909
15782TIP3    H168761   2.289   5.816  13.334 -1.0837 -2.2163 -2.1036
15782TIP3    H268762   2.435   5.783  13.309 -0.0691  0.2647  0.1356
15783TIP3   OH268763   0.154   6.755  10.977  0.4778 -0.2127 -0.1856
15783TIP3    H168764   0.147   6.730  10.885 -0.4350 -3.3514  0.6124
15783TIP3    H268765   0.248   6.760  10.994  0.6530  0.4998 -1.2721
15784TIP3   OH268766   3.023   2.962  11.112  0.0834  0.2049 -0.7892
15784TIP3    H168767   3.077   2.883  11.104 -0.4044 -0.0719 -1.4004
15784TIP3    H268768   2.943   2.932  11.155 -0.1332  0.3509 -1.0880
15785TIP3   OH268769   5.547   6.220   3.698 -0.0640  0.2975 -0.6927
15785TIP3    H168770   5.512   6.202   3.785  0.0114 -0.2429 -0.7734
15785TIP3    H268771   5.483   6.280   3.659 -0.4650 -0.0139 -0.5281
15786TIP3   OH268772   5.889   4.454  12.214  0.0341  0.9414  0.2271
15786TIP3    H168773   5.915   4.536  12.171 -0.0219  1.8949  1.9298
15786TIP3    H268774   5.869   4.479  12.304 -0.9630 -0.7988  0.5344
15787TIP3   OH268775   4.663   6.551   2.387  0.1044  0.1091 -0.3034
15787TIP3    H168776   4.721   6.623   2.413 -0.6323  0.3818  0.6265
15787TIP3    H268777   4.639   6.509   2.469  0.1486 -0.9153 -0.8081
15788TIP3   OH268778   3.506   6.109  11.683  0.2731  0.3828  0.6988
15788TIP3    H168779   3.592   6.070  11.669 -0.3344 -0.7335 -0.1193
15788TIP3    H268780   3.457   6.089  11.604 -0.1299  2.7913  0.2521
15789TIP3   OH268781   3.376   3.132  11.617 -0.4192 -0.9700  0.1869
15789TIP3    H168782   3.311   3.147  11.686 -1.3008  0.4971 -0.8932
15789TIP3    H268783   3.433   3.209  11.621 -0.3792 -0.9514 -0.5752
15790TIP3   OH268784   6.569   5.288   3.807 -0.0526 -0.1605  0.2285
15790TIP3    H168785   6.508   5.263   3.738 -0.9285  1.3320  0.4102
15790TIP3    H268786   6.593   5.379   3.787  0.6928 -0.1238  1.1703
15791TIP3   OH268787   3.596   0.785   0.259 -0.0106 -0.3252 -0.0793
15791TIP3    H168788   3.668   0.827   0.306 -0.1035 -0.1863 -0.0584
15791TIP3    H268789   3.585   0.838   0.180  0.1869 -0.5958 -0.2886
15792TIP3   OH268790   0.114   1.150   0.321 -0.2487 -1.2535  0.3720
15792TIP3    H168791   0.080   1.070   0.362 -0.7384 -0.5411  1.4182
15792TIP3    H268792   0.155   1.198   0.393  1.1631 -1.1244 -0.4838
15793TIP3   OH268793   3.415   6.411   4.267 -0.2379  0.4638 -0.4338
15793TIP3    H168794   3.491   6.357   4.244 -0.9921  0.1003 -2.2172
15793TIP3    H268795   3.437   6.448   4.352  1.2222 -0.9530 -0.1549
15794TIP3   OH268796   4.462   4.224  15.200  0.0904  0.3575 -0.0041
15794TIP3    H168797   4.474   4.159  15.269 -0.5599  0.7098  0.4498
15794TIP3    H268798   4.466   4.308  15.245  2.4422  0.7393 -0.7880
15795TIP3   OH268799   1.124   5.921  12.604  0.5223  0.4588 -0.6794
15795TIP3    H168800   1.103   5.850  12.543 -0.1003 -1.3203  1.4558
15795TIP3    H268801   1.196   5.968  12.562  0.6288 -1.1287 -2.4336
15796TIP3   OH268802   6.483   5.689  15.411  0.5887 -0.6922  0.5530
15796TIP3    H168803   6.415   5.753  15.429  0.9382 -0.1082 -0.1224
15796TIP3    H268804   6.547   5.736  15.358  1.0158 -1.5127  0.3109
15797TIP3   OH268805   3.566   4.572   2.161 -0.1703  0.1709 -0.0901
15797TIP3    H168806   3.490   4.617   2.197 -0.8131 -0.7447 -0.2503
15797TIP3    H268807   3.528   4.503   2.106  0.7724  0.9568 -1.8071
15798TIP3   OH268808   6.662   4.622  11.251 -0.4383  0.3646 -0.2107
15798TIP3    H168809   6.752   4.592  11.258 -0.6893 -0.0262  1.7181
15798TIP3    H268810   6.612   4.542  11.232 -0.3436  0.6833 -2.0159
15799TIP3   OH268811   2.820   3.537  12.015  0.1175  0.0979 -0.5052
15799TIP3    H168812   2.897   3.516  11.962  2.5517 -2.4842  3.4556
15799TIP3    H268813   2.846   3.615  12.064  0.2950 -0.7548  0.8149
15800TIP3   OH268814   5.441   3.964  15.286 -0.4107  0.6517  0.4948
15800TIP3    H168815   5.410   4.016  15.361  0.2961  0.0630  1.2110
15800TIP3    H268816   5.445   3.875  15.320 -0.9809  0.2198 -0.5332
15801TIP3   OH268817   1.166   3.363   5.237 -0.5472 -0.1309  0.1574
15801TIP3    H168818   1.098   3.368   5.170  1.5899  1.7587 -1.9931
15801TIP3    H268819   1.209   3.279   5.221 -0.0975  0.2745 -0.8291
15802TIP3   OH268820   4.915   2.825  14.201  0.1957  0.0844 -0.0590
15802TIP3    H168821   4.930   2.731  14.207  0.5582  0.1411 -0.0758
15802TIP3    H268822   4.884   2.838  14.111 -3.1019 -0.4577  0.8661
15803TIP3   OH268823   6.744   3.613   0.818  0.1585 -0.0463  0.0648
15803TIP3    H168824   6.760   3.531   0.866  0.1390  0.6068  1.2135
15803TIP3    H268825   6.732   3.679   0.886 -1.0870  0.6923 -0.8318
15804TIP3   OH268826   2.454   6.564  10.962 -0.0070  0.0145 -0.1826
15804TIP3    H168827   2.506   6.513  10.900 -1.2651 -1.1926 -0.3233
15804TIP3    H268828   2.363   6.545  10.937 -0.5315  0.2422  1.4320
15805TIP3   OH268829   0.883   3.881  11.669  0.1683  0.4214  0.0967
15805TIP3    H168830   0.820   3.879  11.740  0.3236  1.4434  0.2891
15805TIP3    H268831   0.898   3.789  11.646  2.3795 -0.2366  3.3763
15806TIP3   OH268832   0.483   5.673  12.012  0.5261  0.1767 -0.0738
15806TIP3    H168833   0.472   5.675  11.917  1.7123  0.2155 -0.2299
15806TIP3    H268834   0.407   5.720  12.046  0.0772  0.1471 -1.0003
15807TIP3   OH268835   2.203   1.425  14.254  0.2407 -0.0451 -0.2582
15807TIP3    H168836   2.247   1.340  14.248  0.2948 -0.0596  0.2389
15807TIP3    H268837   2.113   1.404  14.277 -0.0313 -0.0148 -1.2846
15808TIP3   OH268838   5.896   3.335   1.069  0.4435 -0.1275 -0.0489
15808TIP3    H168839   5.954   3.390   1.016 -0.6204  1.5509  0.4723
15808TIP3    H268840   5.821   3.390   1.088  0.1870 -1.1226  2.1078
15809TIP3   OH268841   4.220   3.006   4.845 -0.1469 -0.5307 -0.1800
15809TIP3    H168842   4.262   2.981   4.927 -1.2301 -2.6164 -0.1778
15809TIP3    H268843   4.292   3.013   4.783  0.6281  0.4586  0.7954
15810TIP3   OH268844   0.434   4.862   2.024 -0.1877 -0.4049 -0.0315
15810TIP3    H168845   0.462   4.783   1.979 -0.2922 -0.6746  0.3741
15810TIP3    H268846   0.456   4.846   2.116  0.8227  0.4820 -0.0919
15811TIP3   OH268847   3.497   0.839  15.326 -0.8403 -0.3952 -1.0776
15811TIP3    H168848   3.457   0.778  15.264  0.3045 -2.1144 -0.2205
15811TIP3    H268849   3.585   0.854  15.292 -0.8529  0.1752 -0.8691
15812TIP3   OH268850   0.129   4.981   5.233  0.0629 -0.0561 -0.1221
15812TIP3    H168851   0.129   4.920   5.307  3.0212  0.2028  0.2159
15812TIP3    H268852   0.123   5.068   5.272 -1.3243  0.0119 -0.4279
15813TIP3   OH268853   6.225   0.598   5.624 -0.0210 -0.4026 -0.1339
15813TIP3    H168854   6.162   0.667   5.640 -0.0423 -0.7633  1.5098
15813TIP3    H268855   6.298   0.617   5.684  1.1006 -0.4264 -1.4358
15814TIP3   OH268856   3.898   3.435   3.150  0.2535 -0.4986 -0.5837
15814TIP3    H168857   3.894   3.399   3.061  1.0343 -1.1709 -0.3600
15814TIP3    H268858   3.952   3.372   3.199 -0.6649 -0.4626  0.5224
15815TIP3   OH268859   3.957   2.752   6.497 -0.2892 -0.0970 -0.1912
15815TIP3    H168860   4.051   2.765   6.510 -0.3121  0.2724 -0.3819
15815TIP3    H268861   3.915   2.817   6.553 -0.4045  0.7033 -1.1750
15816TIP3   OH268862   3.246   0.057   2.077 -0.5432 -0.0418 -0.3642
15816TIP3    H168863   3.229   0.001   2.002 -2.0282  1.0579 -0.9003
15816TIP3    H268864   3.260  -0.004   2.150  2.4877 -1.1780 -1.7342
15817TIP3   OH268865   5.940   2.152   0.493  0.4710 -0.5091  0.0104
15817TIP3    H168866   5.985   2.083   0.445  1.9470 -0.6421  1.5012
15817TIP3    H268867   5.968   2.141   0.584 -2.8482 -0.7847  1.1275
15818TIP3   OH268868   2.774   2.766   3.812 -0.4826 -0.3713  0.3666
15818TIP3    H168869   2.766   2.700   3.881 -0.6465 -0.2547  0.4599
15818TIP3    H268870   2.687   2.807   3.808 -0.7800 -1.0694 -0.5982
15819TIP3   OH268871   2.301   2.026   1.486  0.3286  0.3469  0.2687
15819TIP3    H168872   2.255   1.943   1.495 -0.1044  0.8002  3.0536
15819TIP3    H268873   2.290   2.050   1.394 -2.2084 -1.1655  0.0952
15820TIP3   OH268874   2.167   0.747   0.463 -0.0308  0.2257  0.4094
15820TIP3    H168875   2.124   0.779   0.384  0.3741  1.3035  0.6065
15820TIP3    H268876   2.095   0.725   0.522 -0.3289  0.3158  0.0822
15821TIP3   OH268877   5.632   6.374   0.766 -0.1822 -0.6522 -0.0264
15821TIP3    H168878   5.582   6.405   0.691  0.4844  0.3873 -0.0688
15821TIP3    H268879   5.617   6.439   0.835 -0.2609 -1.2405  0.5273
15822TIP3   OH268880   6.375   1.246   4.882 -0.3455 -0.1618  0.0093
15822TIP3    H168881   6.279   1.253   4.884 -0.2692  1.1811 -0.2707
15822TIP3    H268882   6.406   1.322   4.931  0.5998  0.7044 -1.8528
15823TIP3   OH268883   5.755   1.508  15.547 -0.1414 -0.3765 -0.4369
15823TIP3    H168884   5.693   1.436  15.559  0.7573 -0.8694  1.6991
15823TIP3    H268885   5.820   1.473  15.486 -2.3249  0.4773 -3.4894
15824TIP3   OH268886   0.828   5.646  13.607  0.4528 -0.3511 -0.0947
15824TIP3    H168887   0.803   5.737  13.616 -1.7333 -0.9847  0.8705
15824TIP3    H268888   0.906   5.648  13.551 -0.9929  1.9059 -2.2174
15825TIP3   OH268889   2.143   1.392   2.165 -0.0063 -0.1333 -0.0195
15825TIP3    H168890   2.191   1.341   2.230  2.3400  1.3135 -0.4798
15825TIP3    H268891   2.182   1.365   2.081  1.7591  2.6847 -0.2298
15826TIP3   OH268892   5.531   5.822  14.512 -0.3768 -0.1912 -0.0041
15826TIP3    H168893   5.545   5.867  14.429 -1.0195 -1.2447 -0.7084
15826TIP3    H268894   5.546   5.889  14.578 -0.6327  0.8822 -0.9935
15827TIP3   OH268895   6.602   3.902   2.447 -0.0831  0.5844 -0.3292
15827TIP3    H168896   6.530   3.854   2.406 -0.3300  0.4279  0.2867
15827TIP3    H268897   6.572   3.919   2.536  0.5023  0.8227 -0.1754
15828TIP3   OH268898   3.459   3.814  13.535  0.2054 -0.0149 -0.1378
15828TIP3    H168899   3.551   3.790  13.545 -0.1978 -1.4202  0.3883
15828TIP3    H268900   3.421   3.743  13.484 -1.1079 -0.7544  1.7503
15829TIP3   OH268901   5.783   0.739   3.987  0.3920  0.0516 -0.5051
15829TIP3    H168902   5.819   0.653   4.009  1.7293  0.4810 -0.9354
15829TIP3    H268903   5.824   0.799   4.049  0.3906  0.5456 -0.9745
15830TIP3   OH268904   4.919   1.800  14.941  0.3226  0.2469  0.0845
15830TIP3    H168905   4.860   1.762  15.006  0.4264  1.2629  0.7992
15830TIP3    H268906   4.919   1.894  14.961 -2.3744  1.2469 -3.5033
15831TIP3   OH268907   1.098   4.034  11.702  0.0672 -0.4572 -0.0724
15831TIP3    H168908   1.064   4.122  11.687 -2.7392 -1.3387  0.4034
15831TIP3    H268909   1.024   3.976  11.682  0.6863 -2.4920  2.8826
15832TIP3   OH268910   4.727   1.784  11.463 -0.0188 -0.6758  0.6762
15832TIP3    H168911   4.718   1.862  11.409 -3.1984 -1.0781  0.4543
15832TIP3    H268912   4.776   1.813  11.540  0.6762  0.9829 -0.3411
15833TIP3   OH268913   1.796   1.271  12.693  0.0840  0.2480  0.4949
15833TIP3    H168914   1.814   1.356  12.654 -0.9214 -0.0341 -0.6530
15833TIP3    H268915   1.701   1.271  12.709  0.0317 -0.7185  0.2851
15834TIP3   OH268916   3.711   0.715  14.505 -0.1467  0.3187  0.3345
15834TIP3    H168917   3.690   0.622  14.498 -1.3423  0.6036 -0.2147
15834TIP3    H268918   3.682   0.752  14.421  2.0464  0.8894 -0.2430
15835TIP3   OH268919   4.100   2.092   2.668  0.4649  0.5466  0.2363
15835TIP3    H168920   4.054   2.054   2.742  0.1828 -1.8379 -1.0786
15835TIP3    H268921   4.032   2.110   2.603  1.0262 -0.1188 -0.5490
15836TIP3   OH268922   1.702   4.146   0.312  0.1996 -0.1982 -0.0696
15836TIP3    H168923   1.695   4.057   0.346 -0.8844 -0.1449 -0.1312
15836TIP3    H268924   1.612   4.173   0.295  0.5015  0.9895  0.1305
15837TIP3   OH268925   5.204   0.996   1.499 -0.0104  0.0319  0.1225
15837TIP3    H168926   5.233   0.984   1.409 -1.0073 -0.4963 -0.1375
15837TIP3    H268927   5.252   0.929   1.548 -1.4606 -1.5036 -0.4612
15838TIP3   OH268928   5.940   5.209   2.895  0.5367 -0.2358 -0.1815
15838TIP3    H168929   6.004   5.249   2.955  0.2249 -1.1957  0.8078
15838TIP3    H268930   5.932   5.273   2.824  1.3600  0.6583  0.4959
15839TIP3   OH268931   4.240   4.038  12.401  0.2100 -0.0511 -0.3001
15839TIP3    H168932   4.289   4.004  12.475 -0.7677 -0.5119  0.1498
15839TIP3    H268933   4.249   3.971  12.333 -1.9613 -1.4315  0.6835
15840TIP3   OH268934   4.810   2.874   2.104  0.0175  0.4363  0.0618
15840TIP3    H168935   4.798   2.843   2.015 -1.1308 -1.2972  0.7573
15840TIP3    H268936   4.897   2.843   2.129 -0.5227 -1.0014  0.2416
15841TIP3   OH268937   6.160   0.243  13.647  0.4753  0.0810 -0.9157
15841TIP3    H168938   6.157   0.314  13.712 -0.3452  0.4225 -1.3105
15841TIP3    H268939   6.250   0.212  13.650  0.5554  0.3661  0.0936
15842TIP3   OH268940   2.129   0.384   6.270 -0.0206  0.4930 -0.4587
15842TIP3    H168941   2.171   0.316   6.323 -1.3630  0.0978  0.1375
15842TIP3    H268942   2.201   0.424   6.221  0.8253 -1.3463 -0.8232
15843TIP3   OH268943   4.653   3.147  11.723 -0.3023 -0.4220 -0.4137
15843TIP3    H168944   4.566   3.186  11.727 -0.0846  0.0234  0.2499
15843TIP3    H268945   4.642   3.068  11.670 -1.1206 -0.4114 -0.2758
15844TIP3   OH268946   2.324   4.043   2.685 -0.0570 -0.0064 -0.0297
15844TIP3    H168947   2.324   3.966   2.628  3.5660  0.9889 -1.6950
15844TIP3    H268948   2.412   4.047   2.721 -1.2584  1.2844  3.1631
15845TIP3   OH268949   1.122   6.080  17.037  0.4205 -0.1829  0.4013
15845TIP3    H168950   1.180   6.046  17.105  2.0525 -0.5115 -1.0711
15845TIP3    H268951   1.118   6.174  17.053  3.1515  0.2033 -0.6596
15846TIP3   OH268952   1.527   2.124  13.916 -0.0574  0.6047 -0.2238
15846TIP3    H168953   1.607   2.101  13.963 -0.8858 -0.7465  0.5746
15846TIP3    H268954   1.509   2.048  13.860  0.2700  1.7066 -1.8925
15847TIP3   OH268955   6.083   4.621  16.953  0.2526 -0.0469 -0.2558
15847TIP3    H168956   5.996   4.583  16.942  0.8831 -2.2405  1.4471
15847TIP3    H268957   6.071   4.715  16.938 -2.4580 -0.2341  0.2416
15848TIP3   OH268958   1.946   1.010   5.569 -0.3216 -0.1148  0.6415
15848TIP3    H168959   2.040   0.992   5.564  0.3483  3.0735 -1.0772
15848TIP3    H268960   1.939   1.080   5.634 -1.1035  1.5276 -1.1441
15849TIP3   OH268961   1.169   4.895   0.032 -0.6694 -0.3073 -0.0294
15849TIP3    H168962   1.235   4.957   0.062 -1.0673  1.1499 -1.9957
15849TIP3    H268963   1.216   4.836  -0.027 -0.5635 -1.1109  0.8277
15850TIP3   OH268964   3.329   1.708  13.732 -0.2816 -0.0983  0.0424
15850TIP3    H168965   3.365   1.780  13.679  1.4025  0.0730  1.3507
15850TIP3    H268966   3.235   1.710  13.714 -0.0640  1.4248 -1.1375
15851TIP3   OH268967   4.680   0.632   5.941  0.3363 -0.2389  0.1226
15851TIP3    H168968   4.740   0.681   5.886 -0.8775  1.7638  0.4551
15851TIP3    H268969   4.726   0.621   6.024  1.0998 -0.7729 -0.3681
15852TIP3   OH268970   3.187   6.707  12.182  0.1614  0.4724 -0.0433
15852TIP3    H168971   3.181   6.619  12.218  0.1373  0.2382 -0.6202
15852TIP3    H268972   3.107   6.751  12.212 -0.2819  0.0070 -0.5412
15853TIP3   OH268973   0.382   4.025  13.798 -0.1253  0.1683 -0.5353
15853TIP3    H168974   0.307   3.977  13.834 -0.1334  0.9478  0.5139
15853TIP3    H268975   0.415   3.967  13.728 -0.6951 -0.9394  0.0765
15854TIP3   OH268976   2.283   4.896  15.229 -0.1593  0.4575  0.0629
15854TIP3    H168977   2.350   4.870  15.166  0.4148  0.1751  0.7818
15854TIP3    H268978   2.324   4.882  15.315 -1.7312 -1.3510  0.5701
15855TIP3   OH268979   1.511   1.352  12.022  0.1892 -0.4429  0.2882
15855TIP3    H168980   1.556   1.398  12.093  0.8545  0.8457 -0.9395
15855TIP3    H268981   1.423   1.335  12.057  0.9716 -1.2564  1.9909
15856TIP3   OH268982   2.830   1.665  13.280  0.1584 -0.5517  0.5418
15856TIP3    H168983   2.794   1.580  13.258 -1.5766  0.3398 -0.3049
15856TIP3    H268984   2.924   1.657  13.264 -0.0599 -2.1273 -0.0879
15857TIP3   OH268985   1.371   1.345  13.660  0.0326 -0.2703 -0.5672
15857TIP3    H168986   1.402   1.418  13.607 -1.8856  1.0879  0.0655
15857TIP3    H268987   1.408   1.267  13.617  3.4365  1.0606 -0.3654
15858TIP3   OH268988   4.647   2.540   2.883 -1.2601  0.0387 -1.2610
15858TIP3    H168989   4.678   2.460   2.926  1.6959  0.9600 -1.4393
15858TIP3    H268990   4.663   2.524   2.790 -2.4118  0.1600 -1.4893
15859TIP3   OH268991   1.471   2.781   4.417 -0.3919 -0.3789 -0.0145
15859TIP3    H168992   1.418   2.860   4.419 -0.2047 -0.1353 -2.2487
15859TIP3    H268993   1.469   2.753   4.326  1.8478 -1.3717  0.1768
15860TIP3   OH268994   0.483   2.933  14.522  0.2144  0.5221 -0.0865
15860TIP3    H168995   0.481   2.837  14.525  0.8929  0.4900 -0.4828
15860TIP3    H268996   0.392   2.959  14.505  0.1739 -0.0824 -0.8316
15861TIP3   OH268997   1.071   3.087   1.388 -0.1626 -0.1572 -0.0762
15861TIP3    H168998   1.082   3.158   1.450  0.6883 -0.1308 -0.2445
15861TIP3    H268999   0.983   3.099   1.353  0.2086  1.2079 -0.5927
15862TIP3   OH269000   2.017   3.050   3.357  0.7377  0.6977 -0.0239
15862TIP3    H169001   1.946   3.059   3.293  0.6120  1.9247  0.2492
15862TIP3    H269002   2.096   3.078   3.310  0.9999 -0.3668 -0.2349
15863TIP3   OH269003   3.942   2.203  13.458  0.1119 -0.0298 -0.6871
15863TIP3    H169004   3.881   2.129  13.452  0.5514 -0.5848  0.9801
15863TIP3    H269005   3.895   2.267  13.512  0.3291  0.2691 -0.8521
15864TIP3   OH269006   6.483   3.157   2.462 -0.8288  0.0809  0.2185
15864TIP3    H169007   6.578   3.143   2.460 -0.6889  0.9943 -1.5065
15864TIP3    H269008   6.466   3.191   2.550  0.2232 -1.3437  1.0185
15865TIP3   OH269009   2.409   6.795   2.472 -0.1648 -0.0691 -0.2613
15865TIP3    H169010   2.322   6.809   2.511 -0.3490 -2.3959  0.3067
15865TIP3    H269011   2.468   6.787   2.547  0.3802  0.4539 -0.6230
15866TIP3   OH269012   0.688   6.027  14.947  0.6792 -0.2317  0.7830
15866TIP3    H169013   0.768   6.016  14.895  0.9197 -0.3622  1.1730
15866TIP3    H269014   0.617   6.028  14.883  1.0096  0.0482  0.4207
15867TIP3   OH269015   4.805   4.482   2.594  0.3659  0.2836  0.3389
15867TIP3    H169016   4.795   4.557   2.652 -1.7721 -0.3797  0.9402
15867TIP3    H269017   4.873   4.429   2.635  0.2920  0.8010  1.1583
15868TIP3   OH269018   4.713   5.212  16.527 -0.2836 -0.1259 -0.1420
15868TIP3    H169019   4.703   5.303  16.555 -1.8376 -0.6002  0.9673
15868TIP3    H269020   4.800   5.187  16.557 -0.8196  0.2587  1.8357
15869TIP3   OH269021   3.047   3.397  11.252  0.0828 -0.3460 -0.0319
15869TIP3    H169022   3.047   3.455  11.328  0.2108  0.4222 -0.6058
15869TIP3    H269023   3.109   3.437  11.191 -0.3076 -0.7302 -0.7005
15870TIP3   OH269024   5.266   3.037   1.790  0.7058 -0.3488  0.1870
15870TIP3    H169025   5.191   3.088   1.757 -0.9321 -3.5306 -1.4336
15870TIP3    H269026   5.248   3.026   1.883  0.4823  0.9416  0.3265
15871TIP3   OH269027   4.726   0.360   3.702  0.0816  0.3235 -0.7021
15871TIP3    H169028   4.648   0.398   3.661 -1.0801 -0.4046  0.7297
15871TIP3    H269029   4.738   0.276   3.658 -0.3293  0.1542 -0.4922
15872TIP3   OH269030   0.315   6.493  11.125 -0.0160  0.4372 -0.0534
15872TIP3    H169031   0.231   6.514  11.167  0.9256  2.0986  1.1679
15872TIP3    H269032   0.354   6.427  11.182  0.3383  1.1382  0.5446
15873TIP3   OH269033   4.124   1.622   1.189 -0.7442  0.6430  0.8456
15873TIP3    H169034   4.103   1.670   1.269 -2.2856 -0.2570  1.0237
15873TIP3    H269035   4.126   1.689   1.121 -1.6706  1.1472  1.2866
15874TIP3   OH269036   3.314   2.557  15.196  0.2274  0.6943  0.2326
15874TIP3    H169037   3.274   2.548  15.110 -0.3485  1.8964  0.3661
15874TIP3    H269038   3.302   2.649  15.220  2.3849  0.9515  0.6106
15875TIP3   OH269039   1.087   3.319   4.782  0.0643  0.4004 -0.4098
15875TIP3    H169040   1.177   3.345   4.802  0.2273 -0.4101 -0.0894
15875TIP3    H269041   1.047   3.303   4.867 -0.1773  0.0818 -0.5815
15876TIP3   OH269042   0.987   3.402   5.744  0.1604 -0.9545  0.1777
15876TIP3    H169043   0.956   3.379   5.831  0.4069  0.0876  0.5523
15876TIP3    H269044   1.081   3.380   5.745  0.0869 -1.2762  0.0542
15877TIP3   OH269045   2.022   1.842   5.438 -0.2610  1.0236  0.0671
15877TIP3    H169046   1.949   1.783   5.456  2.1354 -2.4049 -0.3169
15877TIP3    H269047   2.030   1.896   5.517 -1.6523 -0.2867  1.1690
15878TIP3   OH269048   0.294   6.139   2.479 -0.0933 -0.2353  0.1542
15878TIP3    H169049   0.304   6.068   2.416  2.4999 -0.5830  0.8614
15878TIP3    H269050   0.249   6.099   2.553  1.1501 -1.1310  0.4586
15879TIP3   OH269051   2.652   6.607   5.909 -0.0757  0.0381 -0.3164
15879TIP3    H169052   2.609   6.600   5.994 -1.5721  0.6677 -0.9787
15879TIP3    H269053   2.580   6.605   5.845  0.9808 -0.1191 -1.5522
15880TIP3   OH269054   2.302   1.546   5.029 -0.0089  0.7932 -0.5364
15880TIP3    H169055   2.285   1.634   4.995 -0.5946  0.2199 -1.8111
15880TIP3    H269056   2.307   1.491   4.951 -1.2315 -0.5630  0.2794
15881TIP3   OH269057   2.422   0.573   0.331 -0.0896 -0.1518 -0.2540
15881TIP3    H169058   2.506   0.568   0.377  0.1802 -0.8369 -0.8058
15881TIP3    H269059   2.383   0.655   0.362 -0.8500 -1.4933  2.7460
15882TIP3   OH269060   3.914   2.203  14.332 -0.3086 -0.3382 -0.1061
15882TIP3    H169061   3.998   2.246  14.350  0.1933 -1.5054  0.4096
15882TIP3    H269062   3.876   2.255  14.261  0.7841  0.2886 -0.2634
15883TIP3   OH269063   6.084   1.662   0.060  0.0444 -0.6050  0.8455
15883TIP3    H169064   6.163   1.668   0.114  1.1778 -0.4375 -0.7793
15883TIP3    H269065   6.065   1.752   0.035  0.2388 -0.7917 -0.0034
15884TIP3   OH269066   0.394   3.951   1.061 -0.1778 -0.2058 -0.1901
15884TIP3    H169067   0.411   3.912   0.975 -1.5357 -0.7572 -0.2397
15884TIP3    H269068   0.343   4.030   1.041 -0.2516 -0.1830  0.0926
15885TIP3   OH269069   1.799   1.548  14.002 -0.5519 -0.0059  0.0036
15885TIP3    H169070   1.744   1.577  14.076 -0.5939  1.0769 -0.4344
15885TIP3    H269071   1.754   1.471  13.968 -1.2330  0.2472  0.3054
15886TIP3   OH269072   3.585   1.166   0.903 -0.0182 -0.5050 -0.3879
15886TIP3    H169073   3.503   1.213   0.920  0.9504  0.4580  2.1948
15886TIP3    H269074   3.606   1.186   0.812 -1.0320  1.9167 -0.1789
15887TIP3   OH269075   1.181   1.914   1.344 -0.2795  0.1298 -0.1307
15887TIP3    H169076   1.174   1.819   1.332 -0.4958 -0.0959  1.6011
15887TIP3    H269077   1.192   1.926   1.438  1.4791  1.7346 -0.4786
15888TIP3   OH269078   1.544   5.542   0.873 -0.6557 -0.2229 -0.2266
15888TIP3    H169079   1.605   5.551   0.800 -0.7729 -0.6787 -0.3836
15888TIP3    H269080   1.592   5.578   0.948 -0.7609  0.7959 -0.6333
15889TIP3   OH269081   5.043   2.872   5.920 -0.8673  0.7634 -0.4143
15889TIP3    H169082   5.111   2.904   5.979 -0.1863  1.4500 -1.5229
15889TIP3    H269083   4.962   2.879   5.970 -0.1690  0.1950  0.8432
15890TIP3   OH269084   0.629   6.561  16.142 -0.0323  0.1007 -0.1375
15890TIP3    H169085   0.699   6.608  16.187  1.6691 -1.6797 -0.7505
15890TIP3    H269086   0.674   6.487  16.100 -1.9761  0.0236 -2.2681
15891TIP3   OH269087   3.758   0.314   0.894  0.8256 -0.3048  0.1274
15891TIP3    H169088   3.754   0.328   0.799  0.7321 -0.2639  0.1376
15891TIP3    H269089   3.801   0.394   0.927  0.7386 -0.2599  0.1331
15892TIP3   OH269090   5.815   5.728   3.620  0.0442 -0.3771 -0.0109
15892TIP3    H169091   5.884   5.729   3.554  1.0833 -0.4351  1.0539
15892TIP3    H269092   5.764   5.650   3.601  0.4072 -0.4555 -0.6714
15893TIP3   OH269093   2.852   1.534  13.527  0.3288  0.0306 -0.0842
15893TIP3    H169094   2.764   1.560  13.555  1.2082  1.8267  1.1910
15893TIP3    H269095   2.860   1.566  13.438 -0.3057 -0.1916 -0.2288
15894TIP3   OH269096   5.245   2.795   3.985 -0.1534  0.0013 -0.2404
15894TIP3    H169097   5.276   2.708   3.959 -0.4441 -0.1183 -0.1940
15894TIP3    H269098   5.318   2.854   3.965  0.0465 -0.2536 -0.2682
15895TIP3   OH269099   5.238   5.480   5.664 -0.5818  0.3481  0.3085
15895TIP3    H169100   5.253   5.479   5.758  1.7723 -1.8836  0.0400
15895TIP3    H269101   5.144   5.465   5.653 -0.7777 -0.0251  2.2807
15896TIP3   OH269102   1.335   4.473  16.216  0.4116  0.0135 -0.0979
15896TIP3    H169103   1.371   4.544  16.163  0.6594  0.2247  0.3493
15896TIP3    H269104   1.268   4.433  16.161 -1.3294  2.0060  0.4338
15897TIP3   OH269105   0.879   4.223   5.477  0.9276  0.5174  0.0765
15897TIP3    H169106   0.890   4.248   5.569 -1.1293  2.1563 -0.0611
15897TIP3    H269107   0.836   4.137   5.481 -1.0793  1.5034  0.7239
15898TIP3   OH269108   6.694   6.592   5.088  0.3694  0.0033  0.2520
15898TIP3    H169109   6.762   6.658   5.100  0.2635  0.5937 -2.0047
15898TIP3    H269110   6.742   6.509   5.081  0.6192  0.0330  1.4302
15899TIP3   OH269111   6.382   2.708  14.654 -0.5632  0.4951 -0.2927
15899TIP3    H169112   6.424   2.793  14.669 -2.3978  1.4101 -0.0679
15899TIP3    H269113   6.345   2.714  14.566  0.3491 -0.5743 -0.7812
15900TIP3   OH269114   5.051   3.916   4.483 -0.2572 -0.4401  0.1418
15900TIP3    H169115   5.091   3.836   4.518  0.3193 -0.3816 -0.3564
15900TIP3    H269116   5.116   3.984   4.500 -0.4634 -0.2050 -0.0182
15901TIP3   OH269117   5.413   4.422   0.797  0.2489  0.5133 -0.0518
15901TIP3    H169118   5.409   4.381   0.711  0.5488  0.8986 -0.2516
15901TIP3    H269119   5.348   4.375   0.849  1.8159 -1.4322  0.2591
15902TIP3   OH269120   5.240   4.436   3.514 -0.3993  0.1795 -0.2822
15902TIP3    H169121   5.326   4.478   3.524 -0.5150  0.8851 -1.9628
15902TIP3    H269122   5.208   4.426   3.603  1.1110  0.5796  0.3395
15903TIP3   OH269123   3.493   3.748  10.564  0.0459  0.6225  0.1051
15903TIP3    H169124   3.436   3.681  10.524  1.6400 -0.3176 -0.7057
15903TIP3    H269125   3.496   3.725  10.657 -0.2291  0.1653  0.0035
15904TIP3   OH269126   5.136   4.383   1.950  0.5217 -0.0886  0.0507
15904TIP3    H169127   5.155   4.310   2.010  0.3290  0.4660  0.8072
15904TIP3    H269128   5.091   4.448   2.005  0.9073  0.7054 -0.5469
15905TIP3   OH269129   3.333   1.921   4.594  0.2532 -0.0763 -0.2611
15905TIP3    H169130   3.336   1.909   4.689 -0.1863  0.5785 -0.1580
15905TIP3    H269131   3.348   1.834   4.559  0.8217 -0.2603  0.4054
15906TIP3   OH269132   0.873   0.138  12.985 -0.4265 -0.2619  0.4626
15906TIP3    H169133   0.938   0.154  13.054  1.5275 -0.5725 -1.1972
15906TIP3    H269134   0.800   0.096  13.030  0.8894 -0.7153  2.3023
15907TIP3   OH269135   4.966   1.616  11.510 -0.1723 -0.5039 -0.5361
15907TIP3    H169136   4.898   1.552  11.529  1.2401 -1.8512  0.1936
15907TIP3    H269137   5.036   1.596  11.573 -0.0308  2.3497  0.3809
15908TIP3   OH269138   5.784   0.301  13.434  0.0170  0.0265 -0.0025
15908TIP3    H169139   5.761   0.280  13.525  1.4719 -1.4297  0.0827
15908TIP3    H269140   5.731   0.241  13.382 -0.8265  0.8709 -0.1456
15909TIP3   OH269141   5.822   4.877  14.339  0.0851  0.0927 -0.1290
15909TIP3    H169142   5.783   4.960  14.313  1.0253  0.2926 -0.9725
15909TIP3    H269143   5.747   4.820  14.359 -0.5705  1.0700  0.2825
15910TIP3   OH269144   4.192   2.385  11.328  0.4611  0.2508  0.9432
15910TIP3    H169145   4.227   2.474  11.325  0.9441  0.0781  1.2126
15910TIP3    H269146   4.159   2.368  11.240  0.3967  0.6842  0.8852
15911TIP3   OH269147   4.690   3.872   5.605  0.1896 -0.2611  0.2718
15911TIP3    H169148   4.752   3.883   5.533  2.7108 -0.8447  2.2339
15911TIP3    H269149   4.632   3.801   5.576 -0.8912  1.5446 -2.3830
15912TIP3   OH269150   6.458   2.531   0.142  0.2143 -0.0972 -0.4282
15912TIP3    H169151   6.417   2.575   0.068  3.2661  0.7782 -1.7432
15912TIP3    H269152   6.500   2.454   0.104  1.7715  0.3265  0.3311
15913TIP3   OH269153   3.837   1.729  12.451 -0.0074 -0.4082 -0.3976
15913TIP3    H169154   3.856   1.644  12.490  2.1285  0.4887  0.6902
15913TIP3    H269155   3.922   1.760  12.418 -0.2511  2.1934  1.1584
15914TIP3   OH269156   1.925   3.708  16.211  0.3138  0.1121 -0.0164
15914TIP3    H169157   2.020   3.708  16.219  0.2484 -1.3085  1.3252
15914TIP3    H269158   1.894   3.747  16.293 -0.2490 -0.4160  0.0307
15915TIP3   OH269159   2.972   6.762  12.923  0.0104  0.2281 -0.4453
15915TIP3    H169160   3.007   6.680  12.957 -0.4624  0.7539  1.4712
15915TIP3    H269161   3.048   6.812  12.895  0.2938 -0.8623 -1.6736
15916TIP3   OH269162   3.202   1.730   0.083 -0.4873  0.4594 -0.3832
15916TIP3    H169163   3.211   1.809   0.137 -1.2517  1.0927 -1.1385
15916TIP3    H269164   3.211   1.657   0.144  1.5386  1.0807  0.1531
15917TIP3   OH269165   0.536   0.144   6.151 -0.1816  0.6998 -0.1143
15917TIP3    H169166   0.472   0.076   6.172 -0.2394  1.0871  1.0455
15917TIP3    H269167   0.621   0.100   6.158 -0.2967  0.1497 -1.7947
15918TIP3   OH269168   0.131   0.881   2.566  0.4957 -0.2141  0.0950
15918TIP3    H169169   0.054   0.825   2.578  0.1739  0.2604  0.2823
15918TIP3    H269170   0.119   0.918   2.478 -0.2716  1.0160  0.6840
15919TIP3   OH269171   2.553   4.320  11.822 -0.7253  0.0618  0.2787
15919TIP3    H169172   2.464   4.289  11.841 -1.2904  0.1175 -1.9680
15919TIP3    H269173   2.546   4.416  11.824  0.2983  0.2182  4.0701
15920TIP3   OH269174   4.090   4.150   3.647  0.6617  0.7850  0.2406
15920TIP3    H169175   4.095   4.059   3.616  0.7254  1.1491 -0.8685
15920TIP3    H269176   4.028   4.192   3.587 -4.1814  0.1501  4.1689
15921TIP3   OH269177   3.211   3.626   3.135 -0.1853  0.3670 -0.2633
15921TIP3    H169178   3.236   3.599   3.224 -0.1726  2.0968  0.2997
15921TIP3    H269179   3.170   3.548   3.097 -0.6105 -0.2737  1.4164
15922TIP3   OH269180   4.732   4.439  14.604  0.5168  0.2350 -0.3059
15922TIP3    H169181   4.787   4.483  14.540  0.0768  2.5009  0.7726
15922TIP3    H269182   4.642   4.457  14.575  0.2708 -1.9142 -1.0652
15923TIP3   OH269183   0.689   6.061  15.958 -0.0320  0.4878  0.3011
15923TIP3    H169184   0.596   6.054  15.934 -0.2327 -0.2753  1.2610
15923TIP3    H269185   0.716   5.971  15.976  0.7693  0.7658  0.5047
15924TIP3   OH269186   1.868   3.582   5.866 -0.1327 -0.2940 -0.0159
15924TIP3    H169187   1.811   3.627   5.929  0.7642  0.3078  0.3815
15924TIP3    H269188   1.956   3.595   5.900  0.3192 -0.4633 -1.0881
15925TIP3   OH269189   5.419   2.588  13.911  0.6469 -0.5949 -0.2456
15925TIP3    H169190   5.486   2.652  13.889 -0.5366  1.0105  0.5660
15925TIP3    H269191   5.379   2.622  13.991 -1.5358 -1.1591 -1.0290
15926TIP3   OH269192   0.720   5.888   4.629  0.7846  0.0403  0.1720
15926TIP3    H169193   0.777   5.960   4.655  1.1191 -0.5206  0.9986
15926TIP3    H269194   0.666   5.925   4.559  1.0141  1.0647  0.5244
15927TIP3   OH269195   3.681   1.580  16.459 -0.1858  0.2195 -0.0827
15927TIP3    H169196   3.638   1.610  16.379 -1.0745  2.1776  1.0326
15927TIP3    H269197   3.713   1.660  16.500 -0.5711 -0.6064  1.9559
15928TIP3   OH269198   5.880   3.381   0.516  0.2836  0.1166  0.5455
15928TIP3    H169199   5.927   3.440   0.457  1.6088 -1.5183 -0.1306
15928TIP3    H269200   5.898   3.293   0.481  1.9603 -1.0501  3.8734
15929TIP3   OH269201   1.416   2.043  13.348  0.1199 -0.4457  0.2559
15929TIP3    H169202   1.333   2.002  13.374  0.7661 -0.5327  2.3581
15929TIP3    H269203   1.405   2.135  13.373  0.5283 -0.3782  0.1898
15930TIP3   OH269204   2.715   3.128   2.420  0.3459  0.0480 -0.3038
15930TIP3    H169205   2.644   3.108   2.481 -0.3954 -1.1386 -1.5103
15930TIP3    H269206   2.791   3.142   2.476 -0.0609 -2.0466  0.8832
15931TIP3   OH269207   2.286   5.896   5.239  0.1575 -0.4684 -0.1202
15931TIP3    H169208   2.263   5.874   5.149  2.9424  0.4801 -1.1392
15931TIP3    H269209   2.376   5.926   5.235  0.0540  0.5877  2.8535
15932TIP3   OH269210   4.906   0.400   3.338  0.1423 -0.3289  0.4797
15932TIP3    H169211   4.815   0.387   3.312  0.8544 -2.4021 -1.3253
15932TIP3    H269212   4.908   0.487   3.377 -2.1666  0.7582 -1.5310
15933TIP3   OH269213   0.484   3.067   3.743  0.1013 -0.1920 -0.0016
15933TIP3    H169214   0.452   2.994   3.690 -0.6144 -0.2657  0.5115
15933TIP3    H269215   0.524   3.025   3.819 -0.4776 -0.0506  0.3852
15934TIP3   OH269216   2.944   3.552  15.755  0.0933  0.0405  0.0875
15934TIP3    H169217   2.972   3.467  15.791 -2.1278 -0.4674  0.7865
15934TIP3    H269218   2.971   3.616  15.821 -0.9853 -0.5095  1.0928
15935TIP3   OH269219   3.199   2.747  11.095 -0.3793  0.7049 -0.2877
15935TIP3    H169220   3.209   2.684  11.024  1.1510  0.7266 -0.1284
15935TIP3    H269221   3.225   2.699  11.174  0.4899  1.4301 -0.1197
15936TIP3   OH269222   3.681   1.642  11.650 -0.5518 -0.6612  0.3027
15936TIP3    H169223   3.595   1.682  11.660 -0.6921 -0.9181  0.1425
15936TIP3    H269224   3.699   1.601  11.734 -0.4987 -0.4360  0.3996
15937TIP3   OH269225   2.853   1.922  14.593 -0.6634 -0.4007 -0.1226
15937TIP3    H169226   2.941   1.903  14.559 -1.0318  1.4811 -2.4320
15937TIP3    H269227   2.797   1.854  14.555 -0.6319  0.1131 -1.1277
15938TIP3   OH269228   3.545   1.179  14.676  0.0777 -0.6186  0.0624
15938TIP3    H169229   3.582   1.104  14.630 -0.1991 -1.1218  0.6364
15938TIP3    H269230   3.508   1.142  14.756 -1.2846 -0.0866 -0.2830
15939TIP3   OH269231   4.967   1.401  12.256 -0.3751 -0.9564  0.1474
15939TIP3    H169232   4.985   1.404  12.162 -1.7339 -0.5690 -0.1285
15939TIP3    H269233   5.028   1.464  12.294 -2.4674  1.9836 -0.9942
15940TIP3   OH269234   0.439   2.938   6.180  0.1568 -0.1391  0.5302
15940TIP3    H169235   0.473   3.027   6.168 -1.3760  0.4103 -0.0321
15940TIP3    H269236   0.493   2.901   6.250  1.4135  0.9079  0.1560
15941TIP3   OH269237   3.792   0.092   5.728 -0.0090  0.6656 -0.3918
15941TIP3    H169238   3.823   0.046   5.649  1.5379  2.1329 -0.7080
15941TIP3    H269239   3.731   0.158   5.694  0.6558  1.2956 -0.3952
15942TIP3   OH269240   0.779   0.953  15.090  0.2064 -0.7361 -0.4424
15942TIP3    H169241   0.710   0.915  15.144  1.2932 -0.5255  1.1590
15942TIP3    H269242   0.853   0.893  15.100  1.7578  1.3475  1.6304
15943TIP3   OH269243   4.746   5.312   5.640 -0.2008  0.2327 -0.4852
15943TIP3    H169244   4.794   5.388   5.607  0.6461 -0.9097 -1.9825
15943TIP3    H269245   4.789   5.292   5.723 -0.8418  1.7326  0.2531
15944TIP3   OH269246   3.550   2.079  14.760  0.0484 -0.6177 -0.2868
15944TIP3    H169247   3.639   2.102  14.786  0.0516  1.2121 -1.7731
15944TIP3    H269248   3.560   2.038  14.674 -0.6413  0.8886 -1.1067
15945TIP3   OH269249   1.180   5.611   2.497 -0.3043  0.1317 -0.4239
15945TIP3    H169250   1.250   5.548   2.485  0.1487  0.4609  0.4135
15945TIP3    H269251   1.162   5.645   2.409  0.4576 -0.0944 -0.6660
15946TIP3   OH269252   0.998   5.362   3.302 -0.1104  0.3001  0.0053
15946TIP3    H169253   1.074   5.310   3.329  0.5087  0.7098 -0.9387
15946TIP3    H269254   0.973   5.410   3.381  0.9368  0.5683  0.1797
15947TIP3   OH269255   6.383   1.152  11.520 -0.1436 -0.2425 -0.2939
15947TIP3    H169256   6.403   1.218  11.586 -1.9329  2.3063 -2.0936
15947TIP3    H269257   6.468   1.132  11.479  0.9107 -1.5126  2.2851
15948TIP3   OH269258   4.079   3.133  16.288 -0.5575 -0.2255 -0.6096
15948TIP3    H169259   4.058   3.113  16.380 -1.7284  0.5370 -0.6869
15948TIP3    H269260   4.165   3.093  16.274  0.6003  1.3376  1.4004
15949TIP3   OH269261   6.127   4.354   1.585 -0.2161  0.3570 -0.2476
15949TIP3    H169262   6.062   4.423   1.598 -1.7641 -1.0553 -0.1246
15949TIP3    H269263   6.207   4.388   1.624 -1.4934  1.2156  1.7629
15950TIP3   OH269264   6.030   5.203  13.058 -0.5997  0.0424 -0.1507
15950TIP3    H169265   6.115   5.186  13.018 -1.0684 -0.5138 -0.9555
15950TIP3    H269266   6.050   5.230  13.147  0.4610  0.8349 -0.6084
15951TIP3   OH269267   5.259   4.258  14.924 -0.5399 -0.3007 -0.5587
15951TIP3    H169268   5.225   4.308  14.850 -2.6563 -0.8175 -0.0114
15951TIP3    H269269   5.318   4.319  14.969 -2.8028  1.7036 -0.0662
15952TIP3   OH269270   5.237   3.423   1.468  0.0967  0.0546  0.0626
15952TIP3    H169271   5.263   3.514   1.482  0.1351 -0.1489  1.5086
15952TIP3    H269272   5.301   3.389   1.405 -0.4322  1.2410 -1.1465
15953TIP3   OH269273   6.530   0.024   2.767  0.2957 -0.5481  0.3241
15953TIP3    H169274   6.617   0.054   2.795  0.4700 -1.3496  0.6501
15953TIP3    H269275   6.530  -0.070   2.784 -0.9040 -0.4434  1.0095
15954TIP3   OH269276   3.429   6.470   3.542  0.1632 -0.6823  0.4387
15954TIP3    H169277   3.483   6.489   3.465 -0.9977  2.3448  0.2099
15954TIP3    H269278   3.489   6.475   3.616  0.6056  0.5785  0.0240
15955TIP3   OH269279   5.612   4.681  14.707  0.4863 -0.0621 -0.6100
15955TIP3    H169280   5.697   4.665  14.748 -1.3462 -1.4889  3.0138
15955TIP3    H269281   5.571   4.595  14.701 -1.7130  0.8534  0.1902
15956TIP3   OH269282   6.783   5.676   4.233  0.4046  0.0929 -0.3681
15956TIP3    H169283   6.713   5.736   4.260  0.2039  0.9748 -2.6337
15956TIP3    H269284   6.864   5.718   4.260  0.1511 -0.4350  1.3393
15957TIP3   OH269285   5.442   0.347  13.883  0.1125  0.4068  0.2008
15957TIP3    H169286   5.421   0.431  13.841 -1.8109 -0.0283  0.2088
15957TIP3    H269287   5.441   0.367  13.977 -0.8061  0.3027  0.2232
15958TIP3   OH269288   3.144   6.554  12.688  0.5942  0.1148  0.7171
15958TIP3    H169289   3.109   6.563  12.777 -1.7085  0.8071 -0.1921
15958TIP3    H269290   3.160   6.460  12.678 -0.0063 -0.0928  1.5701
15959TIP3   OH269291   2.009   3.401   4.925  0.5023  0.0109 -0.1546
15959TIP3    H169292   2.063   3.328   4.893  0.0107  0.4569 -2.1310
15959TIP3    H269293   2.066   3.478   4.918  0.2886  0.1636 -0.2209
15960TIP3   OH269294   5.615   5.380  14.038  0.2241 -0.5134 -0.0604
15960TIP3    H169295   5.650   5.463  14.071 -1.4017  0.4606 -0.6676
15960TIP3    H269296   5.576   5.338  14.115  1.0547 -0.7325  0.2492
15961TIP3   OH269297   5.089   1.840  11.686 -0.1471  0.0037  0.2252
15961TIP3    H169298   5.073   1.826  11.592  0.4063  1.6132 -0.1563
15961TIP3    H269299   5.010   1.809  11.729 -2.1496  2.7326 -1.1290
15962TIP3   OH269300   3.373   2.077   1.917  0.3729  0.1889  0.0686
15962TIP3    H169301   3.424   2.105   1.841 -0.2569 -0.7937 -0.7458
15962TIP3    H269302   3.293   2.129   1.912 -1.1986 -2.1820 -1.9554
15963TIP3   OH269303   3.610   4.797  14.002 -0.3360 -0.0824 -0.2009
15963TIP3    H169304   3.574   4.776  13.916 -1.7598  0.2514  0.2926
15963TIP3    H269305   3.690   4.847  13.983 -0.9661  0.5415 -1.3287
15964TIP3   OH269306   6.425   5.754  11.993  0.3684 -0.4348  0.3570
15964TIP3    H169307   6.396   5.830  11.944  2.1552  0.1266  0.0790
15964TIP3    H269308   6.348   5.726  12.043 -0.6873  0.7149 -0.5652
15965TIP3   OH269309   3.213   2.996  13.478  0.4916 -0.1360  0.3264
15965TIP3    H169310   3.267   2.922  13.449  0.9686  0.3575 -0.0710
15965TIP3    H269311   3.188   2.974  13.567  2.6197  0.2959  1.0874
15966TIP3   OH269312   3.918   5.880  12.677  0.5263 -0.4758  0.5145
15966TIP3    H169313   3.835   5.839  12.700 -0.3168  1.7526  1.8337
15966TIP3    H269314   3.981   5.841  12.738  0.1618 -1.1707  0.4580
15967TIP3   OH269315   3.570   1.525   1.646  0.2486 -0.0153 -0.0396
15967TIP3    H169316   3.517   1.589   1.693 -0.2553 -0.0209 -0.5865
15967TIP3    H269317   3.519   1.504   1.568 -0.0066 -1.7223  0.5350
15968TIP3   OH269318   1.684   5.578   5.398 -0.1409 -0.7242  0.3707
15968TIP3    H169319   1.778   5.562   5.403 -0.5167 -2.8484  2.7159
15968TIP3    H269320   1.674   5.671   5.421  1.4263  0.1885 -2.1841
15969TIP3   OH269321   0.609   5.296  14.627  0.2667 -0.3624 -0.0025
15969TIP3    H169322   0.553   5.237  14.677  0.6731 -0.3406  0.4804
15969TIP3    H269323   0.635   5.246  14.550 -0.1505 -0.4853 -0.0646
15970TIP3   OH269324   4.357   1.082  16.653  0.2159 -0.7020 -0.1782
15970TIP3    H169325   4.324   0.995  16.632 -1.0088  0.1386 -2.0422
15970TIP3    H269326   4.320   1.139  16.586 -0.0388  1.4934  1.6733
15971TIP3   OH269327   2.215   2.671  13.360  0.2473 -0.1418  0.4705
15971TIP3    H169328   2.123   2.656  13.383 -0.5123  2.6791 -0.3385
15971TIP3    H269329   2.260   2.677  13.445 -0.8198  1.0001  0.9838
15972TIP3   OH269330   4.778   6.774   2.169 -0.2812  0.4227 -0.2850
15972TIP3    H169331   4.769   6.814   2.255  0.7729 -0.2497  0.1612
15972TIP3    H269332   4.787   6.848   2.109 -1.4338  0.9041  0.1161
15973TIP3   OH269333   2.203   3.657  16.280 -0.7411 -0.2072  0.1477
15973TIP3    H169334   2.280   3.626  16.327 -1.1420  0.6411  1.4014
15973TIP3    H269335   2.164   3.577  16.244  2.0643 -0.4616 -2.7619
15974TIP3   OH269336   2.989   0.148  16.757  0.1866 -0.6038  0.4684
15974TIP3    H169337   3.010   0.239  16.779  0.1098 -0.3610 -0.4094
15974TIP3    H269338   3.074   0.105  16.750  0.3889  0.0232 -1.6151
15975TIP3   OH269339   1.990   0.829   6.308 -0.1595 -0.5315 -0.4226
15975TIP3    H169340   2.057   0.871   6.254 -0.7532  0.0876 -0.6929
15975TIP3    H269341   2.033   0.813   6.392  0.6918 -1.2615 -0.9837
15976TIP3   OH269342   4.360   4.800   2.740 -0.3502 -0.1630 -0.1705
15976TIP3    H169343   4.333   4.851   2.664  0.9756  2.0666  0.7376
15976TIP3    H269344   4.404   4.723   2.704 -0.3308  0.5113 -1.6442
15977TIP3   OH269345   0.279   5.241  13.745 -1.1160  0.6600 -0.7222
15977TIP3    H169346   0.304   5.236  13.838  0.2360  1.9656 -0.9693
15977TIP3    H269347   0.233   5.159  13.728  0.7176 -0.7331  0.5278
15978TIP3   OH269348   3.534   4.952  12.555  0.5595  0.0433  0.3435
15978TIP3    H169349   3.621   4.931  12.520  0.0632 -1.1797 -0.2098
15978TIP3    H269350   3.512   5.036  12.515  0.2438 -1.0510 -1.9046
15979TIP3   OH269351   6.508   5.436  11.290 -0.2046  0.1390 -0.3340
15979TIP3    H169352   6.584   5.485  11.259  0.2518 -0.2172  0.2223
15979TIP3    H269353   6.461   5.411  11.210 -0.4663  1.5086 -0.6298
15980TIP3   OH269354   5.038   0.781   2.483  0.0868  0.0809 -0.3367
15980TIP3    H169355   5.040   0.850   2.550 -0.4906 -0.7534  0.5808
15980TIP3    H269356   5.127   0.778   2.448  0.5532  0.1882  0.7840
15981TIP3   OH269357   0.585   4.380  15.408 -0.1315  0.1091  0.2896
15981TIP3    H169358   0.608   4.473  15.412  1.2288 -0.2415  2.2410
15981TIP3    H269359   0.524   4.367  15.481  0.1293 -0.6173  0.3847
15982TIP3   OH269360   3.848   0.313  14.798 -0.1853 -0.7038 -0.6152
15982TIP3    H169361   3.918   0.368  14.831 -0.8555 -0.0810 -0.1874
15982TIP3    H269362   3.853   0.322  14.702 -0.3088  0.1546 -0.5524
15983TIP3   OH269363   3.138   3.272   0.929  0.2794 -0.9732  0.6607
15983TIP3    H169364   3.215   3.246   0.979 -1.3888  0.9717  4.6720
15983TIP3    H269365   3.156   3.362   0.900  0.2221 -1.1900 -0.0837
15984TIP3   OH269366   0.163   1.013   2.321 -0.0368  0.0394  0.7485
15984TIP3    H169367   0.200   0.958   2.252 -2.0537 -1.6979  0.9721
15984TIP3    H269368   0.203   1.099   2.306  1.1319 -0.7825 -1.3020
15985TIP3   OH269369   4.379   3.236   3.705 -0.3675 -0.2253 -0.5940
15985TIP3    H169370   4.368   3.157   3.651 -0.1033 -0.3624 -0.4513
15985TIP3    H269371   4.335   3.214   3.788  0.1713 -0.4282 -0.3577
15986TIP3   OH269372   3.302   4.512  16.635 -0.2220  0.0912  0.0692
15986TIP3    H169373   3.315   4.482  16.545 -0.2006  1.8671 -0.5717
15986TIP3    H269374   3.390   4.525  16.670 -0.2276 -0.0147  0.1216
15987TIP3   OH269375   3.013   2.707  14.975 -0.1460  0.0498  0.4501
15987TIP3    H169376   2.935   2.667  14.936 -1.6598  2.4855  0.7441
15987TIP3    H269377   2.992   2.714  15.068  0.7662  0.0818  0.6636
15988TIP3   OH269378   2.658   4.677  13.074 -0.2810 -0.3909 -0.3698
15988TIP3    H169379   2.648   4.589  13.110 -0.1596 -0.3114 -0.1390
15988TIP3    H269380   2.744   4.677  13.033 -0.3990 -0.4664 -0.6222
15989TIP3   OH269381   1.144   5.616   1.617 -0.2735 -0.2459  0.0102
15989TIP3    H169382   1.085   5.581   1.684 -0.8209  0.6076  0.0007
15989TIP3    H269383   1.086   5.662   1.556  0.3545  0.2454 -0.2324
15990TIP3   OH269384   6.706   6.018  12.894  0.4815 -0.9690 -0.4625
15990TIP3    H169385   6.725   6.048  12.805  1.8063 -1.4934 -0.3850
15990TIP3    H269386   6.670   6.095  12.939 -0.4306 -0.7660 -1.5059
15991TIP3   OH269387   2.867   3.870   3.105  0.6485  1.1180  0.1696
15991TIP3    H169388   2.819   3.896   3.026 -0.3821 -3.2143 -0.8601
15991TIP3    H269389   2.958   3.891   3.085  0.1007  2.6696 -0.9338
15992TIP3   OH269390   6.407   5.611   4.228 -0.3282 -0.2769  0.3533
15992TIP3    H169391   6.365   5.673   4.168 -1.5667  0.4170  1.8597
15992TIP3    H269392   6.343   5.540   4.237 -0.0560 -0.4836  0.6617
15993TIP3   OH269393   4.866   6.369   1.479  0.1059  0.1210  0.0571
15993TIP3    H169394   4.845   6.446   1.533 -0.3122  0.7626 -1.0051
15993TIP3    H269395   4.937   6.326   1.528  0.4857  1.2804  0.5883
15994TIP3   OH269396   0.736   2.542   6.222 -0.0444 -0.2391  0.1751
15994TIP3    H169397   0.699   2.454   6.234 -2.0133  0.7455  1.8479
15994TIP3    H269398   0.801   2.550   6.292  0.1352 -0.3558  0.0226
15995TIP3   OH269399   0.050   2.560  16.962  0.0499  0.5977 -0.2705
15995TIP3    H169400   0.023   2.472  16.933 -1.2840  0.6772  0.6306
15995TIP3    H269401  -0.013   2.582  17.031  0.5700  2.1382 -0.2683
15996TIP3   OH269402   2.632   4.811   0.310  0.1213 -0.3353  0.0401
15996TIP3    H169403   2.719   4.847   0.326 -1.1648  2.4177  1.4533
15996TIP3    H269404   2.617   4.750   0.382 -0.0531  1.1288  1.2953
15997TIP3   OH269405   4.462   4.857   3.857  0.3526 -0.2972  0.4695
15997TIP3    H169406   4.418   4.860   3.772 -0.8880 -1.4411  1.0209
15997TIP3    H269407   4.460   4.764   3.882  2.1042 -0.2103  1.0483
15998TIP3   OH269408   2.386   1.070   5.198  0.4365  0.7502 -0.2631
15998TIP3    H169409   2.425   0.986   5.223 -0.9964  0.2419  0.3716
15998TIP3    H269410   2.423   1.090   5.112 -0.8317 -1.6428 -1.4632
15999TIP3   OH269411   2.867   2.577   4.527 -0.1349 -0.3003  0.0537
15999TIP3    H169412   2.838   2.507   4.585 -2.3765  1.3248  1.0367
15999TIP3    H269413   2.836   2.551   4.440  3.5234 -2.9115 -0.7524
16000TIP3   OH269414   5.970   0.129   1.546 -0.2953 -0.4568 -0.4190
16000TIP3    H169415   6.015   0.149   1.463 -1.1560  0.0694 -0.7681
16000TIP3    H269416   6.027   0.065   1.589  0.4568 -0.3009 -1.1526
16001TIP3   OH269417   6.324   5.565  16.720  0.0420  0.0326 -0.6552
16001TIP3    H169418   6.245   5.559  16.773  0.9644 -1.7491  0.6436
16001TIP3    H269419   6.351   5.656  16.727 -0.9292  0.2651  0.3478
16002TIP3   OH269420   3.839   5.003   6.269  0.0545  0.2293  0.5348
16002TIP3    H169421   3.859   4.918   6.308 -1.3056 -0.9677 -1.2171
16002TIP3    H269422   3.746   5.016   6.286 -0.0895  0.6475 -0.4585
16003TIP3   OH269423   0.350   4.950  15.888  0.1312 -0.0540  0.0246
16003TIP3    H169424   0.410   4.920  15.821  1.7656  2.6425  0.1522
16003TIP3    H269425   0.312   5.030  15.853 -0.3877  0.4109  1.5478
16004TIP3   OH269426   6.690   5.197   6.015 -0.3785 -0.4521 -0.0689
16004TIP3    H169427   6.769   5.169   6.060  0.4888  1.5770 -0.2099
16004TIP3    H269428   6.699   5.292   6.008 -2.8569 -0.1414 -0.0539
16005TIP3   OH269429   0.999   6.622  16.781  0.2864  0.2525  0.4373
16005TIP3    H169430   0.956   6.541  16.756  2.0915 -0.6261 -0.0303
16005TIP3    H269431   0.928   6.680  16.808 -1.2685 -0.6629 -1.4395
16006TIP3   OH269432   2.707   1.718   1.067 -0.8774 -0.0089  0.0343
16006TIP3    H169433   2.765   1.745   0.995 -2.9571  0.7540 -1.4477
16006TIP3    H269434   2.704   1.622   1.060  1.2108 -0.1971  1.0147
16007TIP3   OH269435   2.348   2.956   1.690 -0.3673 -0.0595  0.2078
16007TIP3    H169436   2.277   3.019   1.702  0.7905  1.4376 -0.4625
16007TIP3    H269437   2.391   2.984   1.610  2.2947  0.4356  1.7038
16008TIP3   OH269438   0.029   3.123   0.852  0.7457  0.3456 -0.4331
16008TIP3    H169439   0.092   3.173   0.904  1.3583  1.1320 -1.8907
16008TIP3    H269440  -0.025   3.190   0.809 -1.3346 -0.3067  1.0217
16009TIP3   OH269441   2.674   0.143  11.235 -0.5488 -0.4137 -0.3921
16009TIP3    H169442   2.608   0.094  11.283 -0.7000  0.9383  0.8603
16009TIP3    H269443   2.748   0.150  11.296 -0.1670  0.0819 -0.8970
16010TIP3   OH269444   2.440   3.903  11.090  0.0859  0.0529 -0.5619
16010TIP3    H169445   2.455   3.964  11.162  0.8186  0.8618 -1.3729
16010TIP3    H269446   2.528   3.883  11.057 -0.2369 -0.2846 -1.2371
16011TIP3   OH269447   2.121   2.470   5.631 -0.1537 -0.4668  0.6623
16011TIP3    H169448   2.198   2.471   5.574 -0.2508  0.9970  0.5172
16011TIP3    H269449   2.157   2.469   5.719 -0.0030 -2.7285  0.6254
16012TIP3   OH269450   3.185   1.978   0.291  0.1810  0.3068 -0.2126
16012TIP3    H169451   3.211   1.924   0.366 -0.8117 -1.0466 -0.7956
16012TIP3    H269452   3.241   2.056   0.297  0.7852 -0.2003  1.3791
16013TIP3   OH269453   5.384   0.840  16.196  0.1406  0.2843 -0.0199
16013TIP3    H169454   5.473   0.803  16.197 -0.1467 -0.4433  1.5890
16013TIP3    H269455   5.327   0.765  16.181 -0.4550 -0.0831  3.2990
16014TIP3   OH269456   3.501   5.652   2.806 -0.6774  0.3718 -0.0540
16014TIP3    H169457   3.409   5.636   2.784 -1.0573  2.9635 -0.6010
16014TIP3    H269458   3.500   5.679   2.897 -0.0870 -1.9526  0.7262
16015TIP3   OH269459   1.414   5.392   6.510  0.3017  0.2231 -0.5860
16015TIP3    H169460   1.338   5.342   6.539  0.9017 -0.3964 -0.0419
16015TIP3    H269461   1.392   5.483   6.531 -0.1656  0.0146 -0.1474
16016TIP3   OH269462   1.873   5.234   0.356  0.6379 -0.0513  0.2990
16016TIP3    H169463   1.848   5.158   0.410  0.4547 -0.3147 -0.1509
16016TIP3    H269464   1.885   5.198   0.268 -1.5448  0.7789 -0.4050
16017TIP3   OH269465   1.270   6.442  16.513 -0.3076 -0.4278 -0.4072
16017TIP3    H169466   1.229   6.500  16.449  0.4379 -1.5841 -2.0227
16017TIP3    H269467   1.336   6.496  16.556 -0.9514  0.4289 -0.4789
16018TIP3   OH269468   2.269   5.490  13.374  0.1216 -0.0378 -0.5742
16018TIP3    H169469   2.277   5.471  13.281  3.0056 -0.0539 -0.4158
16018TIP3    H269470   2.286   5.584  13.381  0.9135 -0.2063 -0.0223
16019TIP3   OH269471   3.760   6.718  17.003 -0.4980  0.4641  0.7688
16019TIP3    H169472   3.813   6.648  16.964  0.7850  2.1162 -0.5953
16019TIP3    H269473   3.783   6.717  17.096 -0.1232 -0.5749  0.6778
16020TIP3   OH269474   4.543   2.070   4.773 -0.0353 -0.5645 -0.8651
16020TIP3    H169475   4.472   2.113   4.726 -0.9792 -0.0880  0.9335
16020TIP3    H269476   4.599   2.034   4.703 -1.1607  0.4160 -2.3422
16021TIP3   OH269477   6.154   6.364  14.724 -0.5407  0.2416  0.1365
16021TIP3    H169478   6.205   6.394  14.648 -0.5403  1.7325  0.7075
16021TIP3    H269479   6.220   6.336  14.787 -0.5422 -1.1008 -0.4168
16022TIP3   OH269480   1.668   0.128  16.476  0.1284 -0.2663 -0.1912
16022TIP3    H169481   1.664   0.169  16.562  1.0830 -2.8861  1.2239
16022TIP3    H269482   1.587   0.079  16.469 -0.0238  0.0808 -0.8750
16023TIP3   OH269483   0.508   2.537   5.154 -0.2741 -0.0681 -0.2915
16023TIP3    H169484   0.600   2.564   5.154  0.3049 -1.8425 -2.0474
16023TIP3    H269485   0.505   2.463   5.214 -1.1805  1.6551  1.9113
16024TIP3   OH269486   2.466   6.684   5.728 -0.1704 -0.1157 -0.2886
16024TIP3    H169487   2.409   6.629   5.675  0.2929 -0.7089 -0.1719
16024TIP3    H269488   2.447   6.773   5.698 -2.5515 -0.0821  1.0215
16025TIP3   OH269489   2.784   4.781   1.985 -0.3726  0.3800  1.3048
16025TIP3    H169490   2.726   4.744   1.919  0.6197 -0.1498  0.7056
16025TIP3    H269491   2.823   4.705   2.029  0.0916  0.7172  1.4893
16026TIP3   OH269492   3.886   4.102   1.568  0.1563  0.4951  0.0572
16026TIP3    H169493   3.857   4.066   1.484  0.5208 -0.3098  0.2661
16026TIP3    H269494   3.820   4.074   1.631  1.1888 -1.1135  0.4850
16027TIP3   OH269495   2.255   3.535  15.279  0.1245  0.6777 -0.0293
16027TIP3    H169496   2.222   3.448  15.299 -0.0851  0.1976 -2.1776
16027TIP3    H269497   2.344   3.536  15.315  0.6773 -0.9964 -1.2041
16028TIP3   OH269498   3.671   0.750  12.652 -0.4590 -0.1885  0.1724
16028TIP3    H169499   3.627   0.724  12.571 -1.8197  2.1040  0.1093
16028TIP3    H269500   3.758   0.778  12.623 -0.0764 -1.6121 -0.1390
16029TIP3   OH269501   5.865   4.268   4.331  0.7847 -0.7423 -0.0101
16029TIP3    H169502   5.915   4.339   4.291 -0.5735 -0.2473 -0.8925
16029TIP3    H269503   5.871   4.284   4.425  0.4871  0.5610 -0.1983
16030TIP3   OH269504   3.155   3.499  15.077  0.0680  0.0548 -0.1238
16030TIP3    H169505   3.177   3.553  15.153 -0.3901  0.9341 -0.6042
16030TIP3    H269506   3.204   3.418  15.090  1.0673  0.7356  0.4166
16031TIP3   OH269507   4.495   0.825   4.914  0.0520 -0.3548 -0.2998
16031TIP3    H169508   4.401   0.807   4.915 -0.0646  0.2379 -0.4166
16031TIP3    H269509   4.504   0.911   4.955  0.6151 -0.7125  0.3627
16032TIP3   OH269510   0.028   3.798  11.273 -0.1320  0.0198 -0.1406
16032TIP3    H169511  -0.044   3.795  11.210 -0.0059  1.5822 -0.4081
16032TIP3    H269512  -0.010   3.838  11.351  0.7164  2.1814 -0.7586
16033TIP3   OH269513   3.897   5.378   1.122 -0.6901 -0.0919  0.2197
16033TIP3    H169514   3.867   5.395   1.211 -2.4226  1.9326 -0.6680
16033TIP3    H269515   3.975   5.432   1.112 -1.5686  1.1772 -0.0310
16034TIP3   OH269516   0.341   1.932  13.848  0.2449  0.4529  0.0791
16034TIP3    H169517   0.429   1.894  13.855  0.5616  0.9956 -0.7040
16034TIP3    H269518   0.283   1.857  13.839  0.3747 -0.0229  2.5539
16035TIP3   OH269519   4.611   5.147  14.330  0.0539  0.5285 -0.2079
16035TIP3    H169520   4.584   5.227  14.375 -0.6639 -0.3862  1.0677
16035TIP3    H269521   4.674   5.176  14.264  0.0669  2.0890  0.4528
16036TIP3   OH269522   3.064   1.355   3.814  0.0973  0.0690 -0.0988
16036TIP3    H169523   3.102   1.386   3.732  0.7914  0.8926  0.5112
16036TIP3    H269524   3.116   1.398   3.882 -0.6231 -0.4030  0.7713
16037TIP3   OH269525   6.202   0.073   2.323 -1.1097 -0.3142  0.1960
16037TIP3    H169526   6.178   0.013   2.252  1.3190 -0.0554 -0.9582
16037TIP3    H269527   6.260   0.022   2.380  1.0628  0.8180 -0.8471
16038TIP3   OH269528   1.250   6.298  15.608 -0.1953  0.7968  0.1924
16038TIP3    H169529   1.236   6.392  15.617 -2.2292  0.4009  2.1080
16038TIP3    H269530   1.187   6.270  15.542  0.2781  0.7414 -0.2408
16039TIP3   OH269531   0.924   4.913  12.466  0.2980  0.0531 -0.2010
16039TIP3    H169532   0.938   4.819  12.451  1.5322  0.0076  1.0494
16039TIP3    H269533   0.844   4.918  12.517  0.3725 -0.3537 -0.0420
16040TIP3   OH269534   4.832   6.149   5.705  0.4479  0.2902 -0.1365
16040TIP3    H169535   4.829   6.063   5.747 -0.5297 -0.1831 -1.1318
16040TIP3    H269536   4.800   6.210   5.772  3.9760  0.4299  1.6776
16041TIP3   OH269537   2.070   3.068   0.312 -0.1592 -0.2342  0.4391
16041TIP3    H169538   2.025   3.079   0.228 -1.4330  0.0145  1.1199
16041TIP3    H269539   2.076   2.973   0.323  0.3271 -0.2685 -0.0818
16042TIP3   OH269540   4.165   5.713   2.499  0.0885  0.5262 -0.0351
16042TIP3    H169541   4.135   5.656   2.570  0.4161  0.5573  0.1287
16042TIP3    H269542   4.087   5.726   2.445 -0.6871  2.0730  1.3591
16043TIP3   OH269543   5.111   2.017  11.262 -0.6104  0.1448 -0.1781
16043TIP3    H169544   5.167   2.061  11.325 -0.6273 -1.5100  1.0537
16043TIP3    H269545   5.030   2.068  11.263 -2.1272 -1.8631  4.1241
16044TIP3   OH269546   0.953   4.023   5.921  0.1637  0.3640 -0.0090
16044TIP3    H169547   0.867   4.016   5.880  0.8359  1.0003 -1.6156
16044TIP3    H269548   0.957   4.112   5.955 -0.0583  0.1130  0.6977
16045TIP3   OH269549   1.118   0.063  11.870  0.0503 -0.1055  0.1948
16045TIP3    H169550   1.102  -0.012  11.927 -3.1085  0.8694  0.7455
16045TIP3    H269551   1.035   0.110  11.867  1.8798  3.4724 -0.0676
16046TIP3   OH269552   5.134   3.291   1.792 -0.2197 -0.4038  0.4097
16046TIP3    H169553   5.112   3.273   1.701 -0.1301  1.6398 -0.0675
16046TIP3    H269554   5.055   3.332   1.828  0.5414  0.9859  0.5469
16047TIP3   OH269555   4.264   0.314  11.060 -0.7592 -0.5030  0.3851
16047TIP3    H169556   4.272   0.266  10.978  1.1040 -0.5141  0.5177
16047TIP3    H269557   4.282   0.248  11.128  1.3426  0.2025  0.5880
16048TIP3   OH269558   6.108   0.217  15.358 -0.0422 -0.6699  0.0282
16048TIP3    H169559   6.064   0.156  15.299  0.2943  0.0872 -1.0426
16048TIP3    H269560   6.186   0.170  15.389  0.3743 -0.6942 -1.0230
16049TIP3   OH269561   3.355   4.500   1.102 -0.3379  0.3607  0.1071
16049TIP3    H169562   3.298   4.459   1.167 -0.5631  2.3070  1.2169
16049TIP3    H269563   3.319   4.588   1.091  1.9285  1.3653  0.2246
16050TIP3   OH269564   0.706   1.412   6.264 -0.2114  0.0163 -0.2946
16050TIP3    H169565   0.676   1.355   6.193 -1.0904  1.1356 -0.8629
16050TIP3    H269566   0.801   1.417   6.253 -0.3948  0.6838 -1.8159
16051TIP3   OH269567   3.375   0.398   1.956  0.1488  0.6411  0.1769
16051TIP3    H169568   3.458   0.361   1.985  0.8828  0.7936 -1.5753
16051TIP3    H269569   3.398   0.454   1.882 -1.3130  2.2181  0.8606
16052TIP3   OH269570   5.764   0.453   3.142  0.1912 -0.2142  0.3760
16052TIP3    H169571   5.859   0.451   3.143  0.2183 -1.0328 -0.9437
16052TIP3    H269572   5.742   0.510   3.068 -0.2953 -1.7343 -0.6995
16053TIP3   OH269573   5.277   3.395   1.143  0.7220 -0.4655  0.2987
16053TIP3    H169574   5.295   3.311   1.101  0.2585  0.4773 -1.9176
16053TIP3    H269575   5.182   3.407   1.132  1.0082  1.0359 -0.8770
16054TIP3   OH269576   3.726   0.145  10.675  0.3200 -0.0270 -0.5299
16054TIP3    H169577   3.739   0.224  10.727  0.8817  0.8105 -1.8849
16054TIP3    H269578   3.633   0.145  10.652  0.2093 -0.0505 -0.0858
16055TIP3   OH269579   5.460   5.160   1.069 -0.5069  0.3687 -0.0567
16055TIP3    H169580   5.509   5.079   1.083 -0.4953  0.6051  1.4543
16055TIP3    H269581   5.508   5.205   1.000 -0.9740 -1.2577 -1.5044
16056TIP3   OH269582   0.121   5.188   0.204  0.4421 -0.2700 -0.1786
16056TIP3    H169583   0.076   5.207   0.287  0.1992 -0.8969 -0.1649
16056TIP3    H269584   0.208   5.226   0.215  0.0328  0.6817 -0.0819
16057TIP3   OH269585   3.856   6.454  16.715 -0.2402 -0.3139 -0.0102
16057TIP3    H169586   3.886   6.484  16.801 -1.2740 -1.5234  0.8234
16057TIP3    H269587   3.786   6.515  16.691 -0.8338 -0.7102  0.6442
16058TIP3   OH269588   6.154   5.685   4.934 -0.4174 -0.2452  0.8237
16058TIP3    H169589   6.241   5.690   4.974  0.9808 -3.5673 -1.3208
16058TIP3    H269590   6.157   5.747   4.861  1.2731 -2.1965 -0.8738
16059TIP3   OH269591   3.620   4.291   1.211 -0.8167 -0.2090 -0.1120
16059TIP3    H169592   3.632   4.351   1.137  0.8122 -0.5829 -0.1904
16059TIP3    H269593   3.702   4.296   1.260 -1.3234 -1.0607  0.8738
16060TIP3   OH269594   4.952   2.919  11.705  0.5287  0.4994 -0.8679
16060TIP3    H169595   4.947   2.998  11.759  0.8885 -0.1331  0.1357
16060TIP3    H269596   5.024   2.935  11.645  1.9821  0.1607  0.7032
16061TIP3   OH269597   2.408   0.330  16.525 -0.3163 -0.0053  0.2086
16061TIP3    H169598   2.314   0.331  16.543 -0.2280 -0.8884  0.7671
16061TIP3    H269599   2.416   0.286  16.440 -0.5654  2.1953 -1.0170
16062TIP3   OH269600   0.996   2.164  12.552 -0.3648  0.5347 -0.2310
16062TIP3    H169601   1.032   2.253  12.547 -0.4878  0.5652 -0.6110
16062TIP3    H269602   0.906   2.173  12.522 -1.2614  0.7548  2.2671
16063TIP3   OH269603   0.401   4.465   0.715 -0.2845 -0.2902 -0.0218
16063TIP3    H169604   0.390   4.370   0.712  0.8395 -0.4313 -0.3217
16063TIP3    H269605   0.315   4.499   0.739 -0.8844 -1.3327 -0.6426
16064TIP3   OH269606   1.467   5.740  17.004 -0.3591  0.0932  0.2882
16064TIP3    H169607   1.398   5.713  16.943 -0.5345  1.4081 -0.1324
16064TIP3    H269608   1.452   5.687  17.082 -2.7470  1.2642  0.7503
16065TIP3   OH269609   1.825   0.979  16.836 -0.1492  0.0794  0.1496
16065TIP3    H169610   1.906   0.996  16.790 -0.7696  1.9374 -0.3383
16065TIP3    H269611   1.759   0.972  16.767 -1.0684  2.8027  0.6331
16066TIP3   OH269612   2.769   1.450  11.241 -0.3812  0.2160 -0.3019
16066TIP3    H169613   2.789   1.541  11.222  0.1379 -0.1572 -1.6410
16066TIP3    H269614   2.798   1.437  11.332 -0.1922  1.2872 -0.2007
16067TIP3   OH269615   4.188   2.229   5.325  0.9673 -0.3100 -0.2569
16067TIP3    H169616   4.210   2.253   5.415 -0.0506 -0.6649  0.1003
16067TIP3    H269617   4.093   2.221   5.325  0.8538  0.6483 -1.6099
16068TIP3   OH269618   4.120   3.653   0.431  0.0399  0.2179 -0.2339
16068TIP3    H169619   4.132   3.743   0.402 -0.3363  0.5834  0.7036
16068TIP3    H269620   4.047   3.620   0.378 -0.4713  0.7886  0.1032
16069TIP3   OH269621   4.188   3.646  16.872  0.2835  0.0703 -0.0696
16069TIP3    H169622   4.107   3.697  16.872 -1.4701 -2.4695 -1.7118
16069TIP3    H269623   4.226   3.662  16.785  0.8558  0.1886  0.1943
16070TIP3   OH269624   2.727   5.143   2.032 -0.1819 -0.4829  0.1466
16070TIP3    H169625   2.816   5.121   2.004  0.8983  0.6876  2.3354
16070TIP3    H269626   2.732   5.236   2.056 -1.3263 -0.9451  2.5129
16071TIP3   OH269627   5.886   0.845   2.256  0.2067  0.0003  0.1300
16071TIP3    H169628   5.898   0.888   2.341  1.2674  1.7428 -0.8457
16071TIP3    H269629   5.966   0.795   2.242 -0.4728 -1.3011  0.6571
16072TIP3   OH269630   3.646   3.197   0.023  0.6249  0.5070  0.6466
16072TIP3    H169631   3.669   3.289   0.032  2.5298  0.1711 -0.4555
16072TIP3    H269632   3.711   3.150   0.075  0.0734 -0.2797  0.6569
16073TIP3   OH269633   4.365   2.690   1.002 -0.0321 -0.2646  0.1192
16073TIP3    H169634   4.376   2.725   0.914  0.1355 -0.4964  0.0456
16073TIP3    H269635   4.436   2.626   1.011 -0.6479 -0.9719  0.0499
16074TIP3   OH269636   3.300   2.014  16.302 -0.4464  0.7792 -0.0905
16074TIP3    H169637   3.385   1.972  16.291 -1.3051 -0.7079 -1.3119
16074TIP3    H269638   3.250   1.991  16.224 -2.5941  0.1161  1.3641
16075TIP3   OH269639   1.180   1.432  13.826  0.6703 -0.2203  0.0760
16075TIP3    H169640   1.239   1.425  13.901 -0.8762 -2.7821  1.2165
16075TIP3    H269641   1.216   1.370  13.762  0.5511  0.0372 -0.2416
16076TIP3   OH269642   2.803   1.887  14.100 -0.5566  0.4795 -0.6335
16076TIP3    H169643   2.793   1.964  14.043 -0.4155  0.2929 -0.9160
16076TIP3    H269644   2.727   1.889  14.157 -1.3364  0.0059 -1.6256
16077TIP3   OH269645   2.960   0.366   0.774 -0.0030  0.5412 -0.6338
16077TIP3    H169646   3.026   0.434   0.761 -1.8560  2.8991  1.2533
16077TIP3    H269647   2.985   0.324   0.856 -0.1780  0.5873 -0.5577
16078TIP3   OH269648   0.999   4.051   3.917 -0.4687 -0.9190  0.6198
16078TIP3    H169649   0.916   4.045   3.869 -0.6446 -0.4064  0.8594
16078TIP3    H269650   0.981   4.009   4.001 -1.2120  1.3054  1.6365
16079TIP3   OH269651   4.178   2.605  11.775 -0.7437  0.4017  0.2592
16079TIP3    H169652   4.181   2.515  11.806  1.5787 -0.1157 -1.2247
16079TIP3    H269653   4.255   2.646  11.815 -0.0368  0.8442 -1.4939
16080TIP3   OH269654   1.235   4.350  14.531  0.3712 -0.3005  0.5382
16080TIP3    H169655   1.146   4.376  14.505  0.4444 -0.8667 -0.2999
16080TIP3    H269656   1.224   4.310  14.617 -0.1464 -0.1032  0.5657
16081TIP3   OH269657   2.548   6.141  14.931 -0.2686 -0.7816  0.4366
16081TIP3    H169658   2.557   6.145  15.026 -0.8950 -1.2037  0.5231
16081TIP3    H269659   2.603   6.068  14.904 -0.4827 -0.9738  0.5269
16082TIP3   OH269660   3.036   3.716  12.049 -0.9043  0.1031 -0.1069
16082TIP3    H169661   2.984   3.773  12.106  0.3237 -0.0435  1.2124
16082TIP3    H269662   3.125   3.749  12.056 -0.5163 -0.7169 -0.9476
16083TIP3   OH269663   5.682   3.987   4.771  0.0140 -0.8296 -0.3603
16083TIP3    H169664   5.713   3.971   4.682  0.8368 -0.7884 -0.0932
16083TIP3    H269665   5.679   3.900   4.811  0.9457 -0.7299 -0.0320
16084TIP3   OH269666   1.000   4.161  15.822 -0.7011 -0.1062  0.3498
16084TIP3    H169667   1.052   4.204  15.754 -1.1981 -0.7614 -0.4716
16084TIP3    H269668   1.050   4.082  15.844 -2.4492 -2.1095 -2.2699
16085TIP3   OH269669   0.815   1.385   3.056 -0.6353 -0.1996  0.5168
16085TIP3    H169670   0.738   1.434   3.027 -0.7100 -1.0244 -0.7964
16085TIP3    H269671   0.817   1.309   2.998  1.2000 -0.1816  0.5113
16086TIP3   OH269672   3.987   1.374  11.616  0.4548 -0.0058  0.1281
16086TIP3    H169673   4.023   1.452  11.572 -1.8861  0.2768 -1.5022
16086TIP3    H269674   3.993   1.394  11.709  1.6874  1.2870 -0.1891
16087TIP3   OH269675   2.654   0.727   4.231  0.8937 -0.3214  0.0889
16087TIP3    H169676   2.646   0.822   4.239  0.8784 -0.2061 -1.1869
16087TIP3    H269677   2.685   0.713   4.142  2.8512 -1.4210  0.8888
16088TIP3   OH269678   0.962   0.602  12.371  0.0652 -0.3935  0.1608
16088TIP3    H169679   0.981   0.604  12.277 -0.6490  0.4504  0.0215
16088TIP3    H269680   0.927   0.514  12.386  0.3489 -0.5910 -0.3288
16089TIP3   OH269681   6.577   4.991  12.243 -0.5579 -0.1804 -0.4735
16089TIP3    H169682   6.591   5.017  12.152  0.3201  1.5225  0.0993
16089TIP3    H269683   6.495   5.032  12.268 -1.6342 -1.9556 -0.9133
16090TIP3   OH269684   6.301   1.915   3.161 -0.0647 -0.0399  0.1449
16090TIP3    H169685   6.209   1.910   3.133 -0.6752  0.5615  1.9260
16090TIP3    H269686   6.313   1.839   3.218  1.3763 -1.6687 -2.1534
16091TIP3   OH269687   5.998   3.223  14.343  0.1891 -0.0602  0.2435
16091TIP3    H169688   5.979   3.283  14.271 -1.2873 -0.2373  0.4552
16091TIP3    H269689   5.914   3.182  14.363  0.8747 -1.1013  1.0925
16092TIP3   OH269690   6.333   2.259  16.795 -0.6332 -0.1025  0.0912
16092TIP3    H169691   6.341   2.258  16.700  1.6713  2.2579  0.1638
16092TIP3    H269692   6.394   2.192  16.825  1.8400  1.9323 -0.0758
16093TIP3   OH269693   3.878   3.925  13.731 -0.4316  0.1944 -0.7878
16093TIP3    H169694   3.878   4.020  13.723  0.2923  0.5622  2.3747
16093TIP3    H269695   3.806   3.906  13.792 -1.2864 -1.4325 -2.2204
16094TIP3   OH269696   5.910   5.934   0.786  0.2157 -0.0631 -0.1716
16094TIP3    H169697   5.911   5.932   0.691 -0.2359  1.8479 -0.2518
16094TIP3    H269698   5.973   6.002   0.810  0.3910 -0.5695  0.9099
16095TIP3   OH269699   5.264   3.741  14.930  0.0658 -0.0792 -0.0678
16095TIP3    H169700   5.178   3.709  14.902 -0.1593 -1.0227  1.5865
16095TIP3    H269701   5.306   3.665  14.972  1.1296  0.7485  0.4169
16096TIP3   OH269702   5.717   1.520   6.210  0.1644  0.0883 -0.1064
16096TIP3    H169703   5.677   1.507   6.124  0.1784 -0.8056  0.0172
16096TIP3    H269704   5.683   1.448   6.263  0.8478  0.1272  0.3913
16097TIP3   OH269705   6.206   1.068   4.668  0.3206  0.1187 -0.0709
16097TIP3    H169706   6.191   1.159   4.694 -0.8928  1.1000 -3.6493
16097TIP3    H269707   6.138   1.018   4.714 -0.3076  1.3326  0.3627
16098TIP3   OH269708   2.783   5.088   0.685 -0.3439 -0.1008 -0.1411
16098TIP3    H169709   2.784   5.080   0.780  1.0427  1.5303  0.0211
16098TIP3    H269710   2.690   5.081   0.662 -0.8288  0.6206  1.4369
16099TIP3   OH269711   0.866   6.257  12.600 -0.4252 -0.2106  0.3551
16099TIP3    H169712   0.782   6.216  12.622  0.0896 -2.0257 -0.8652
16099TIP3    H269713   0.889   6.307  12.678 -2.5545  0.2176  0.7745
16100TIP3   OH269714   4.743   1.873   0.917  0.8159  0.1718  0.3480
16100TIP3    H169715   4.732   1.832   0.831  0.0234  1.9064 -0.4469
16100TIP3    H269716   4.669   1.842   0.968  1.2184 -0.7718  0.3670
16101TIP3   OH269717   5.710   5.582  13.064 -0.1055 -0.9982 -0.5782
16101TIP3    H169718   5.796   5.605  13.100 -0.5043  0.7224 -0.6240
16101TIP3    H269719   5.705   5.631  12.982 -1.4690 -0.3516 -0.1366
16102TIP3   OH269720   5.638   0.967  12.488 -0.4961 -0.0604 -0.3038
16102TIP3    H169721   5.684   0.944  12.407 -0.3421 -0.1407 -0.1929
16102TIP3    H269722   5.703   1.013  12.541 -0.8439  0.7940 -0.5911
16103TIP3   OH269723   3.095   3.886  16.438 -0.7363  0.4286 -0.7339
16103TIP3    H169724   3.169   3.943  16.416  0.3555 -0.5356  0.2330
16103TIP3    H269725   3.090   3.891  16.534 -1.0799 -0.5193 -0.6944
16104TIP3   OH269726   5.629   1.099   1.029 -0.4466 -0.4830  0.0767
16104TIP3    H169727   5.562   1.032   1.015  0.1804 -1.0879 -0.0694
16104TIP3    H269728   5.710   1.050   1.041  0.7843  0.2383 -3.8490
16105TIP3   OH269729   3.912   0.796   6.218  0.0560  0.3031 -0.4546
16105TIP3    H169730   3.911   0.863   6.286  1.6202  0.0800 -0.1576
16105TIP3    H269731   3.926   0.844   6.137  3.2561  0.3230 -0.0407
16106TIP3   OH269732   4.189   6.400   2.753 -0.3106 -0.8194 -0.2789
16106TIP3    H169733   4.229   6.323   2.714 -0.9998 -0.5229 -1.6134
16106TIP3    H269734   4.182   6.463   2.682  0.2253  0.4920  0.7841
16107TIP3   OH269735   2.105   4.097  14.432  0.7827 -0.0586  0.2619
16107TIP3    H169736   2.196   4.118  14.411  1.0492 -0.3089  1.1434
16107TIP3    H269737   2.064   4.182  14.450  0.1528  0.3509 -2.6372
16108TIP3   OH269738   5.299   2.327  14.291 -0.3036 -0.4344  0.2331
16108TIP3    H169739   5.213   2.297  14.262 -0.3431  0.3413 -0.4830
16108TIP3    H269740   5.281   2.402  14.347 -0.1291 -0.6979  0.6413
16109TIP3   OH269741   6.582   5.778  13.701 -0.1232  0.2515 -0.0017
16109TIP3    H169742   6.565   5.823  13.784  0.2167  0.2510  0.0691
16109TIP3    H269743   6.540   5.833  13.635 -3.6561 -1.5654  0.4707
16110TIP3   OH269744   1.669   6.477   2.132  0.0283  0.3529  0.5087
16110TIP3    H169745   1.611   6.552   2.120  0.7082  0.6603 -1.1762
16110TIP3    H269746   1.613   6.401   2.120  0.0510  0.6492 -2.0005
16111TIP3   OH269747   1.007   3.934  11.309 -0.2032  0.4125 -0.4649
16111TIP3    H169748   0.961   3.985  11.243 -1.2606 -0.1437 -0.1893
16111TIP3    H269749   0.938   3.883  11.353  0.4744  0.7017  1.0094
16112TIP3   OH269750   4.192   6.777  11.903 -0.1966 -0.3589 -0.5713
16112TIP3    H169751   4.166   6.717  11.973  0.4274 -1.2564 -1.0828
16112TIP3    H269752   4.287   6.773  11.902  0.0456  2.3616  0.8208
16113TIP3   OH269753   0.668   4.255  14.466 -0.0574 -0.0338  0.0178
16113TIP3    H169754   0.657   4.236  14.373  2.9528  0.6283 -0.5808
16113TIP3    H269755   0.641   4.346  14.476 -1.1932 -0.3493  0.0198
16114TIP3   OH269756   3.847   5.309   1.630  0.3188  0.4998 -0.1538
16114TIP3    H169757   3.938   5.327   1.654  0.5904  0.6950 -1.2679
16114TIP3    H269758   3.816   5.249   1.698  2.1324 -1.8002 -1.1989
16115TIP3   OH269759   4.101   4.736   5.356  0.4951  1.0556  0.3225
16115TIP3    H169760   4.031   4.783   5.311  1.1559  1.7534 -0.0234
16115TIP3    H269761   4.064   4.710   5.439 -0.0593  1.7628  0.3080
16116TIP3   OH269762   4.940   5.431   0.365 -0.1087 -1.0581 -0.0526
16116TIP3    H169763   5.014   5.481   0.400 -1.5545  0.4904  0.9348
16116TIP3    H269764   4.881   5.419   0.439 -1.9267 -0.1805 -1.2707
16117TIP3   OH269765   4.576   2.332  10.517  0.2171  0.5202  0.3575
16117TIP3    H169766   4.497   2.326  10.463  0.2519  0.8851  0.2565
16117TIP3    H269767   4.643   2.286  10.466  0.9711  3.1906 -1.3290
16118TIP3   OH269768   5.590   2.050  12.444  0.5113  0.2894  0.1629
16118TIP3    H169769   5.543   1.969  12.459 -0.9174  1.2477  1.1265
16118TIP3    H269770   5.667   2.025  12.394  0.4818 -1.7521  1.0681
16119TIP3   OH269771   2.317   4.237   3.757 -0.1225  0.0112  0.4075
16119TIP3    H169772   2.251   4.197   3.701 -1.1593  0.4979  1.2596
16119TIP3    H269773   2.282   4.324   3.778  0.7062  0.2082  1.0222
16120TIP3   OH269774   1.423   4.809   3.584 -0.5850 -0.2203 -0.0935
16120TIP3    H169775   1.508   4.773   3.608 -1.0123 -1.2259  0.0125
16120TIP3    H269776   1.430   4.903   3.600  0.0803 -0.4645  1.2154
16121TIP3   OH269777   3.922   5.593   1.696  0.4303  0.5568 -0.0454
16121TIP3    H169778   3.886   5.677   1.724  1.5627  1.0754 -0.0898
16121TIP3    H269779   3.852   5.530   1.715 -0.5171  1.5184 -0.1908
16122TIP3   OH269780   6.387   4.453   1.543 -0.3110 -0.5632  0.2246
16122TIP3    H169781   6.449   4.486   1.608  0.9220  0.9840 -1.6387
16122TIP3    H269782   6.418   4.366   1.521  2.2341  0.7088 -1.7547
16123TIP3   OH269783   2.961   0.873  14.878 -0.1927 -0.4811  0.7226
16123TIP3    H169784   3.011   0.825  14.812 -1.3828  0.4884 -0.9820
16123TIP3    H269785   3.027   0.909  14.937  0.8074 -2.8441  1.1444
16124TIP3   OH269786   0.540   2.233   1.646 -0.4783  0.4761  0.4921
16124TIP3    H169787   0.573   2.183   1.571 -2.6295  0.2579 -0.3728
16124TIP3    H269788   0.601   2.306   1.655 -0.0609  0.3919 -1.3535
16125TIP3   OH269789   5.367   2.481   3.277  0.0327  0.0397 -0.6525
16125TIP3    H169790   5.314   2.420   3.328  0.2994  0.3189 -0.0297
16125TIP3    H269791   5.443   2.498   3.332  1.1483 -0.9155 -1.8458
16126TIP3   OH269792   0.353   6.333   0.527 -0.1945 -0.4987  0.1914
16126TIP3    H169793   0.415   6.373   0.466 -0.5774 -0.3263 -0.0866
16126TIP3    H269794   0.292   6.404   0.550  0.9036 -0.0970  2.0723
16127TIP3   OH269795   4.709   4.754   2.709 -0.4495 -0.3744 -0.4062
16127TIP3    H169796   4.638   4.746   2.646 -1.7437  0.2187  0.9300
16127TIP3    H269797   4.706   4.845   2.738  0.9310 -0.3063 -0.3849
16128TIP3   OH269798   6.379   6.167  15.532  0.4896  1.0391 -0.3363
16128TIP3    H169799   6.448   6.106  15.508  1.3395  2.1660 -0.8159
16128TIP3    H269800   6.354   6.141  15.621  1.7207  0.7770 -0.0461
16129TIP3   OH269801   2.030   5.380   5.924 -0.2833 -0.1982  0.0383
16129TIP3    H169802   2.041   5.303   5.979 -0.3366 -1.7999 -2.0648
16129TIP3    H269803   2.048   5.454   5.982  1.1568 -1.8264  1.8080
16130TIP3   OH269804   5.103   5.341   4.968  0.4480 -0.0721  0.4978
16130TIP3    H169805   5.049   5.410   4.929 -0.1139 -0.2838  0.8837
16130TIP3    H269806   5.071   5.260   4.929 -0.3307 -0.3173  1.5923
16131TIP3   OH269807   2.778   1.207  14.833 -0.1752  0.3192  0.3425
16131TIP3    H169808   2.823   1.241  14.911 -1.1352  1.8213  0.2762
16131TIP3    H269809   2.738   1.284  14.793 -1.9410 -0.8080 -0.1692
16132TIP3   OH269810   4.076   5.407  12.366  0.4056 -0.2789 -0.3750
16132TIP3    H169811   4.148   5.414  12.429 -0.2667 -1.4551  0.5781
16132TIP3    H269812   4.083   5.486  12.312  2.0833 -0.1161  0.0199
16133TIP3   OH269813   2.441   4.900  13.657 -0.3106  0.0678  0.5680
16133TIP3    H169814   2.387   4.977  13.678 -1.6506 -0.8378  0.5627
16133TIP3    H269815   2.451   4.904  13.562  1.0020  1.1017  0.7265
16134TIP3   OH269816   3.933   4.337   0.055  0.2473  0.0400 -0.0875
16134TIP3    H169817   4.005   4.274   0.052 -0.6169 -0.9473 -0.5609
16134TIP3    H269818   3.888   4.326  -0.029 -1.1119 -0.1378  0.6422
16135TIP3   OH269819   1.346   0.728   5.455 -0.2019 -0.7467 -0.2069
16135TIP3    H169820   1.269   0.682   5.487 -1.9895  2.3684  0.3802
16135TIP3    H269821   1.324   0.754   5.365  0.0807  0.2140 -0.0188
16136TIP3   OH269822   3.381   2.184   1.456 -0.0156 -0.9456 -0.0176
16136TIP3    H169823   3.390   2.100   1.501  2.7025 -0.2451  0.9255
16136TIP3    H269824   3.389   2.162   1.363  2.2313 -1.6284  0.2864
16137TIP3   OH269825   0.333   1.000  15.364 -0.3116 -0.7270  0.0803
16137TIP3    H169826   0.420   1.037  15.373 -0.4229  0.0956 -1.7279
16137TIP3    H269827   0.274   1.072  15.386 -0.5214 -0.2208 -1.9828
16138TIP3   OH269828   5.513   0.762  13.899 -0.3902  0.0951  0.3074
16138TIP3    H169829   5.594   0.739  13.853 -1.5662 -1.0662 -1.2755
16138TIP3    H269830   5.447   0.705  13.862 -2.1023  1.4874  1.0641
16139TIP3   OH269831   6.409   1.147   2.594 -0.4481 -0.1386 -0.2272
16139TIP3    H169832   6.496   1.108   2.601 -0.3809  0.0788  0.1787
16139TIP3    H269833   6.349   1.072   2.589 -0.4571 -0.3618  2.1108
16140TIP3   OH269834   1.153   4.808  16.709 -0.0634  0.3387  0.3158
16140TIP3    H169835   1.200   4.888  16.682  2.5928 -0.9802  0.7013
16140TIP3    H269836   1.154   4.753  16.631 -0.6905  0.1481  0.4386
16141TIP3   OH269837   2.813   1.102  12.711 -0.2739  0.0838  0.1948
16141TIP3    H169838   2.785   1.156  12.637 -0.6142 -0.5323 -0.1285
16141TIP3    H269839   2.801   1.012  12.682 -1.4210 -0.1800  1.3623
16142TIP3   OH269840   0.203   0.264  11.979 -0.0105 -0.1486 -0.0653
16142TIP3    H169841   0.226   0.300  12.065 -0.0281  0.2032 -0.2055
16142TIP3    H269842   0.114   0.297  11.962 -0.5825 -1.3991  0.4180
16143TIP3   OH269843   5.296   2.588   0.215 -0.3084  0.1406 -0.0199
16143TIP3    H169844   5.229   2.619   0.276 -0.5711  2.3494 -1.3033
16143TIP3    H269845   5.313   2.498   0.241 -0.6482  0.8580  3.0447
16144TIP3   OH269846   5.277   5.011  12.458  0.0887 -0.0901 -0.0902
16144TIP3    H169847   5.318   4.945  12.514 -0.5579  0.3477  0.9189
16144TIP3    H269848   5.251   5.081  12.517  0.9743  1.2015 -1.1856
16145TIP3   OH269849   3.211   4.831  16.784  0.3647 -0.0248 -0.2744
16145TIP3    H169850   3.157   4.896  16.829 -0.3486 -0.5766 -0.3188
16145TIP3    H269851   3.170   4.747  16.804  0.9524 -0.4159 -0.6745
16146TIP3   OH269852   3.282   1.801   2.947 -0.1705 -0.0399 -0.4907
16146TIP3    H169853   3.341   1.730   2.969 -0.5556 -0.1894  0.0504
16146TIP3    H269854   3.284   1.804   2.851  0.8861  0.1061 -0.4839
16147TIP3   OH269855   5.553   5.797   5.399  0.2282  0.7380  0.4994
16147TIP3    H169856   5.514   5.762   5.319 -0.2348  3.9608 -0.8136
16147TIP3    H269857   5.491   5.773   5.468 -0.2759 -0.5385 -0.3519
16148TIP3   OH269858   2.432   5.653  14.044 -0.2465  0.1733 -0.6686
16148TIP3    H169859   2.493   5.638  13.972 -0.5376  1.2765 -1.1732
16148TIP3    H269860   2.474   5.721  14.096 -0.7633  0.5106 -0.6874
16149TIP3   OH269861   6.622   5.713  16.455  0.2988 -0.6613  0.0076
16149TIP3    H169862   6.653   5.793  16.497 -3.0450  0.6748  0.1944
16149TIP3    H269863   6.671   5.708  16.373  0.7591  1.4136  0.1150
16150TIP3   OH269864   3.540   6.723  14.571  0.5182  0.3357 -0.5372
16150TIP3    H169865   3.565   6.802  14.522  1.0271  1.0057  0.7412
16150TIP3    H269866   3.451   6.740  14.601  0.2234 -0.0548 -1.1752
16151TIP3   OH269867   4.917   0.428   1.949 -0.4341  0.0807  0.2452
16151TIP3    H169868   4.857   0.501   1.943 -0.5028 -0.0476 -0.7653
16151TIP3    H269869   4.874   0.365   2.006 -0.4107  0.7801  1.0505
16152TIP3   OH269870   2.598   0.607  14.302  0.1623 -1.1795 -0.7243
16152TIP3    H169871   2.590   0.663  14.225 -1.1458 -0.3907 -0.0548
16152TIP3    H269872   2.616   0.668  14.374 -0.5694 -1.6823 -0.0995
16153TIP3   OH269873   1.771   0.080   1.208 -0.1284 -0.1725  0.1769
16153TIP3    H169874   1.716   0.027   1.149 -0.9953 -0.8905  1.5763
16153TIP3    H269875   1.859   0.071   1.172 -0.5534 -1.0241 -0.7213
16154TIP3   OH269876   6.654   3.836  16.640  0.4958  0.0910  0.6358
16154TIP3    H169877   6.631   3.929  16.635 -0.3399  0.0700  2.8420
16154TIP3    H269878   6.595   3.793  16.577  0.0807  0.9270  0.4477
16155TIP3   OH269879   0.848   2.066   5.232 -0.8322  0.2956 -0.0880
16155TIP3    H169880   0.859   2.018   5.150  0.1799 -0.1358  0.2791
16155TIP3    H269881   0.880   2.154   5.213 -1.2950  0.4093 -0.3521
16156TIP3   OH269882   1.577   0.027  15.268  0.1203  1.0065 -0.1418
16156TIP3    H169883   1.579   0.026  15.173 -2.4219  0.4538 -0.2835
16156TIP3    H269884   1.502  -0.029  15.291 -0.0590  2.0441  2.1311
16157TIP3   OH269885   3.208   5.080  12.178  0.4279 -0.0247 -0.1864
16157TIP3    H169886   3.182   5.018  12.246  2.3623 -1.7444 -0.9443
16157TIP3    H269887   3.296   5.055  12.154  0.2901  1.3609 -2.4537
16158TIP3   OH269888   2.708   3.286   1.913 -0.0997 -0.4335 -0.3006
16158TIP3    H169889   2.631   3.270   1.859 -2.7443 -0.2223  3.0695
16158TIP3    H269890   2.721   3.381   1.908 -0.1137 -0.4506 -0.7434
16159TIP3   OH269891   6.113   1.925  11.037  0.5862 -0.1463 -0.2078
16159TIP3    H169892   6.157   1.951  10.955  1.0931  0.0418  0.1172
16159TIP3    H269893   6.173   1.863  11.077 -0.5291 -1.7190 -0.8777
16160TIP3   OH269894   3.654   0.418  12.936  0.2968 -0.5297 -0.0164
16160TIP3    H169895   3.570   0.394  12.896  1.0991 -1.9910 -0.9300
16160TIP3    H269896   3.661   0.512  12.924 -1.8907 -0.1008  1.4686
16161TIP3   OH269897   6.453   1.511  11.342  0.6435 -0.2867  0.4205
16161TIP3    H169898   6.511   1.523  11.417  0.1478  1.1771  0.5883
16161TIP3    H269899   6.371   1.478  11.381 -0.1137  1.8382  0.7525
16162TIP3   OH269900   5.953   3.149  16.263  0.0017 -0.4846 -0.1681
16162TIP3    H169901   6.016   3.104  16.319  2.2143  0.4148 -1.7629
16162TIP3    H269902   5.897   3.080  16.228  1.4110 -1.6234 -0.2567
16163TIP3   OH269903   0.205   3.415  17.091  0.3782 -0.1145  0.3588
16163TIP3    H169904   0.279   3.394  17.149  0.7197 -0.4383 -0.1889
16163TIP3    H269905   0.132   3.366  17.127  0.6706 -0.5807  0.3281
16164TIP3   OH269906   5.119   2.977  11.505 -0.4260 -0.2641 -0.2296
16164TIP3    H169907   5.189   3.035  11.536 -1.4586 -0.0517  1.8590
16164TIP3    H269908   5.050   3.037  11.476 -1.3375 -0.3868  1.5668
16165TIP3   OH269909   0.927   1.600  14.080 -0.0569 -0.0310 -0.0357
16165TIP3    H169910   0.935   1.607  13.985  1.8026 -1.4124 -0.0221
16165TIP3    H269911   1.007   1.640  14.114  1.1644 -2.9189  0.7300
16166TIP3   OH269912   0.723   3.798   3.578 -0.2944  0.4337  0.0383
16166TIP3    H169913   0.688   3.711   3.559 -1.5664  0.8903  0.1564
16166TIP3    H269914   0.756   3.792   3.667 -0.5506  0.1097  0.1152
16167TIP3   OH269915   1.426   3.539   0.816  0.3716  0.5674  0.1013
16167TIP3    H169916   1.419   3.569   0.725 -0.7449 -1.2515 -0.4871
16167TIP3    H269917   1.516   3.510   0.825  0.9554  2.3053  0.1246
16168TIP3   OH269918   0.446   5.706  12.992 -0.1580  0.3559 -0.1878
16168TIP3    H169919   0.539   5.727  13.001  0.4295 -1.9255 -0.4098
16168TIP3    H269920   0.432   5.703  12.897 -0.1050 -0.6511 -0.1703
16169TIP3   OH269921   2.946   5.312  15.168  0.3647  0.6041 -0.0181
16169TIP3    H169922   2.932   5.387  15.226  0.7803  0.2271  0.5761
16169TIP3    H269923   3.022   5.336  15.115  1.0130  0.2715  0.7425
16170TIP3   OH269924   4.970   4.785   0.580  0.3572 -0.1513 -0.0507
16170TIP3    H169925   4.946   4.790   0.672 -0.7053  1.8673 -0.3873
16170TIP3    H269926   4.889   4.803   0.533  0.9404 -0.9149 -1.3922
16171TIP3   OH269927   5.651   0.238  11.166 -0.1955 -0.3085 -0.0176
16171TIP3    H169928   5.691   0.294  11.100 -1.0634  2.1942  1.4527
16171TIP3    H269929   5.663   0.149  11.132  1.5647  0.6897 -2.2910
16172TIP3   OH269930   6.725   6.115   3.957  0.4327  0.2530 -0.1032
16172TIP3    H169931   6.703   6.193   3.906  0.4324  1.8282  2.1531
16172TIP3    H269932   6.794   6.072   3.907  0.1405  1.4650 -1.6163
16173TIP3   OH269933   3.600   2.867   4.109  0.2043 -0.0170 -0.6591
16173TIP3    H169934   3.518   2.894   4.067 -0.5378 -1.0206  0.0834
16173TIP3    H269935   3.572   2.829   4.193  1.3555 -1.2293 -0.7950
16174TIP3   OH269936   6.496   1.281  12.082  0.1460  0.0386 -0.4469
16174TIP3    H169937   6.558   1.294  12.154  0.7791  0.8366 -1.1160
16174TIP3    H269938   6.526   1.341  12.014  0.0530 -1.3098 -1.7102
16175TIP3   OH269939   1.553   6.607   1.601 -0.0163  0.6154 -0.0954
16175TIP3    H169940   1.479   6.582   1.547  0.5572 -0.4347 -0.4306
16175TIP3    H269941   1.616   6.646   1.540  0.5605 -0.4166 -0.1945
16176TIP3   OH269942   6.750   5.018   0.833 -0.3266 -0.1127  0.0015
16176TIP3    H169943   6.802   4.943   0.807 -1.2782 -0.1574 -1.9332
16176TIP3    H269944   6.712   4.993   0.918  1.5135 -0.6705  0.7013
16177TIP3   OH269945   4.503   5.239   5.543 -0.9491 -0.0276 -0.5474
16177TIP3    H169946   4.567   5.297   5.585  0.4939 -0.4925 -1.9908
16177TIP3    H269947   4.552   5.197   5.473 -2.3756 -1.8330 -0.5302
16178TIP3   OH269948   2.446   5.524  12.894  0.5340 -0.2544  0.3287
16178TIP3    H169949   2.426   5.617  12.884 -0.8555 -0.4907  0.6843
16178TIP3    H269950   2.388   5.494  12.964  0.4126 -1.5558 -0.2945
16179TIP3   OH269951   1.967   6.299   1.301 -0.2433  0.1052 -0.7400
16179TIP3    H169952   1.981   6.350   1.381  1.5639 -0.2953 -0.7647
16179TIP3    H269953   1.895   6.239   1.323  1.5015 -1.3872  1.3187
16180TIP3   OH269954   2.602   2.962  14.598 -0.5266  0.1815  0.9467
16180TIP3    H169955   2.696   2.978  14.599 -0.4806 -0.0687  0.7963
16180TIP3    H269956   2.567   3.026  14.536 -0.3515 -0.2549  0.3882
16181TIP3   OH269957   6.446   6.468  15.216 -0.1025 -0.1344  0.4339
16181TIP3    H169958   6.457   6.511  15.301 -0.8842 -0.0875  0.5230
16181TIP3    H269959   6.376   6.404  15.230 -1.2388  0.8339 -0.4970
16182TIP3   OH269960   5.631   6.214  13.086  0.2842  0.1618  0.1924
16182TIP3    H169961   5.596   6.302  13.069  0.1142  0.0248 -0.1670
16182TIP3    H269962   5.556   6.165  13.120  0.4167  0.1950  0.5425
16183TIP3   OH269963   2.048   1.029   2.900 -0.0938  0.2297  0.2823
16183TIP3    H169964   1.971   0.972   2.899  1.4104 -1.9698  0.8401
16183TIP3    H269965   2.078   1.032   2.809 -1.5361  2.2212 -0.1877
16184TIP3   OH269966   1.150   1.215  15.898  0.2293 -0.3174 -0.1641
16184TIP3    H169967   1.218   1.221  15.830  0.8169 -0.3989  0.4103
16184TIP3    H269968   1.174   1.139  15.951 -1.0072 -1.1087 -0.6848
16185TIP3   OH269969   1.080   6.355  17.155  0.1912  0.0906 -0.3715
16185TIP3    H169970   1.142   6.411  17.108 -1.4627  1.8330 -0.6241
16185TIP3    H269971   1.000   6.407  17.159 -1.0184 -1.7457  0.6496
16186TIP3   OH269972   6.652   5.722  11.159 -0.4163 -0.0879  0.2635
16186TIP3    H169973   6.692   5.636  11.141  1.7270  0.9451 -0.1915
16186TIP3    H269974   6.651   5.766  11.075  1.1976  1.3753  0.9441
16187TIP3   OH269975   0.729   0.413  12.016 -1.1761  0.6583  0.6849
16187TIP3    H169976   0.645   0.409  12.062 -1.0559 -0.2507  0.8338
16187TIP3    H269977   0.708   0.451  11.930 -2.0138 -0.9297  0.1426
16188TIP3   OH269978   4.530   2.514  13.550 -0.0380 -0.3653 -0.1950
16188TIP3    H169979   4.620   2.482  13.561  1.1896  2.5866 -0.7395
16188TIP3    H269980   4.485   2.442  13.505  1.8563 -2.1577  0.5698
16189TIP3   OH269981   6.333   3.888   0.070 -0.2701  0.6461 -0.1940
16189TIP3    H169982   6.294   3.825   0.009 -0.2175  0.8431 -0.4307
16189TIP3    H269983   6.373   3.833   0.138 -1.9422  0.4374  0.6844
16190TIP3   OH269984   5.792   4.852  11.496 -0.0601 -0.2111 -0.6263
16190TIP3    H169985   5.723   4.794  11.528  0.2037 -0.2703 -0.1597
16190TIP3    H269986   5.749   4.937  11.488 -0.7422 -0.6686 -2.3560
16191TIP3   OH269987   2.879   0.042  15.841  0.0769 -0.5595  0.3755
16191TIP3    H169988   2.942   0.084  15.900  0.0805 -1.0941  0.7575
16191TIP3    H269989   2.829  -0.017  15.898 -1.3821  0.5076  0.2519
16192TIP3   OH269990   4.062   6.746  17.090  0.5184 -0.0288 -0.2332
16192TIP3    H169991   4.140   6.735  17.145  0.5336 -0.2770 -0.3024
16192TIP3    H269992   4.016   6.821  17.128  0.8426  0.1827 -0.2540
16193TIP3   OH269993   6.768   3.653   3.359  0.0049  0.2012  0.6627
16193TIP3    H169994   6.836   3.603   3.314 -0.3705 -1.4433  1.8536
16193TIP3    H269995   6.811   3.691   3.435 -0.4840 -1.3533  1.7646
16194TIP3   OH269996   2.413   6.667  17.058 -0.0038 -0.8669 -0.1175
16194TIP3    H169997   2.323   6.640  17.043 -0.1446 -0.4266 -0.0576
16194TIP3    H269998   2.428   6.649  17.151 -1.0223  1.8967  0.6714
16195TIP3   OH269999   5.477   0.097   4.231 -0.5136  0.0418 -0.2595
16195TIP3    H170000   5.501   0.053   4.150  0.1578 -0.9516  0.4497
16195TIP3    H270001   5.538   0.061   4.296 -0.6056  1.3032  0.5490
16196TIP3   OH270002   4.764   5.023  16.193  0.4482 -0.0360 -0.0687
16196TIP3    H170003   4.766   5.118  16.204 -2.3529  0.2647 -1.3891
16196TIP3    H270004   4.710   4.991  16.265 -0.1753 -0.3825 -0.6715
16197TIP3   OH270005   0.537   0.403   1.047  0.6081 -0.0930  0.2077
16197TIP3    H170006   0.477   0.360   1.109  2.6464  0.8927  3.0718
16197TIP3    H270007   0.543   0.342   0.974 -1.8750 -1.3992  0.9551
16198TIP3   OH270008   6.487   4.893  13.548 -0.0092  0.1608 -0.2464
16198TIP3    H170009   6.411   4.867  13.496 -0.5607  1.7867 -0.3353
16198TIP3    H270010   6.471   4.856  13.635  1.2356 -3.1439 -1.2643
16199TIP3   OH270011   4.138   5.398  14.840  0.3374 -0.1188 -0.3152
16199TIP3    H170012   4.231   5.378  14.845  0.5747 -0.1947 -3.1174
16199TIP3    H270013   4.125   5.470  14.901  2.2873  0.0614 -0.0588
16200TIP3   OH270014   1.907   1.980   0.245  0.0081  0.0939 -0.7146
16200TIP3    H170015   1.820   2.019   0.253 -0.1585 -0.6771  4.5964
16200TIP3    H270016   1.965   2.054   0.230 -1.1444  1.2499  0.3074
16201TIP3   OH270017   3.234   5.464   3.292 -0.2535 -0.4343 -0.3086
16201TIP3    H170018   3.145   5.431   3.284 -0.1876 -0.8467  0.5399
16201TIP3    H270019   3.276   5.405   3.354  0.3276  0.3328  0.0461
16202TIP3   OH270020   2.807   4.596   3.079 -1.0401 -0.2820  0.0849
16202TIP3    H170021   2.877   4.530   3.073  1.4878  2.2529 -0.8646
16202TIP3    H270022   2.735   4.550   3.122  0.5065 -3.6304 -0.5141
16203TIP3   OH270023   0.480   4.798   1.323 -0.0537 -0.6126 -0.0448
16203TIP3    H170024   0.485   4.890   1.348 -1.8283 -0.1123 -1.2953
16203TIP3    H270025   0.565   4.780   1.282  0.1582  0.6187 -0.1978
16204TIP3   OH270026   0.780   4.142  13.408  0.2266  0.1764  0.0578
16204TIP3    H170027   0.714   4.128  13.477 -0.3459  0.2655 -0.4620
16204TIP3    H270028   0.749   4.089  13.334  1.8718 -1.5284  0.4918
16205TIP3   OH270029   5.116   6.218  11.949 -0.3698  0.3188 -0.1016
16205TIP3    H170030   5.173   6.203  11.873 -0.2850 -0.1128  0.0428
16205TIP3    H270031   5.124   6.311  11.967  0.4502  0.2276  0.0417
16206TIP3   OH270032   2.545   5.167   2.641 -0.0600 -0.1858 -0.0942
16206TIP3    H170033   2.461   5.184   2.598  0.0519  1.0242  0.1403
16206TIP3    H270034   2.524   5.164   2.734  0.0281 -0.7724 -0.0877
16207TIP3   OH270035   1.932   1.166  10.557 -0.1303 -0.1423 -0.3457
16207TIP3    H170036   2.014   1.214  10.562  0.7814 -1.7148  0.8508
16207TIP3    H270037   1.957   1.077  10.531 -1.1762 -1.1322  1.7362
16208TIP3   OH270038   1.750   1.476   0.727  0.0099 -0.2375  0.5807
16208TIP3    H170039   1.761   1.465   0.821  1.2712 -1.0851  0.3562
16208TIP3    H270040   1.785   1.564   0.709  0.1919 -0.2564  0.8344
16209TIP3   OH270041   6.193   4.248  15.748  0.1250  0.5680  0.6140
16209TIP3    H170042   6.284   4.233  15.773 -0.3725 -1.7981  1.2538
16209TIP3    H270043   6.192   4.237  15.653  0.5791  1.1130  0.5403
16210TIP3   OH270044   5.087   4.475  10.435  0.4084 -0.1143  0.0523
16210TIP3    H170045   5.054   4.503  10.350 -0.7142  0.8844  0.7902
16210TIP3    H270046   5.011   4.477  10.493  0.2589 -4.3776  0.3053
16211TIP3   OH270047   2.121   0.660   2.978 -0.2117 -0.6725 -0.0820
16211TIP3    H170048   2.087   0.684   2.891  0.6599  1.0526  0.0014
16211TIP3    H270049   2.086   0.727   3.037  2.1575  0.3893  0.2231
16212TIP3   OH270050   0.285   1.940   2.751  0.4696 -0.2197 -0.3735
16212TIP3    H170051   0.317   2.030   2.744 -0.0540  0.0603  0.6323
16212TIP3    H270052   0.205   1.947   2.803  0.1143 -1.2075 -0.7589
16213TIP3   OH270053   3.213   4.735   4.796  0.1563 -0.5062  0.4328
16213TIP3    H170054   3.226   4.664   4.858 -0.5708 -1.2721 -0.2742
16213TIP3    H270055   3.300   4.748   4.756 -0.3751 -3.4988 -2.0330
16214TIP3   OH270056   2.185   5.837  10.500  0.5922  0.6859 -0.4271
16214TIP3    H170057   2.091   5.826  10.490  0.1127  0.7479  2.9101
16214TIP3    H270058   2.221   5.750  10.483 -0.0991  0.5524 -1.2808
16215TIP3   OH270059   4.789   4.540  13.401  0.3850  0.1793 -0.0406
16215TIP3    H170060   4.730   4.581  13.464 -1.7435 -1.3485 -0.8948
16215TIP3    H270061   4.865   4.598  13.397 -0.5335  1.6494  1.9820
16216TIP3   OH270062   1.231   0.716   2.826 -0.1268  0.3488 -0.6898
16216TIP3    H170063   1.305   0.768   2.793  0.3940  1.8072  2.4387
16216TIP3    H270064   1.268   0.660   2.893 -1.5986 -0.1336 -0.2375
16217TIP3   OH270065   3.851   0.752  14.886  0.0019  0.0410  0.4628
16217TIP3    H170066   3.922   0.700  14.850 -2.1466 -0.6241 -3.2938
16217TIP3    H270067   3.878   0.843  14.871  0.7771 -0.1549  0.6440
16218TIP3   OH270068   3.737   2.776  12.601  0.1836 -0.1620 -0.4857
16218TIP3    H170069   3.800   2.712  12.568  1.8127  0.7805  0.6604
16218TIP3    H270070   3.789   2.836  12.654 -1.8434  0.1270  1.3065
16219TIP3   OH270071   3.926   4.291   3.464 -0.1705 -0.2101  0.1917
16219TIP3    H170072   3.844   4.246   3.442  0.7227 -1.2684 -1.1252
16219TIP3    H270073   3.967   4.308   3.379 -0.3852  3.0491  0.6159
16220TIP3   OH270074   1.618   3.234   2.579  0.5405 -0.2374  0.1808
16220TIP3    H170075   1.524   3.240   2.561  0.6110  0.1775 -0.0523
16220TIP3    H270076   1.642   3.145   2.553  0.1511 -0.4476  0.5301
16221TIP3   OH270077   2.662   0.311   1.164  0.4258  0.1326  0.4869
16221TIP3    H170078   2.700   0.381   1.217 -0.6780 -0.2506  1.8687
16221TIP3    H270079   2.581   0.349   1.130  0.3042 -0.1601  0.4456
16222TIP3   OH270080   2.686   0.263  13.355  0.1571 -0.4393 -0.2239
16222TIP3    H170081   2.691   0.335  13.417  2.3311 -1.0717  0.4073
16222TIP3    H270082   2.631   0.197  13.398 -0.2242  0.0375  0.0252
16223TIP3   OH270083   4.923   4.765   4.699 -0.2768  0.3146 -0.6450
16223TIP3    H170084   4.973   4.707   4.642 -1.4313 -0.8473 -0.5351
16223TIP3    H270085   4.880   4.826   4.639 -0.3256  0.0360 -0.8940
16224TIP3   OH270086   6.531   0.593  11.985 -0.3185  0.1441  0.6804
16224TIP3    H170087   6.626   0.604  11.976 -0.1992 -1.0218  0.4440
16224TIP3    H270088   6.497   0.607  11.897 -0.4977  1.5943  0.9470
16225TIP3   OH270089   2.694   0.335   1.605 -0.2515 -0.4945  1.0509
16225TIP3    H170090   2.780   0.371   1.586 -0.5613  0.4672  1.4269
16225TIP3    H270091   2.711   0.248   1.641  0.5193 -0.6226  0.3978
16226TIP3   OH270092   0.784   5.724   6.090 -0.1581  0.2444 -0.1838
16226TIP3    H170093   0.781   5.808   6.046  0.4878  0.5674  0.3727
16226TIP3    H270094   0.753   5.742   6.179 -1.4999 -0.4087 -0.4875
16227TIP3   OH270095   0.736   0.694  14.548 -0.3836  0.5003 -0.3229
16227TIP3    H170096   0.645   0.688  14.519 -0.0285 -1.6281 -1.1667
16227TIP3    H270097   0.765   0.781  14.520 -2.2284  1.3462  0.2577
16228TIP3   OH270098   4.389   5.373  12.438 -0.3206 -0.2963 -0.2282
16228TIP3    H170099   4.432   5.443  12.486 -0.5564  0.9753 -1.7734
16228TIP3    H270100   4.388   5.299  12.498 -1.3479  1.4127  2.0258
16229TIP3   OH270101   3.769   6.223  13.142  0.0529 -0.0314 -0.3970
16229TIP3    H170102   3.688   6.184  13.175  1.4401 -2.2309  0.7172
16229TIP3    H270103   3.747   6.254  13.054 -1.9659 -0.6610 -0.1669
16230TIP3   OH270104   5.054   1.196  11.213 -0.2928 -0.7641 -0.5918
16230TIP3    H170105   5.030   1.278  11.169 -0.6069 -0.7577 -0.4114
16230TIP3    H270106   4.994   1.131  11.177 -1.0044 -0.6323  0.2911
16231TIP3   OH270107   5.539   3.761   2.606  0.0838  0.0023 -0.0363
16231TIP3    H170108   5.580   3.790   2.687 -1.4169 -0.0859  0.7824
16231TIP3    H270109   5.467   3.822   2.591  0.0033 -0.3031 -1.0252
16232TIP3   OH270110   3.495   1.469  15.644  0.0528 -0.1972 -0.1501
16232TIP3    H170111   3.499   1.522  15.724  0.0607  0.8832 -0.8451
16232TIP3    H270112   3.495   1.533  15.573 -2.2016 -1.0568 -0.9871
16233TIP3   OH270113   5.062   4.868  15.620 -0.1539 -0.2158  0.5493
16233TIP3    H170114   5.141   4.823  15.650  0.5503 -0.3382 -1.3354
16233TIP3    H270115   5.094   4.943  15.570 -1.1073 -1.3031 -1.8480
16234TIP3   OH270116   2.548   1.899   2.664 -0.0388  0.6208  0.1262
16234TIP3    H170117   2.631   1.903   2.616 -0.3444  1.0635 -0.3951
16234TIP3    H270118   2.571   1.921   2.754  1.2179 -4.0422  1.1997
16235TIP3   OH270119   1.781   0.403   4.322  0.0734  0.0371  0.5574
16235TIP3    H170120   1.799   0.461   4.396 -1.6596  1.0997  0.2182
16235TIP3    H270121   1.789   0.460   4.245 -2.2692  0.0781  0.2589
16236TIP3   OH270122   6.766   1.832  12.941 -0.5074 -0.2560 -0.3443
16236TIP3    H170123   6.711   1.756  12.920  0.5607 -1.0971 -0.1700
16236TIP3    H270124   6.705   1.906  12.940 -1.1566 -0.7075 -3.0134
16237TIP3   OH270125   1.716   1.969   6.699  0.5624 -0.0325 -0.4995
16237TIP3    H170126   1.739   2.062   6.698  0.8675  0.0110 -3.9965
16237TIP3    H270127   1.655   1.960   6.626  1.7478 -2.8305 -1.2517
16238TIP3   OH270128   3.825   5.829   3.915 -0.4739 -0.1243 -0.6403
16238TIP3    H170129   3.868   5.831   3.829  1.8553  1.1388  0.4478
16238TIP3    H270130   3.893   5.796   3.974 -2.1277 -1.2920  0.7145
16239TIP3   OH270131   0.752   5.929  14.142  0.3305  0.1486  0.4535
16239TIP3    H170132   0.794   5.993  14.084  0.5505 -1.7766 -1.6671
16239TIP3    H270133   0.662   5.959  14.150  0.8397  1.6239  0.9381
16240TIP3   OH270134   1.068   0.346   2.874 -0.0575  0.5570 -0.1645
16240TIP3    H170135   1.146   0.351   2.930 -0.1194  1.0677 -0.1154
16240TIP3    H270136   1.032   0.259   2.891  0.0445  0.6240  0.4393
16241TIP3   OH270137   0.684   3.600  10.824 -0.3883  0.5558 -0.1987
16241TIP3    H170138   0.747   3.540  10.863 -1.0283  0.4664  0.7107
16241TIP3    H270139   0.691   3.584  10.730 -0.0477 -0.4429 -0.0119
16242TIP3   OH270140   6.644   0.110   3.154 -0.1567 -0.0359  0.2572
16242TIP3    H170141   6.670   0.082   3.241 -0.6640  0.2402  0.5030
16242TIP3    H270142   6.704   0.064   3.095 -0.2340 -0.7447  0.7105
16243TIP3   OH270143   1.342   0.486   1.922 -0.1152  0.3226  0.4504
16243TIP3    H170144   1.269   0.542   1.894  0.0273 -0.4685 -1.7113
16243TIP3    H270145   1.299   0.411   1.964 -0.6339 -0.3318 -1.1608
16244TIP3   OH270146   2.572   2.963  10.851 -0.0461  0.2867 -0.6108
16244TIP3    H170147   2.494   2.964  10.907 -0.3743  0.1939 -1.0688
16244TIP3    H270148   2.541   2.989  10.765  0.2913 -0.5016 -0.9767
16245TIP3   OH270149   2.441   0.835   2.539 -0.6455 -0.3215 -0.2864
16245TIP3    H170150   2.396   0.870   2.463  0.0354 -0.3288 -0.7031
16245TIP3    H270151   2.478   0.752   2.509 -0.5340 -0.4160  0.1068
16246TIP3   OH270152   5.346   1.478  16.217 -0.1919 -0.0560 -0.0728
16246TIP3    H170153   5.340   1.390  16.253 -0.6372 -0.3249 -0.7849
16246TIP3    H270154   5.292   1.532  16.276 -1.8613 -0.6990 -0.9617
16247TIP3   OH270155   6.434   2.483  15.571  0.0682 -0.4332  0.1351
16247TIP3    H170156   6.477   2.402  15.545  1.6196  0.1607  0.7128
16247TIP3    H270157   6.395   2.516  15.490  3.1902  0.4200 -1.1929
16248TIP3   OH270158   0.988   6.348   5.291 -0.4574 -0.0806  0.3188
16248TIP3    H170159   1.054   6.282   5.268  0.8320  0.6851  1.6870
16248TIP3    H270160   0.969   6.393   5.208  0.4178 -0.5956 -0.1717
16249TIP3   OH270161   1.214   2.641   3.631 -0.6677 -0.1163  0.4649
16249TIP3    H170162   1.248   2.727   3.605 -1.7491  0.3614  0.5932
16249TIP3    H270163   1.269   2.616   3.705  0.9635 -0.4606 -0.7906
16250TIP3   OH270164   2.747   2.160  15.501  0.1237  0.1784 -0.0870
16250TIP3    H170165   2.806   2.096  15.461  2.2787 -0.6899  4.0263
16250TIP3    H270166   2.663   2.114  15.508  0.4833 -0.6383 -0.8992
16251TIP3   OH270167   1.898   3.978   4.970 -0.7866  0.3882  0.0116
16251TIP3    H170168   1.937   4.008   5.053  0.9301  0.0801 -0.6284
16251TIP3    H270169   1.923   4.046   4.907 -0.2980 -0.3783 -0.6413
16252TIP3   OH270170   5.057   3.578   0.211 -0.2691 -0.0656  0.0861
16252TIP3    H170171   5.078   3.655   0.157 -0.5730  0.6750  0.9989
16252TIP3    H270172   4.988   3.608   0.270 -0.6428 -1.1532  0.2265
16253TIP3   OH270173   0.718   1.742  14.547 -0.1767 -0.3113 -0.0299
16253TIP3    H170174   0.717   1.686  14.624  0.6232  0.2092  0.3726
16253TIP3    H270175   0.743   1.684  14.475 -1.6810 -0.9642 -0.0618
16254TIP3   OH270176   2.903   2.504  11.746  0.7803  0.1790  0.1062
16254TIP3    H170177   2.868   2.487  11.658  1.8847  2.1093 -0.7783
16254TIP3    H270178   2.924   2.597  11.746  1.1358  0.1554  2.3326
16255TIP3   OH270179   1.053   0.076   2.608  0.5670  0.0930  0.2856
16255TIP3    H170180   1.056   0.079   2.704 -0.5860  1.5724  0.3138
16255TIP3    H270181   1.116   0.142   2.579  1.4510 -0.8568 -0.0167
16256TIP3   OH270182   4.677   2.335   4.041 -0.2530 -0.1686  0.5576
16256TIP3    H170183   4.671   2.429   4.023  0.4631 -0.1104  0.6019
16256TIP3    H270184   4.738   2.302   3.976  0.4357 -0.3872  1.2979
16257TIP3   OH270185   1.930   0.091  15.052  0.0637 -0.4342 -0.7891
16257TIP3    H170186   1.889   0.135  14.977  1.4414  1.1178 -0.7109
16257TIP3    H270187   1.949   0.163  15.113  0.3111 -1.4773  0.3904
16258TIP3   OH270188   3.971   5.416  15.286 -0.2652 -0.6337  0.1176
16258TIP3    H170189   3.933   5.478  15.348  0.5389  0.6381 -0.6142
16258TIP3    H270190   4.037   5.369  15.338  1.9212  1.8815 -0.1541
16259TIP3   OH270191   2.649   2.875  10.375  0.1250  0.3172  0.2640
16259TIP3    H170192   2.592   2.839  10.307  0.2224 -0.0074  0.3512
16259TIP3    H270193   2.735   2.837  10.357  0.6093  1.7609 -0.6053
16260TIP3   OH270194   3.362   5.437  11.660 -0.2323 -0.1034  0.7021
16260TIP3    H170195   3.376   5.532  11.661 -1.3366  0.0877  2.2773
16260TIP3    H270196   3.369   5.413  11.568  2.3330  1.1136  0.4760
16261TIP3   OH270197   6.098   4.521   0.082 -0.1747 -0.2317  0.9468
16261TIP3    H170198   6.125   4.471   0.159  1.7888  1.7058  1.6488
16261TIP3    H270199   6.127   4.469   0.007  2.7788  0.2034  1.6545
16262TIP3   OH270200   6.167   0.593  12.401 -0.1146  0.2434 -0.4381
16262TIP3    H170201   6.127   0.516  12.359 -1.0048  0.8614 -0.7764
16262TIP3    H270202   6.236   0.620  12.340 -0.9324  0.7146 -1.1882
16263TIP3   OH270203   6.260   6.265  15.271  0.2554  0.0523  0.3378
16263TIP3    H170204   6.172   6.230  15.282  0.6049 -0.7400  0.7176
16263TIP3    H270205   6.312   6.221  15.339  1.2177 -0.5267 -0.7272
16264TIP3   OH270206   1.802   2.215  14.405 -0.2298  0.4738  0.3328
16264TIP3    H170207   1.822   2.296  14.451  0.7651 -0.8758  2.4607
16264TIP3    H270208   1.887   2.176  14.387 -0.7076 -0.9221  0.9662
16265TIP3   OH270209   6.548   3.901   0.707 -0.2751  0.5994  0.5026
16265TIP3    H170210   6.636   3.924   0.677 -0.1289 -0.0847  0.3850
16265TIP3    H270211   6.540   3.942   0.793  0.8582 -0.8354  1.3445
16266TIP3   OH270212   6.216   6.499  16.228  0.1655 -0.1026 -0.0423
16266TIP3    H170213   6.162   6.420  16.223  0.5949 -0.5817  1.8735
16266TIP3    H270214   6.305   6.466  16.234  0.3483  0.5048  0.7667
16267TIP3   OH270215   1.837   4.626   6.118 -0.3220  0.2479  0.0416
16267TIP3    H170216   1.789   4.554   6.077 -0.5971 -0.0206  0.8182
16267TIP3    H270217   1.902   4.583   6.174  1.3842  0.5906 -1.5563
16268TIP3   OH270218   5.820   5.283  16.002  0.3835  0.1274  0.0308
16268TIP3    H170219   5.904   5.258  15.964 -0.8678  0.0611 -2.9700
16268TIP3    H270220   5.770   5.317  15.928 -1.8436  1.2474  1.9392
16269TIP3   OH270221   0.466   4.940  15.660  0.5420 -0.6584  0.5803
16269TIP3    H170222   0.538   4.891  15.621 -0.4584 -1.4707 -0.3048
16269TIP3    H270223   0.413   4.969  15.586  1.3842  2.3529  0.9939
16270TIP3   OH270224   4.361   2.387  13.355 -0.9681 -0.0444 -0.0918
16270TIP3    H170225   4.416   2.309  13.363 -0.4539  0.1373 -1.5907
16270TIP3    H270226   4.285   2.358  13.305 -1.7715 -0.0486  1.1024
16271TIP3   OH270227   2.291   4.802   0.375  0.4215  0.2449 -0.2070
16271TIP3    H170228   2.207   4.775   0.412  0.4886  0.4153  0.0767
16271TIP3    H270229   2.268   4.857   0.300  0.2870 -0.5161 -0.7292
16272TIP3   OH270230   5.722   4.722  16.999  0.9463 -0.4262  0.3781
16272TIP3    H170231   5.656   4.771  17.048  1.2398 -1.0647  1.4392
16272TIP3    H270232   5.747   4.781  16.927  0.8127  0.7145  1.2283
16273TIP3   OH270233   4.607   1.171  16.671  0.0526 -0.1283  0.1413
16273TIP3    H170234   4.546   1.104  16.700  1.4054 -0.7354  1.7501
16273TIP3    H270235   4.555   1.251  16.668 -0.8374 -0.6286  1.4835
16274TIP3   OH270236   4.455   3.932   2.238  0.4251  0.2457  0.1195
16274TIP3    H170237   4.364   3.953   2.260  0.8199  0.2449  1.9768
16274TIP3    H270238   4.506   3.970   2.310  1.8087 -0.5643 -0.3930
16275TIP3   OH270239   0.803   5.190   0.539 -0.2381  0.0621 -0.0533
16275TIP3    H170240   0.721   5.172   0.585  1.2095  0.9834  3.1429
16275TIP3    H270241   0.828   5.106   0.501 -1.4770 -0.8006  0.9378
16276TIP3   OH270242   2.172   5.286   5.589  0.2349  0.8127  0.0984
16276TIP3    H170243   2.114   5.359   5.610 -0.3844  0.2423  0.3866
16276TIP3    H270244   2.139   5.252   5.506  0.4496  0.7704  0.0271
16277TIP3   OH270245   0.596   2.293  10.934 -0.6411 -0.3525 -0.8165
16277TIP3    H170246   0.551   2.312  10.852 -1.0937 -1.5014 -0.8391
16277TIP3    H270247   0.570   2.204  10.956 -1.1300  0.2028  0.9796
16278TIP3   OH270248   6.079   3.244   2.508  0.0941  0.2126  0.4196
16278TIP3    H170249   6.115   3.162   2.474 -2.0545 -0.7261  0.2260
16278TIP3    H270250   6.021   3.218   2.580 -0.1450  1.6203  0.7785
16279TIP3   OH270251   1.402   5.853  13.127  0.3180  0.0913  0.7391
16279TIP3    H170252   1.445   5.798  13.193 -0.2084  0.3731  1.3290
16279TIP3    H270253   1.362   5.790  13.066  1.2368 -0.1705  0.3852
16280TIP3   OH270254   6.632   3.050  16.960  0.6179  0.2744 -0.2623
16280TIP3    H170255   6.654   3.048  17.054  0.6063  2.1757 -0.1828
16280TIP3    H270256   6.668   2.969  16.926 -0.9655 -1.3697  1.7221
16281TIP3   OH270257   0.990   5.022   5.928  0.5254  0.3617  0.2393
16281TIP3    H170258   1.052   5.019   5.855  0.0947 -0.5669 -0.1151
16281TIP3    H270259   1.041   5.054   6.002  1.1767  0.5422 -0.2756
16282TIP3   OH270260   4.624   3.301   2.635 -0.1371  0.0192 -0.6997
16282TIP3    H170261   4.704   3.323   2.682  0.2549 -0.3504 -1.1772
16282TIP3    H270262   4.654   3.283   2.545 -0.8005  0.2327 -0.9670
16283TIP3   OH270263   2.041   3.937   3.339  0.4018 -0.3638  0.2975
16283TIP3    H170264   1.967   3.977   3.385  2.7297  2.2657  2.0999
16283TIP3    H270265   2.043   3.847   3.371 -1.8809 -0.4642  0.3141
16284TIP3   OH270266   3.032   5.222  12.642 -0.0437 -0.0724  0.0263
16284TIP3    H170267   2.977   5.194  12.715 -1.5596 -0.7513 -1.3235
16284TIP3    H270268   3.120   5.229  12.680 -0.9589  0.6930  2.1598
16285TIP3   OH270269   5.577   0.633   4.814  0.9571 -0.0896  0.4396
16285TIP3    H170270   5.665   0.632   4.776  1.0462  0.3346  0.6191
16285TIP3    H270271   5.553   0.541   4.823  1.5704 -0.2185  0.8202
16286TIP3   OH270272   2.145   5.374  16.384 -0.5336  0.0120 -0.2793
16286TIP3    H170273   2.235   5.353  16.411  0.4743  2.3781 -1.4250
16286TIP3    H270274   2.134   5.466  16.408 -1.2449  0.8789 -3.3998
16287TIP3   OH270275   6.403   6.481   5.660 -0.5084 -0.1010 -0.7502
16287TIP3    H170276   6.393   6.394   5.698  0.1468 -1.4929 -3.4772
16287TIP3    H270277   6.497   6.497   5.660 -0.5569  0.2024 -1.0538
16288TIP3   OH270278   0.460   4.742  14.583  0.1837  0.1353  0.1790
16288TIP3    H170279   0.404   4.818  14.570  0.3746  0.8721  3.0303
16288TIP3    H270280   0.549   4.775  14.568  0.1877  0.1783  0.2985
16289TIP3   OH270281   1.576   0.626   2.115  0.8233 -0.3384  0.1114
16289TIP3    H170282   1.551   0.583   2.197  1.0581  0.3494  0.5531
16289TIP3    H270283   1.509   0.598   2.052  0.5603 -0.7650  0.5711
16290TIP3   OH270284   2.806   4.976  16.050  0.5379 -0.1152  0.2519
16290TIP3    H170285   2.826   5.060  16.091 -0.6947  1.3512 -1.9381
16290TIP3    H270286   2.743   4.935  16.109 -0.8388  1.7222  0.1550
16291TIP3   OH270287   1.125   0.961  13.253 -0.4391 -0.4974  0.3040
16291TIP3    H170288   1.132   1.056  13.261  0.4961 -0.3918 -1.3277
16291TIP3    H270289   1.042   0.940  13.296 -0.9570  1.1279  0.1821
16292TIP3   OH270290   0.473   1.509   3.601  0.4733  0.2633 -0.1560
16292TIP3    H170291   0.527   1.429   3.602 -0.1198 -0.1643 -1.0272
16292TIP3    H270292   0.508   1.560   3.528  0.3687  0.4572 -0.0696
16293TIP3   OH270293   6.400   4.559  10.442  0.1021  0.3029  0.2566
16293TIP3    H170294   6.373   4.512  10.521  1.8100 -3.3475 -1.1311
16293TIP3    H270295   6.495   4.545  10.436  0.0213  0.3464 -2.4763
16294TIP3   OH270296   1.720   6.653  16.681 -0.1039  0.2971  0.2457
16294TIP3    H170297   1.654   6.656  16.611  0.7766 -0.6991 -0.6549
16294TIP3    H270298   1.782   6.722  16.657 -0.5211  0.8830  0.8128
16295TIP3   OH270299   0.226   2.804  10.458  0.0278  0.4346  0.5846
16295TIP3    H170300   0.198   2.719  10.424 -0.0655  0.1265  1.3952
16295TIP3    H270301   0.316   2.790  10.489  0.1739  0.7514  0.3108
16296TIP3   OH270302   0.349   2.582  16.472 -0.1343  0.9879 -0.0257
16296TIP3    H170303   0.275   2.569  16.411 -0.0374  2.3393 -0.4602
16296TIP3    H270304   0.330   2.666  16.514  0.7825  0.9791  0.4071
16297TIP3   OH270305   2.157   6.692  15.856 -0.0307 -0.4947 -0.1996
16297TIP3    H170306   2.198   6.619  15.810  1.4949  0.9420 -1.2450
16297TIP3    H270307   2.126   6.750  15.786 -1.5219 -0.2585  0.6078
16298TIP3   OH270308   5.177   2.873  12.790 -0.3613  0.0419  0.1151
16298TIP3    H170309   5.150   2.822  12.714 -0.4891  1.1708 -0.6311
16298TIP3    H270310   5.131   2.832  12.863  1.1653 -2.1858 -0.0847
16299TIP3   OH270311   1.813   5.015  13.416 -0.3514 -0.4505 -0.3055
16299TIP3    H170312   1.803   4.957  13.491 -2.7323  0.0902 -0.1347
16299TIP3    H270313   1.739   4.995  13.359 -0.8999  1.9522 -0.5373
16300TIP3   OH270314   3.358   6.574   2.612  0.0805 -0.3389 -0.1711
16300TIP3    H170315   3.388   6.584   2.703 -0.8276  0.4069  0.0686
16300TIP3    H270316   3.266   6.599   2.615 -0.1350 -0.9612 -1.1850
16301TIP3   OH270317   6.122   4.784  12.325 -0.0842 -0.4462 -0.2019
16301TIP3    H170318   6.165   4.839  12.259 -0.1690 -0.8979 -0.6428
16301TIP3    H270319   6.087   4.710  12.275  0.0473 -0.9100  0.3840
16302TIP3   OH270320   1.246   3.544   4.909  0.0506 -0.1862 -0.2762
16302TIP3    H170321   1.228   3.635   4.884 -0.7962 -0.4103 -0.4993
16302TIP3    H270322   1.295   3.551   4.991  2.4660  0.5628 -1.6626
16303TIP3   OH270323   1.892   1.612   6.004 -0.3433 -0.1361  0.3211
16303TIP3    H170324   1.831   1.641   6.071 -1.2076 -0.3260 -0.3666
16303TIP3    H270325   1.979   1.631   6.040 -0.8207  1.0035  0.9185
16304TIP3   OH270326   4.757   0.713  16.303  0.0965 -0.0244 -0.1130
16304TIP3    H170327   4.763   0.809  16.311  1.3606 -0.0369 -0.6752
16304TIP3    H270328   4.671   0.697  16.264 -0.7400  0.7813  1.2959
16305TIP3   OH270329   2.037   2.775  16.234  0.0192  0.2535 -0.3762
16305TIP3    H170330   2.014   2.864  16.262  1.0134  0.4909 -0.2809
16305TIP3    H270331   2.034   2.779  16.139  0.3716  0.4806 -0.3806
16306TIP3   OH270332   0.751   1.220  10.919  0.0152 -0.2650  0.4648
16306TIP3    H170333   0.715   1.256  10.837 -1.5215  2.9184  2.3655
16306TIP3    H270334   0.735   1.126  10.912 -1.0725  0.0194 -2.4131
16307TIP3   OH270335   2.528   5.282   4.016 -0.1859  0.1222  0.4671
16307TIP3    H170336   2.507   5.189   4.003 -1.4021  0.2106  1.5877
16307TIP3    H270337   2.532   5.293   4.111  2.9865  0.6221  0.3598
16308TIP3   OH270338   3.938   3.886   3.828  0.4117  0.2513 -0.2622
16308TIP3    H170339   3.972   3.805   3.866 -0.2336 -0.7525 -1.7439
16308TIP3    H270340   3.915   3.863   3.739 -0.8807  1.7978 -0.3699
16309TIP3   OH270341   3.324   0.904  13.387 -0.1182 -0.2794 -0.1486
16309TIP3    H170342   3.263   0.855  13.331 -0.1874  0.9229 -1.1801
16309TIP3    H270343   3.315   0.863  13.473  0.3523 -2.5220 -1.0851
16310TIP3   OH270344   5.903   5.015   5.632 -0.0978 -0.6122  0.6258
16310TIP3    H170345   5.952   5.041   5.554  0.6764  0.4065  1.4192
16310TIP3    H270346   5.828   5.075   5.634 -0.1124 -0.6313  0.6561
16311TIP3   OH270347   6.247   5.345  14.565  0.1846  0.3672 -0.0226
16311TIP3    H170348   6.155   5.355  14.588  0.4851  0.2426  1.3371
16311TIP3    H270349   6.279   5.435  14.553 -0.0796  0.4141 -0.3821
16312TIP3   OH270350   2.695   0.773  14.487 -0.3233  0.1947 -0.2296
16312TIP3    H170351   2.715   0.862  14.459 -3.9327  1.0479 -0.5998
16312TIP3    H270352   2.706   0.774  14.582  1.1542  0.5019 -0.3715
16313TIP3   OH270353   1.834   5.333  11.693 -0.1374 -0.2221  0.2105
16313TIP3    H170354   1.865   5.419  11.722  4.3557 -1.1806 -1.0401
16313TIP3    H270355   1.845   5.277  11.770  2.8717 -0.8300 -0.5587
16314TIP3   OH270356   2.233   2.392  13.073 -0.1774 -0.3930 -0.2551
16314TIP3    H170357   2.285   2.338  13.133  0.8530  0.6326 -0.1850
16314TIP3    H270358   2.168   2.332  13.036 -1.4777 -0.9017  2.5644
16315TIP3   OH270359   3.586   1.653  13.980 -0.8528  0.2984 -0.0030
16315TIP3    H170360   3.611   1.744  13.963 -1.0325  0.3789  0.1673
16315TIP3    H270361   3.560   1.652  14.072  1.3485 -0.3889  0.6917
16316TIP3   OH270362   0.766   0.210  13.302 -0.5276 -0.1753 -0.2443
16316TIP3    H170363   0.723   0.239  13.221  0.3382  0.0217 -0.6575
16316TIP3    H270364   0.831   0.146  13.272 -0.3422 -0.2512  0.3168
16317TIP3   OH270365   3.675   5.294  14.827  0.2349 -0.4066  0.3530
16317TIP3    H170366   3.633   5.208  14.827 -0.1338 -0.2275  0.2124
16317TIP3    H270367   3.744   5.287  14.893  0.0227 -0.7218  0.5455
16318TIP3   OH270368   4.156   5.074   4.091  0.3456  0.0148  0.0614
16318TIP3    H170369   4.141   5.095   3.999 -1.0510  0.4618  0.3776
16318TIP3    H270370   4.113   5.145   4.139 -1.8608 -1.9466  1.1152
16319TIP3   OH270371   3.104   1.990  15.507 -0.1884 -0.1336 -0.4365
16319TIP3    H170372   3.104   2.004  15.602  1.5113 -1.6606 -0.1551
16319TIP3    H270373   3.018   1.952  15.489  0.3608 -2.2422  0.9645
16320TIP3   OH270374   0.892   5.535   4.253  0.4454  0.2173  0.0569
16320TIP3    H170375   0.864   5.621   4.222  1.3386  1.2694  1.9911
16320TIP3    H270376   0.844   5.521   4.334  2.3143  0.1891  1.2359
16321TIP3   OH270377   1.261   2.232   1.495 -0.0272 -0.4403  0.0255
16321TIP3    H170378   1.187   2.172   1.496 -1.1049  0.7231 -2.2619
16321TIP3    H270379   1.249   2.287   1.573 -1.0896 -0.8358  0.1562
16322TIP3   OH270380   2.132   0.240  12.595 -0.4084  0.0509 -0.4482
16322TIP3    H170381   2.113   0.296  12.671  0.0915 -3.4360  2.5883
16322TIP3    H270382   2.186   0.293  12.538  1.9355  2.0667  3.2109
16323TIP3   OH270383   0.252   2.462  16.795 -0.1219 -0.2958 -0.1784
16323TIP3    H170384   0.181   2.498  16.847  0.3649  0.1408  0.1950
16323TIP3    H270385   0.232   2.488  16.705 -0.1019  0.3708  0.0077
16324TIP3   OH270386   6.582   5.087   3.108 -0.1517 -0.2908 -0.2336
16324TIP3    H170387   6.555   5.140   3.182 -1.0893  1.0817 -1.5050
16324TIP3    H270388   6.591   4.998   3.143 -1.8944  0.0674  1.2305
16325TIP3   OH270389   1.156   3.784   1.352 -0.2876 -0.7133 -0.7358
16325TIP3    H170390   1.112   3.821   1.275 -0.7980  0.0912 -0.0784
16325TIP3    H270391   1.205   3.857   1.389 -0.4506 -0.9560 -0.0184
16326TIP3   OH270392   2.530   1.315   5.028  0.2168 -0.1357 -0.0364
16326TIP3    H170393   2.523   1.219   5.032  0.5324 -0.1203  1.9788
16326TIP3    H270394   2.615   1.334   5.067 -0.2824  1.0106  0.5371
16327TIP3   OH270395   6.711   4.386   0.281  0.0286 -0.5623 -0.1468
16327TIP3    H170396   6.665   4.430   0.210  0.4389  1.1551  0.6087
16327TIP3    H270397   6.643   4.342   0.331 -0.3672 -0.9726 -1.0267
16328TIP3   OH270398   1.621   5.249  14.646 -0.0494 -0.1141  0.3849
16328TIP3    H170399   1.660   5.239  14.733  0.9158 -0.6391 -0.0971
16328TIP3    H270400   1.549   5.185  14.645 -0.8587  0.7453  1.2165
16329TIP3   OH270401   3.788   3.327  12.636  0.3806  0.4668 -0.2742
16329TIP3    H170402   3.881   3.308  12.649  0.5036  1.3615  0.2247
16329TIP3    H270403   3.743   3.249  12.668  0.8914  0.7878  1.3387
16330TIP3   OH270404   0.648   5.768   2.021 -0.1458  0.3889  0.7338
16330TIP3    H170405   0.618   5.763   1.930  0.5221 -0.5166  0.5488
16330TIP3    H270406   0.710   5.841   2.022  0.4745 -0.1139  0.2579
16331TIP3   OH270407   6.684   2.053  15.301 -0.6809  0.4228  0.3470
16331TIP3    H170408   6.628   2.130  15.309 -2.3821 -0.8612  1.3493
16331TIP3    H270409   6.733   2.068  15.220 -0.4706  2.8228  0.8430
16332TIP3   OH270410   3.015   1.018   1.968 -0.0739 -0.0704 -0.4317
16332TIP3    H170411   3.024   0.962   2.046  0.8627  0.6942  0.0402
16332TIP3    H270412   2.924   1.045   1.968 -0.2600 -0.6730 -0.0067
16333TIP3   OH270413   4.489   3.164  10.359 -0.6787 -0.6006  0.0828
16333TIP3    H170414   4.513   3.219  10.433  1.4583 -1.7088  0.2732
16333TIP3    H270415   4.568   3.160  10.305 -1.5107 -1.6102 -1.1223
16334TIP3   OH270416   5.573   2.630   2.420 -0.2939  0.5801  0.3099
16334TIP3    H170417   5.612   2.652   2.504  0.6513 -1.4855  0.4630
16334TIP3    H270418   5.510   2.561   2.441 -0.1104  0.1077 -0.6580
16335TIP3   OH270419   6.197   5.675  17.115 -0.4686  0.0599 -0.0854
16335TIP3    H170420   6.171   5.597  17.164  1.5590 -0.1936  0.6903
16335TIP3    H270421   6.182   5.748  17.176 -0.8165  0.0880 -0.2040
16336TIP3   OH270422   1.969   2.389  15.848 -0.0799 -0.0350 -0.8447
16336TIP3    H170423   1.900   2.412  15.911 -0.4186 -0.9042 -0.8909
16336TIP3    H270424   2.015   2.316  15.888 -0.0978 -0.3930 -1.4597
16337TIP3   OH270425   1.239   0.793   0.067 -0.4478  0.3937 -0.9621
16337TIP3    H170426   1.271   0.817   0.155 -0.9758  0.2344 -0.7238
16337TIP3    H270427   1.190   0.870   0.038 -0.3528  0.4093 -1.0798
16338TIP3   OH270428   3.994   5.401   0.708 -0.6571 -0.1315 -0.2547
16338TIP3    H170429   3.930   5.371   0.644 -0.6369  3.3189 -2.1327
16338TIP3    H270430   3.942   5.438   0.779 -0.7402 -0.1707 -0.2957
16339TIP3   OH270431   1.543   6.527  15.682 -0.3432  0.0408  0.2983
16339TIP3    H170432   1.491   6.549  15.759  0.4376  0.5565  0.6979
16339TIP3    H270433   1.622   6.581  15.691 -2.0017  3.5393 -3.0484
16340TIP3   OH270434   3.087   1.732   3.899 -0.7857 -0.2167 -0.1180
16340TIP3    H170435   3.002   1.775   3.913 -0.8415 -0.7191  1.3040
16340TIP3    H270436   3.085   1.657   3.958  1.4869  0.9595  1.6056
16341TIP3   OH270437   3.974   4.899   2.968  0.0507  0.0580 -0.3851
16341TIP3    H170438   4.062   4.864   2.950 -1.2067 -2.9838 -1.3065
16341TIP3    H270439   3.982   4.943   3.052  2.4872  0.0190 -0.5244
16342TIP3   OH270440   4.443   1.915  13.585 -0.0285  0.5292 -0.1489
16342TIP3    H170441   4.355   1.882  13.566 -0.0938  0.6890 -0.1237
16342TIP3    H270442   4.474   1.950  13.502 -0.6886  2.0992  0.2305
16343TIP3   OH270443   1.051   2.233   4.292 -0.0540  0.0995 -0.3802
16343TIP3    H170444   1.091   2.198   4.372  0.1406 -0.2692 -0.6400
16343TIP3    H270445   1.116   2.291   4.255 -0.7169  1.4788  0.5361
16344TIP3   OH270446   4.913   0.877   5.241  0.7058  0.4302  0.0314
16344TIP3    H170447   4.872   0.949   5.289 -2.5953 -1.1012 -0.2279
16344TIP3    H270448   4.864   0.799   5.268  2.4202 -1.3545 -1.6524
16345TIP3   OH270449   3.634   2.119  16.770 -0.3431 -0.7632 -0.5517
16345TIP3    H170450   3.557   2.128  16.825 -1.2913  1.3560 -2.0711
16345TIP3    H270451   3.682   2.046  16.807 -1.1899  0.1774  2.7178
16346TIP3   OH270452   2.034   6.373   2.461  0.3138  0.3109 -0.2203
16346TIP3    H170453   2.034   6.291   2.412  0.3459 -1.0775  1.9672
16346TIP3    H270454   1.969   6.428   2.417 -1.2366 -1.6694 -0.5313
16347TIP3   OH270455   0.940   1.577   2.476  0.0493 -0.0546 -0.0858
16347TIP3    H170456   1.021   1.628   2.480  0.0387 -0.1257  1.4091
16347TIP3    H270457   0.874   1.632   2.516 -0.5536 -0.2076 -0.8374
16348TIP3   OH270458   2.065   4.271  15.764 -0.0435 -0.7887  0.5531
16348TIP3    H170459   2.004   4.315  15.823 -1.0548 -0.1992 -0.8818
16348TIP3    H270460   2.011   4.204  15.721  0.7700 -1.4442  0.5323
16349TIP3   OH270461   5.083   4.661   2.444  0.0069  0.1405  0.3193
16349TIP3    H170462   5.166   4.695   2.409  0.5317 -1.7051 -0.3288
16349TIP3    H270463   5.016   4.715   2.402  0.8261  1.3977  0.5431
16350TIP3   OH270464   3.089   0.877  13.727  0.1233 -0.1082 -0.2934
16350TIP3    H170465   3.005   0.917  13.704  0.0480 -1.3988 -2.4998
16350TIP3    H270466   3.083   0.862  13.822 -1.6366  0.8732 -0.2001
16351TIP3   OH270467   6.513   3.419   3.194 -0.0433  0.3737  0.2019
16351TIP3    H170468   6.530   3.490   3.255  0.2608 -0.2765  0.8865
16351TIP3    H270469   6.597   3.405   3.149  0.6417 -1.2067  1.8542
16352TIP3   OH270470   2.621   4.037   4.613 -0.3568  0.2147 -0.4836
16352TIP3    H170471   2.535   4.047   4.570  0.2180 -1.4694 -2.1926
16352TIP3    H270472   2.684   4.049   4.543  0.7123 -0.9045  0.2523
16353TIP3   OH270473   0.656   6.734   0.500  0.4707 -0.4550  0.1500
16353TIP3    H170474   0.622   6.702   0.416 -0.9136 -1.0575  0.9121
16353TIP3    H270475   0.751   6.720   0.494  0.7665  1.6593 -2.2167
16354TIP3   OH270476   4.635   5.110  17.054  0.0133 -0.0857 -0.0500
16354TIP3    H170477   4.595   5.190  17.090 -1.3252 -0.0653 -1.4645
16354TIP3    H270478   4.692   5.078  17.124 -2.3679 -0.0143  2.0816
16355TIP3   OH270479   3.301   5.665   5.432 -0.5048  0.6614 -0.1577
16355TIP3    H170480   3.217   5.619   5.439 -0.1737 -0.0841 -0.9168
16355TIP3    H270481   3.366   5.598   5.453 -0.1109  1.3815  0.9990
16356TIP3   OH270482   4.017   1.773   0.974 -0.6631  0.0484  0.1946
16356TIP3    H170483   3.977   1.852   0.938  0.9311  0.3927 -0.9176
16356TIP3    H270484   3.999   1.706   0.908 -2.8023 -0.8180  1.5473
16357TIP3   OH270485   1.407   0.340   3.455  0.2050  0.0028 -1.0223
16357TIP3    H170486   1.495   0.339   3.491 -0.1310 -2.5250 -0.0535
16357TIP3    H270487   1.354   0.383   3.523  0.1909 -1.4554 -0.0612
16358TIP3   OH270488   2.892   0.827  15.633  0.1137 -0.1025  0.2519
16358TIP3    H170489   2.961   0.887  15.605  0.0514 -0.0838  0.1387
16358TIP3    H270490   2.825   0.883  15.672 -0.9797  0.1640 -1.8557
16359TIP3   OH270491   3.690   1.722   0.018 -0.3659  0.7304  0.0710
16359TIP3    H170492   3.743   1.645   0.034 -1.5620 -0.5486 -1.7704
16359TIP3    H270493   3.692   1.734  -0.077  0.0013  3.1422  0.3253
16360TIP3   OH270494   2.368   3.278   6.330  0.1076  0.6999  0.5059
16360TIP3    H170495   2.452   3.245   6.296 -1.0505 -0.9341 -0.9189
16360TIP3    H270496   2.304   3.251   6.265 -1.3222  3.6729  0.5029
16361TIP3   OH270497   2.563   2.171  16.730  0.2073  0.3453 -0.2116
16361TIP3    H170498   2.484   2.123  16.756  0.8067 -0.2862  0.4663
16361TIP3    H270499   2.636   2.114  16.756  0.8837 -0.0529 -2.6571
16362TIP3   OH270500   1.789   4.407   0.979 -0.3592 -0.2429  0.1856
16362TIP3    H170501   1.783   4.502   0.982  1.0802 -0.0951 -0.5059
16362TIP3    H270502   1.781   4.386   0.885  1.8592 -0.5561  0.0272
16363TIP3   OH270503   6.312   6.249  13.242 -0.2203  0.0336 -0.3620
16363TIP3    H170504   6.383   6.198  13.283  0.0644 -0.0677 -0.9742
16363TIP3    H270505   6.278   6.192  13.173  0.8547  1.0668 -1.8185
16364TIP3   OH270506   0.804   2.512   0.804  0.0045 -0.2534  0.0143
16364TIP3    H170507   0.827   2.533   0.894 -0.3057 -0.9117  0.2570
16364TIP3    H270508   0.782   2.596   0.764 -0.0585  0.0157  0.6122
16365TIP3   OH270509   6.576   2.429  13.744 -0.0122 -0.0434  0.5326
16365TIP3    H170510   6.609   2.340  13.751  1.8167  0.6940  2.1231
16365TIP3    H270511   6.576   2.462  13.834 -0.6037  1.5773 -0.0246
16366TIP3   OH270512   0.914   0.625  14.354 -0.1697  0.5304  0.5056
16366TIP3    H170513   0.869   0.640  14.437  0.7203  0.2749  1.0602
16366TIP3    H270514   0.900   0.532  14.336 -1.6822  0.9223 -0.4595
16367TIP3   OH270515   1.623   3.955  16.652 -0.4395 -0.3363 -0.1209
16367TIP3    H170516   1.602   3.864  16.633  0.9563 -0.8112  0.4688
16367TIP3    H270517   1.615   4.000  16.567  0.8340 -1.4145 -0.8447
16368TIP3   OH270518   4.346   0.347  17.093  0.5596  0.5143 -0.2554
16368TIP3    H170519   4.382   0.259  17.080  0.3345  0.5470 -1.1790
16368TIP3    H270520   4.347   0.386  17.006  0.2209  1.2654  0.0683
16369TIP3   OH270521   5.591   6.009  15.913 -0.7379  0.1768 -0.0459
16369TIP3    H170522   5.562   6.050  15.994  0.1411  2.5643 -0.8736
16369TIP3    H270523   5.675   5.968  15.935 -1.3029 -0.6618  0.6202
16370TIP3   OH270524   2.186   5.081   5.313  0.5944 -0.1516 -0.5387
16370TIP3    H170525   2.280   5.064   5.307  0.3401 -1.6801 -0.6837
16370TIP3    H270526   2.171   5.159   5.259  2.1279  1.7272  1.5620
16371TIP3   OH270527   0.702   3.747   0.263 -0.1929 -0.3480  0.4124
16371TIP3    H170528   0.772   3.730   0.326 -1.6806 -1.0618  1.9305
16371TIP3    H270529   0.713   3.679   0.197  2.4082  1.3886 -1.1400
16372TIP3   OH270530   5.736   1.679  10.925 -0.2449  0.4490  0.1045
16372TIP3    H170531   5.786   1.701  11.003  0.0127  1.2892 -0.2910
16372TIP3    H270532   5.685   1.758  10.906 -0.0320  0.3802 -0.7805
16373TIP3   OH270533   3.557   5.434   4.546  0.6474  0.5741  0.8342
16373TIP3    H170534   3.650   5.455   4.556  0.8827 -1.3080  4.0269
16373TIP3    H270535   3.514   5.486   4.614 -0.9903  2.6943 -1.6516
16374TIP3   OH270536   0.225   3.420  10.519  0.3342 -0.0796  0.4542
16374TIP3    H170537   0.149   3.451  10.470 -0.0628 -0.5632  0.7621
16374TIP3    H270538   0.265   3.354  10.462 -0.1357 -0.6523  0.7802
16375TIP3   OH270539   5.484   3.445   0.016 -0.1875  0.1120 -0.4382
16375TIP3    H170540   5.564   3.488  -0.012  0.1103  0.3310  0.6916
16375TIP3    H270541   5.479   3.462   0.110 -0.6885 -1.3106 -0.1767
16376TIP3   OH270542   4.972   1.232  11.772  0.1492 -0.4352 -0.3331
16376TIP3    H170543   4.935   1.144  11.784  0.9932 -0.9896 -1.5470
16376TIP3    H270544   4.922   1.268  11.699  1.7862 -1.1247 -1.8752
16377TIP3   OH270545   4.481   1.666  12.140  0.4874  0.5322 -0.4641
16377TIP3    H170546   4.477   1.576  12.110 -0.0500  1.0743 -2.1463
16377TIP3    H270547   4.543   1.709  12.081 -0.8393  1.7238 -1.0474
16378TIP3   OH270548   5.745   5.224   2.453  0.3832  0.0795  0.3051
16378TIP3    H170549   5.650   5.222   2.461  0.3330  1.0049  0.0476
16378TIP3    H270550   5.766   5.316   2.440  1.2263 -0.2454 -0.7697
16379TIP3   OH270551   5.107   5.430  16.677  0.7865  0.0810 -0.0938
16379TIP3    H170552   5.172   5.440  16.747  0.6442  0.5365 -0.0240
16379TIP3    H270553   5.151   5.375  16.612  1.2751  0.4474 -0.0795
16380TIP3   OH270554   4.176   0.599  11.106 -0.1470 -0.1173 -0.4033
16380TIP3    H170555   4.253   0.583  11.160 -0.9409 -0.8582  0.5663
16380TIP3    H270556   4.165   0.518  11.055 -0.3619 -0.0785 -0.4210
16381TIP3   OH270557   5.178   0.986  13.074 -0.3755  0.7933 -0.0671
16381TIP3    H170558   5.093   0.999  13.116 -0.3994 -0.7780  0.4205
16381TIP3    H270559   5.234   0.950  13.143  0.0637 -0.1992 -0.9080
16382TIP3   OH270560   0.041   5.166   2.108  0.1240 -0.8316  0.2742
16382TIP3    H170561   0.058   5.074   2.128 -0.5002 -0.8968  0.5248
16382TIP3    H270562   0.005   5.202   2.190 -1.1175 -0.7562 -0.2869
16383TIP3   OH270563   2.529   1.737   0.380 -0.0765 -0.0012  0.3580
16383TIP3    H170564   2.485   1.785   0.310  2.2850 -0.1365 -1.3496
16383TIP3    H270565   2.572   1.804   0.433  1.1675 -0.0489 -0.5525
16384TIP3   OH270566   6.043   2.284   4.570 -0.8372 -0.3349  0.3735
16384TIP3    H170567   6.079   2.370   4.589 -1.4228 -0.3266  1.5027
16384TIP3    H270568   6.000   2.257   4.651  0.7966 -2.4442  0.6440
16385TIP3   OH270569   5.912   2.926  15.872 -0.1893 -0.0091  0.6477
16385TIP3    H170570   6.004   2.948  15.860 -0.2504 -0.3088 -0.5050
16385TIP3    H270571   5.910   2.831  15.877 -0.2473  0.0510  2.6582
16386TIP3   OH270572   4.907   5.073  10.330 -0.3023 -0.0817  0.3244
16386TIP3    H170573   4.888   5.155  10.285 -1.4004 -0.6293 -0.2496
16386TIP3    H270574   4.927   5.100  10.420  1.4754  0.9825 -0.3299
16387TIP3   OH270575   5.198   0.967  17.118  0.1970 -0.0792  0.2100
16387TIP3    H170576   5.110   0.932  17.105 -0.0977  0.0153  1.8028
16387TIP3    H270577   5.216   0.953  17.211  1.6288  0.4568  0.0338
16388TIP3   OH270578   2.115   6.594  15.582  0.6237 -0.8775  0.2794
16388TIP3    H170579   2.094   6.532  15.652 -0.5694 -1.5516 -0.6459
16388TIP3    H270580   2.147   6.540  15.510 -1.5544 -0.6004 -0.9724
16389TIP3   OH270581   4.629   4.389  14.349 -0.2553  0.3931  0.0908
16389TIP3    H170582   4.533   4.393  14.344 -0.3596 -0.9358  0.6386
16389TIP3    H270583   4.648   4.298  14.373  1.1312  0.7414  0.3887
16390TIP3   OH270584   4.266   0.512  14.525 -0.3757  0.3148 -0.2251
16390TIP3    H170585   4.297   0.515  14.615 -1.4666 -1.2548  0.2349
16390TIP3    H270586   4.306   0.433  14.488 -0.3159  0.6871 -0.9865
16391TIP3   OH270587   1.265   5.928  16.366  0.4395 -0.0977  0.4632
16391TIP3    H170588   1.291   5.873  16.292  1.7993  1.3178 -0.1609
16391TIP3    H270589   1.313   6.010  16.353 -0.6527  0.8265  1.9754
16392TIP3   OH270590   5.442   1.151  12.579  1.1835 -0.0403 -0.2833
16392TIP3    H170591   5.472   1.077  12.632  0.8527 -0.3980 -0.5928
16392TIP3    H270592   5.421   1.219  12.642  0.3737 -0.6117  0.0775
16393TIP3   OH270593   4.426   0.757   2.205  0.3462 -0.0567  0.0986
16393TIP3    H170594   4.338   0.756   2.168  0.2945 -0.3218  0.2271
16393TIP3    H270595   4.477   0.811   2.145  0.2067 -0.2803 -0.2189
16394TIP3   OH270596   6.666   6.594  10.835  0.4484 -0.3124 -0.1476
16394TIP3    H170597   6.623   6.518  10.795  0.8491 -0.9416  0.5934
16394TIP3    H270598   6.755   6.592  10.800 -0.0545  0.9298 -1.5991
16395TIP3   OH270599   2.554   2.710  14.658  0.2313 -0.3339 -0.6892
16395TIP3    H170600   2.551   2.801  14.630 -1.2451 -0.5584 -1.3816
16395TIP3    H270601   2.462   2.681  14.655  0.7153 -1.9552 -0.8807
16396TIP3   OH270602   0.240   6.795  15.019 -0.0194 -0.5511  0.6765
16396TIP3    H170603   0.289   6.755  14.947  0.4688  0.8084  0.2324
16396TIP3    H270604   0.154   6.814  14.982 -0.3945 -1.5233  1.0081
16397TIP3   OH270605   2.964   4.597   0.140  0.6933 -0.1279  0.0799
16397TIP3    H170606   3.021   4.527   0.108  0.8477  0.0160  0.0376
16397TIP3    H270607   3.004   4.625   0.222  1.7573  1.2427 -0.8484
16398TIP3   OH270608   1.437   4.226   5.774 -0.7223 -0.4218  0.0436
16398TIP3    H170609   1.377   4.291   5.811 -0.3739 -0.4711  0.7129
16398TIP3    H270610   1.423   4.147   5.827 -0.6988 -0.7052 -0.3660
16399TIP3   OH270611   5.008   4.037  11.997 -0.3503 -0.4863 -0.3103
16399TIP3    H170612   5.056   4.059  12.077 -0.9177  0.7224 -0.2757
16399TIP3    H270613   4.920   4.014  12.028 -0.3078 -0.9423 -0.5172
16400TIP3   OH270614   4.429   2.127  12.221 -0.1579  0.0963  0.4290
16400TIP3    H170615   4.425   2.101  12.129  0.7199  0.7088  0.2019
16400TIP3    H270616   4.429   2.045  12.270  0.4510 -0.2665 -0.1722
16401TIP3   OH270617   1.572   4.844   2.385 -0.0256  0.2068 -0.0671
16401TIP3    H170618   1.559   4.939   2.386 -0.5739  0.1317  0.4610
16401TIP3    H270619   1.623   4.826   2.464  1.4666  0.2378 -0.9829
16402TIP3   OH270620   4.406   4.178   1.699 -0.1269  0.5666  0.6557
16402TIP3    H170621   4.383   4.088   1.675  1.4404  0.3208 -0.0672
16402TIP3    H270622   4.441   4.171   1.787 -1.6644  0.7664  1.3052
16403TIP3   OH270623   6.010   4.362  12.888  0.0665 -0.0261 -0.7657
16403TIP3    H170624   6.102   4.378  12.909  0.2880 -1.3170 -0.6968
16403TIP3    H270625   5.972   4.328  12.969  0.0136 -1.3770 -1.3346
16404TIP3   OH270626   5.533   6.049  15.390 -0.2422 -0.1718  0.0471
16404TIP3    H170627   5.510   6.049  15.483 -0.4138  0.0641  0.0063
16404TIP3    H270628   5.448   6.045  15.345 -0.2630  1.4446 -0.1108
16405TIP3   OH270629   5.114   3.322   0.253 -0.2085  0.5083  0.8337
16405TIP3    H170630   5.028   3.287   0.228 -0.2444 -0.3673  2.0739
16405TIP3    H270631   5.105   3.417   0.245 -0.5979  0.3287 -1.1324
16406TIP3   OH270632   5.472   6.102   0.796  0.1016 -0.2409 -0.1060
16406TIP3    H170633   5.482   6.190   0.760 -0.5432 -0.2245 -0.2685
16406TIP3    H270634   5.379   6.081   0.781  0.5809 -1.5682 -1.5229
16407TIP3   OH270635   2.896   0.882  15.925 -0.2268  0.3347  0.0860
16407TIP3    H170636   2.924   0.845  15.841  1.8063  2.7099 -0.3929
16407TIP3    H270637   2.854   0.809  15.970  0.7709 -1.6684 -2.0077
16408TIP3   OH270638   3.933   3.756   5.784 -0.0542 -0.0547 -0.3036
16408TIP3    H170639   3.843   3.730   5.767 -0.8330  1.3491  1.3750
16408TIP3    H270640   3.965   3.789   5.700 -1.0592 -0.6366 -0.9351
16409TIP3   OH270641   3.340   0.417   5.396  0.2652  0.3197  0.0212
16409TIP3    H170642   3.350   0.368   5.477 -0.1988 -1.2688 -0.8349
16409TIP3    H270643   3.298   0.499   5.422  0.5274  0.0292  1.4290
16410TIP3   OH270644   2.501   6.272   1.181  0.0414 -0.1615 -0.2149
16410TIP3    H170645   2.577   6.230   1.141 -0.4365 -0.8946 -0.3783
16410TIP3    H270646   2.437   6.279   1.109 -1.1107 -2.1749  0.5385
16411TIP3   OH270647   1.891   3.518   5.378 -0.2305 -0.4681  0.0020
16411TIP3    H170648   1.806   3.492   5.342  0.5832 -1.4084 -1.3154
16411TIP3    H270649   1.869   3.572   5.455 -2.0121  0.4562 -1.0952
16412TIP3   OH270650   2.932   4.592   3.945 -0.3236 -0.3796  0.7527
16412TIP3    H170651   2.939   4.575   3.851 -1.2088  1.7219  0.2429
16412TIP3    H270652   2.858   4.539   3.973 -0.9012 -0.0134 -0.0352
16413TIP3   OH270653   5.563   4.675  11.245  0.3677 -0.3693 -0.4098
16413TIP3    H170654   5.493   4.685  11.310 -0.5203  1.7920 -1.6114
16413TIP3    H270655   5.615   4.601  11.277  0.0839  0.6958  2.8177
16414TIP3   OH270656   2.927   0.992   2.884 -0.0545  0.9355  0.6353
16414TIP3    H170657   2.873   1.069   2.863 -2.2697 -0.2364  1.7710
16414TIP3    H270658   2.869   0.933   2.931  2.0274 -0.7982  1.2068
16415TIP3   OH270659   6.317   5.339   5.616  0.1243  0.3297 -0.1964
16415TIP3    H170660   6.348   5.300   5.698 -0.8382 -0.1276 -0.0264
16415TIP3    H270661   6.396   5.368   5.571  0.7950 -0.7946  0.2060
16416TIP3   OH270662   3.593   3.149  13.203 -0.2300  0.0984 -0.1131
16416TIP3    H170663   3.596   3.197  13.120  3.4279 -1.8255 -1.3404
16416TIP3    H270664   3.549   3.208  13.264  2.3399  4.2811 -1.8673
16417TIP3   OH270665   5.165   1.892   6.210  0.3986  0.2070  0.1361
16417TIP3    H170666   5.232   1.960   6.210 -0.1407  0.8022  1.9605
16417TIP3    H270667   5.208   1.817   6.251  0.7890 -0.3539 -1.2665
16418TIP3   OH270668   3.779   4.020  12.728 -0.5909 -0.6514 -0.2757
16418TIP3    H170669   3.780   4.111  12.697 -2.0025 -0.0166  1.3436
16418TIP3    H270670   3.705   3.980  12.683 -0.1644 -0.9174 -0.7485
16419TIP3   OH270671   2.148   5.024  14.014  0.4305 -0.2017 -0.3842
16419TIP3    H170672   2.241   5.011  13.993  0.2117 -1.9500 -0.3783
16419TIP3    H270673   2.140   5.119  14.028  1.7066  0.3437 -2.7997
16420TIP3   OH270674   5.031   4.551  11.197 -0.2267 -0.5168 -0.0847
16420TIP3    H170675   5.124   4.561  11.176 -0.2681  1.2008  0.3649
16420TIP3    H270676   4.988   4.620  11.146 -1.1247 -0.6074  0.5322
16421TIP3   OH270677   5.084   4.570  13.809  0.1478  0.0191  0.2716
16421TIP3    H170678   5.112   4.518  13.885 -0.3109 -0.4189  0.1491
16421TIP3    H270679   4.995   4.599  13.832 -0.3804 -0.9403 -0.5023
16422TIP3   OH270680   4.919   4.632  11.651 -0.0951 -0.5031  0.6726
16422TIP3    H170681   4.861   4.560  11.675 -0.3356  0.0835  1.9558
16422TIP3    H270682   4.919   4.689  11.728  1.5323 -0.0574  0.3737
16423TIP3   OH270683   4.908   2.320  14.676  0.4036 -0.2146 -0.3408
16423TIP3    H170684   4.913   2.305  14.581  0.5857  1.3853 -0.6124
16423TIP3    H270685   4.990   2.286  14.710  1.7009  1.8621 -1.2022
16424TIP3   OH270686   5.807   5.825  16.602  0.2940  0.4511 -0.7345
16424TIP3    H170687   5.785   5.863  16.517 -1.8185 -0.6608 -0.7430
16424TIP3    H270688   5.798   5.731  16.589  1.3565  0.1769  0.3625
16425TIP3   OH270689   0.843   1.046  12.676  0.2164  0.6316 -0.3430
16425TIP3    H170690   0.907   1.111  12.706  0.2345  0.4818 -0.0521
16425TIP3    H270691   0.896   0.977  12.635  0.2652  0.3791  0.1362
16426TIP3   OH270692   5.901   4.769  13.320  0.6074  0.3469 -0.2038
16426TIP3    H170693   5.932   4.760  13.410 -1.0316 -1.9739  0.2251
16426TIP3    H270694   5.897   4.863  13.305  2.2484  0.7812  1.6377
16427TIP3   OH270695   2.227   0.524   4.261 -0.4713  0.1280  0.0516
16427TIP3    H170696   2.316   0.489   4.253  0.2791  1.3538  2.1604
16427TIP3    H270697   2.172   0.462   4.212  1.4505 -0.9854 -0.7992
16428TIP3   OH270698   3.845   3.472  13.818 -0.3974  0.3865 -0.7353
16428TIP3    H170699   3.883   3.401  13.766 -1.2000 -0.8131  0.2453
16428TIP3    H270700   3.897   3.549  13.796  1.1169 -0.7086 -1.1137
16429TIP3   OH270701   4.351   2.039  11.309 -0.1705  0.3060 -0.5681
16429TIP3    H170702   4.304   1.958  11.289 -0.4227  0.1458  0.5597
16429TIP3    H270703   4.411   2.014  11.380 -0.8246  1.2745  0.3602
16430TIP3   OH270704   0.127   2.974  16.796 -0.7721 -0.5573  0.1401
16430TIP3    H170705   0.197   2.936  16.850 -0.4088  1.4385  1.1409
16430TIP3    H270706   0.148   3.067  16.792 -2.7675 -0.0990 -0.4910
16431TIP3   OH270707   6.135   0.411  12.921 -0.4938  0.2870  0.7226
16431TIP3    H170708   6.110   0.436  12.832 -0.7623 -2.1389  0.0532
16431TIP3    H270709   6.053   0.390  12.964 -0.1790 -1.2470  0.6249
16432TIP3   OH270710   5.039   3.130   3.665 -0.4790 -0.0997 -0.2457
16432TIP3    H170711   5.077   3.043   3.673 -0.3427 -0.3342 -2.6029
16432TIP3    H270712   4.946   3.115   3.647 -0.7187  0.2952  0.6281
16433TIP3   OH270713   1.881   0.303   5.890 -0.1041  0.0044 -0.0955
16433TIP3    H170714   1.851   0.394   5.887 -1.9186 -0.5876 -1.3876
16433TIP3    H270715   1.862   0.274   5.979  2.3079  1.4068  0.9772
16434TIP3   OH270716   5.695   2.255  15.000 -0.4148 -0.1885 -0.0003
16434TIP3    H170717   5.647   2.315  14.943  0.9653  1.1597  0.1933
16434TIP3    H270718   5.673   2.284  15.089  0.6126  0.3447  0.0909
16435TIP3   OH270719   4.154   6.448   3.337 -0.1763  0.3124  0.7441
16435TIP3    H170720   4.175   6.358   3.360  0.3818  0.1430 -0.3307
16435TIP3    H270721   4.177   6.455   3.244 -1.1967  1.2668  0.5350
16436TIP3   OH270722   0.739   4.122  16.563 -0.0089  0.5781  0.2373
16436TIP3    H170723   0.752   4.028  16.555  2.1412  0.8047  0.5055
16436TIP3    H270724   0.810   4.151  16.620 -0.5900  2.3808  0.1094
16437TIP3   OH270725   4.333   1.244   3.601  0.2739  0.0096 -0.0260
16437TIP3    H170726   4.374   1.161   3.624  0.2113 -0.1309 -0.4035
16437TIP3    H270727   4.314   1.236   3.507  1.6445  1.0283 -0.4309
16438TIP3   OH270728   5.451   6.189   0.434 -0.6531  0.0274 -0.0371
16438TIP3    H170729   5.540   6.155   0.432  0.0205  1.6907 -0.6213
16438TIP3    H270730   5.459   6.276   0.473 -1.5244  1.3955 -2.6273
16439TIP3   OH270731   0.198   3.170   1.471 -0.3403 -0.0384  0.0074
16439TIP3    H170732   0.204   3.192   1.378  0.1962 -0.6401 -0.1056
16439TIP3    H270733   0.196   3.255   1.515 -1.8030  0.2632 -0.6089
16440TIP3   OH270734   4.941   2.063  12.249 -0.0533 -0.3552  0.2828
16440TIP3    H170735   5.003   1.996  12.221  1.5616  1.3865 -0.6080
16440TIP3    H270736   4.858   2.037  12.210  0.8529 -1.0984 -1.2490
16441TIP3   OH270737   0.456   6.720  13.646  0.0789  0.0779  0.1011
16441TIP3    H170738   0.380   6.683  13.602  0.2284  0.2001 -0.2684
16441TIP3    H270739   0.511   6.752  13.575  0.4579  0.0220  0.3676
16442TIP3   OH270740   3.022   1.353  13.786 -0.5212  0.1228  0.0086
16442TIP3    H170741   2.934   1.319  13.796 -0.2446 -0.2005  1.6960
16442TIP3    H270742   3.011   1.440  13.748 -1.4768 -0.3626 -0.8415
16443TIP3   OH270743   2.751   0.193   1.986 -1.4443 -0.1451  0.7246
16443TIP3    H170744   2.845   0.175   1.984 -1.3400 -0.0901  3.1139
16443TIP3    H270745   2.710   0.106   1.982 -1.2934 -0.2070  0.4614
16444TIP3   OH270746   4.925   1.659   1.020 -0.1726 -0.5446 -0.2111
16444TIP3    H170747   4.843   1.677   1.066  0.7199 -0.2800  1.3440
16444TIP3    H270748   4.950   1.743   0.982 -0.1283 -0.3880  0.1587
16445TIP3   OH270749   1.773   5.725  11.183 -0.1670 -0.3923  0.0701
16445TIP3    H170750   1.858   5.710  11.222  0.2105  2.0354  0.2964
16445TIP3    H270751   1.792   5.750  11.092 -0.8515 -2.6719 -0.7686
16446TIP3   OH270752   4.622   3.738  12.660  0.2667  0.1447  0.0614
16446TIP3    H170753   4.597   3.653  12.623  1.4159 -0.2020  0.0406
16446TIP3    H270754   4.716   3.744  12.645  0.8643 -0.1513  3.1384
16447TIP3   OH270755   3.767   4.882  15.062  0.0776 -0.4446  0.2135
16447TIP3    H170756   3.775   4.818  14.991 -0.8285  0.6484 -0.9186
16447TIP3    H270757   3.706   4.842  15.124 -0.2733 -0.7922 -0.3522
16448TIP3   OH270758   3.297   0.943   2.857 -0.1294  0.1258  0.1155
16448TIP3    H170759   3.273   1.032   2.881  0.4323  0.0891  0.8150
16448TIP3    H270760   3.247   0.887   2.917  0.0446 -0.0097  0.1361
16449TIP3   OH270761   0.666   4.975  13.557  0.0127  0.1691  0.4087
16449TIP3    H170762   0.672   4.914  13.484  2.0224  2.2205 -1.2820
16449TIP3    H270763   0.715   4.933  13.628 -0.2360 -0.9662 -0.0834
16450TIP3   OH270764   2.286   4.493  14.447 -0.2831  0.7520  0.3373
16450TIP3    H170765   2.358   4.488  14.384  0.5527 -1.6167  1.3838
16450TIP3    H270766   2.306   4.571  14.500 -0.9056  2.6672 -2.0759
16451TIP3   OH270767   6.761   0.327   5.857 -0.2980  0.1179  0.4903
16451TIP3    H170768   6.703   0.271   5.805  0.3229 -0.5166  0.4622
16451TIP3    H270769   6.785   0.274   5.933  1.1037 -0.0692 -0.0375
16452TIP3   OH270770   0.795   0.171   3.915 -0.6466 -0.6132  0.6331
16452TIP3    H170771   0.882   0.131   3.925 -0.4482 -0.6983 -1.1706
16452TIP3    H270772   0.735   0.097   3.913 -0.8376 -0.5401  2.2308
16453TIP3   OH270773   2.738   3.977  15.011  0.9064 -0.2787  0.2078
16453TIP3    H170774   2.790   3.957  15.090  1.3337 -2.6718 -0.6044
16453TIP3    H270775   2.800   4.022  14.954  0.5892  1.4975  1.2005
16454TIP3   OH270776   5.600   6.005  10.560  0.0636  0.4777  0.1776
16454TIP3    H170777   5.597   5.926  10.505 -0.3953  0.0812  0.7528
16454TIP3    H270778   5.692   6.015  10.584  0.2163  0.4706 -0.4023
16455TIP3   OH270779   5.951   5.674  13.096 -0.5444  0.1991  0.1147
16455TIP3    H170780   5.995   5.757  13.113 -2.6246  1.3683  0.0905
16455TIP3    H270781   6.018   5.619  13.055  1.6157  0.9381  2.4118
16456TIP3   OH270782   4.509   6.285  15.594  0.7655 -0.6944 -0.1883
16456TIP3    H170783   4.553   6.221  15.650  0.0706  1.0291  2.5810
16456TIP3    H270784   4.580   6.332  15.550  1.4939 -0.9173  0.7024
16457TIP3   OH270785   3.969   5.198  13.352  0.3085  0.3493 -0.0585
16457TIP3    H170786   3.929   5.114  13.330  1.9560 -0.0008 -2.0705
16457TIP3    H270787   4.063   5.179  13.355  0.9514  2.4653 -2.8557
16458TIP3   OH270788   4.475   5.724   3.922  0.6356 -0.0379 -0.2197
16458TIP3    H170789   4.526   5.671   3.984 -0.4269  0.3337  1.0232
16458TIP3    H270790   4.508   5.813   3.933  1.6337 -0.2221 -1.4825
16459TIP3   OH270791   5.001   2.930   1.169  0.2519 -0.3051  0.1448
16459TIP3    H170792   5.026   2.981   1.092  0.9898 -1.0923 -0.1472
16459TIP3    H270793   5.069   2.950   1.234  0.0411 -0.2220  0.3420
16460TIP3   OH270794   2.616   1.785  16.634  0.0480  0.1670 -0.4505
16460TIP3    H170795   2.697   1.807  16.680 -0.3556  0.1446  0.2857
16460TIP3    H270796   2.550   1.775  16.704 -0.2071 -1.5374 -0.8854
16461TIP3   OH270797   6.357   3.407   0.466  0.6105 -0.2703  0.2238
16461TIP3    H170798   6.347   3.374   0.555  0.9354 -3.1000 -0.6915
16461TIP3    H270799   6.405   3.489   0.476  1.2844 -0.8850  2.6197
16462TIP3   OH270800   0.875   0.701  16.529  0.0322  0.9013 -0.0847
16462TIP3    H170801   0.945   0.759  16.499  0.0294  0.3981 -1.1392
16462TIP3    H270802   0.799   0.759  16.538  0.4776  1.3778  0.6750
16463TIP3   OH270803   4.784   0.610   3.773 -0.2564  0.0906  0.1294
16463TIP3    H170804   4.847   0.609   3.702 -1.0972 -0.7881 -0.6301
16463TIP3    H270805   4.741   0.525   3.769 -1.3018  0.5595  0.7825
16464TIP3   OH270806   3.045   2.099   2.710  0.4197 -0.0307  0.5656
16464TIP3    H170807   2.965   2.097   2.763  0.6807  0.9904  1.0296
16464TIP3    H270808   3.032   2.031   2.644 -1.0467  0.4583  0.3229
16465TIP3   OH270809   0.572   3.726  10.552  0.0699  0.4524  0.2911
16465TIP3    H170810   0.555   3.642  10.509  0.2284  0.8411 -0.5606
16465TIP3    H270811   0.641   3.766  10.499  0.4648  0.8394  1.0767
16466TIP3   OH270812   3.963   1.591  16.074  0.8368  0.0888 -0.5851
16466TIP3    H170813   4.036   1.531  16.062 -0.0233 -1.6285  1.9573
16466TIP3    H270814   3.887   1.543  16.041  0.4802  0.7943 -0.8030
16467TIP3   OH270815   1.692   4.195  15.449 -0.3133 -0.3744 -0.7901
16467TIP3    H170816   1.782   4.165  15.430 -0.0356  0.9856 -1.7081
16467TIP3    H270817   1.701   4.288  15.466 -1.2253 -0.6719  1.6743
16468TIP3   OH270818   0.568   6.577   2.928 -0.1751 -0.4112  0.2169
16468TIP3    H170819   0.599   6.496   2.968  1.4370 -0.1572 -0.4466
16468TIP3    H270820   0.579   6.563   2.834  1.1706  0.9497  0.1393
16469TIP3   OH270821   6.513   4.539   0.124  0.5786 -0.3672 -0.4890
16469TIP3    H170822   6.482   4.583   0.045  1.9548 -0.9167 -1.3738
16469TIP3    H270823   6.455   4.570   0.193 -2.2299 -1.6646 -2.0832
16470TIP3   OH270824   6.231   5.935  14.240 -0.2641  0.3701  0.8088
16470TIP3    H170825   6.169   5.904  14.306  1.2328  0.2092  2.1884
16470TIP3    H270826   6.227   6.030  14.247 -0.7241  0.3742  0.5306
16471TIP3   OH270827   5.606   1.445   0.690 -0.4476  0.1884 -0.4057
16471TIP3    H170828   5.698   1.463   0.709 -0.9192  2.2967  0.2019
16471TIP3    H270829   5.591   1.357   0.724  1.1468  0.1214  0.2106
16472TIP3   OH270830   3.027   1.779   0.475 -0.4308  0.2063 -0.2949
16472TIP3    H170831   3.117   1.809   0.494 -0.4545 -0.1080  0.3461
16472TIP3    H270832   3.035   1.685   0.464 -0.6371  0.2178 -0.5338
16473TIP3   OH270833   4.816   0.157   1.964 -0.0978 -0.3059 -0.2186
16473TIP3    H170834   4.732   0.130   1.924 -0.3094 -0.6688  0.4584
16473TIP3    H270835   4.882   0.113   1.910 -0.1834  1.9407 -2.3156
16474TIP3   OH270836   3.234   1.038   2.203  0.5643  0.3098  0.2627
16474TIP3    H170837   3.297   1.089   2.253 -0.7286  0.9171  1.3365
16474TIP3    H270838   3.194   0.979   2.267 -0.1701  0.1399 -0.3260
16475TIP3   OH270839   4.380   0.838   4.596 -0.0979 -0.5442 -0.1405
16475TIP3    H170840   4.409   0.924   4.566 -0.4335 -0.2052  0.4793
16475TIP3    H270841   4.324   0.856   4.672 -0.3813 -1.2937 -0.1552
16476TIP3   OH270842   4.222   1.252   0.187  0.3358  0.2922 -0.0362
16476TIP3    H170843   4.291   1.205   0.234  0.9587  0.8171 -0.4193
16476TIP3    H270844   4.237   1.231   0.095 -0.8543 -0.6982 -0.0272
16477TIP3   OH270845   2.367   0.072  15.222  0.1031 -0.8269 -0.4208
16477TIP3    H170846   2.374   0.152  15.171  2.5188 -0.0896  0.9158
16477TIP3    H270847   2.358   0.002  15.157  0.9730  0.2422 -1.7389
16478TIP3   OH270848   0.419   0.012   1.243 -0.0225 -0.0025 -0.2664
16478TIP3    H170849   0.368  -0.069   1.243 -0.4147  0.2256  0.9924
16478TIP3    H270850   0.362   0.076   1.199  0.0351 -0.2563 -0.7134
16479TIP3   OH270851   3.532   4.852   1.110  0.4336 -0.3622  0.3320
16479TIP3    H170852   3.529   4.830   1.017  0.6343 -0.4699  0.3520
16479TIP3    H270853   3.563   4.773   1.154 -1.5325 -0.9879  0.7157
16480TIP3   OH270854   5.350   3.835   2.943 -0.3610 -0.0827  0.2518
16480TIP3    H170855   5.367   3.872   3.030  0.8494  0.0882 -0.0420
16480TIP3    H270856   5.255   3.838   2.934 -0.4584  0.5110  1.3006
16481TIP3   OH270857   3.981   4.672  16.338 -0.5936  0.0530  0.1984
16481TIP3    H170858   3.890   4.688  16.314 -1.1738 -2.7117  0.2923
16481TIP3    H270859   3.978   4.631  16.424  0.6157 -1.1158 -0.2617
16482TIP3   OH270860   0.355   5.781  11.719  0.0066 -0.7048  0.2202
16482TIP3    H170861   0.310   5.834  11.654  0.9747 -2.9431 -2.4887
16482TIP3    H270862   0.413   5.842  11.765 -2.0643  1.2893  0.3703
16483TIP3   OH270863   1.719   3.070  12.227  0.2083  0.1891 -0.3019
16483TIP3    H170864   1.658   3.063  12.154  0.7499  1.8658 -0.9659
16483TIP3    H270865   1.663   3.066  12.305 -0.6135  0.3660 -0.8646
16484TIP3   OH270866   1.938   4.000  12.093  0.2830  0.4836  0.2047
16484TIP3    H170867   2.031   4.016  12.109  0.9539 -1.3980 -1.3078
16484TIP3    H270868   1.924   4.028  12.002  0.0819 -1.5606 -0.4670
16485TIP3   OH270869   3.476   6.186  13.498 -0.8643 -0.3342  0.1836
16485TIP3    H170870   3.466   6.208  13.405 -1.9826  0.9703  0.5678
16485TIP3    H270871   3.446   6.265  13.544  0.3183 -0.7053  1.6532
16486TIP3   OH270872   2.063   5.983   1.793  0.2126 -0.4439 -0.0376
16486TIP3    H170873   1.992   5.937   1.838  0.8531  0.5879  2.1055
16486TIP3    H270874   2.075   6.064   1.841  2.3638 -0.2372 -0.7958
16487TIP3   OH270875   6.478   2.642   4.804 -0.0057 -0.0166  0.2158
16487TIP3    H170876   6.538   2.715   4.797  1.0468 -0.6760  1.6965
16487TIP3    H270877   6.494   2.589   4.726  0.2808  0.5649 -0.1229
16488TIP3   OH270878   4.533   3.554  15.265 -0.2947  0.4083 -0.1994
16488TIP3    H170879   4.600   3.506  15.216 -1.3683 -0.7128 -0.6343
16488TIP3    H270880   4.492   3.611  15.200 -1.6596 -1.0152 -0.6758
16489TIP3   OH270881   1.442   0.638  14.652 -0.2740  0.3529 -0.4315
16489TIP3    H170882   1.504   0.586  14.601 -1.8063  0.0458 -2.1028
16489TIP3    H270883   1.490   0.717  14.674  0.8711 -0.0881 -1.2262
16490TIP3   OH270884   5.090   5.273  13.742  0.4546  0.0415 -0.3425
16490TIP3    H170885   5.153   5.204  13.721  1.9177  0.9063  1.0345
16490TIP3    H270886   5.141   5.353  13.746 -0.1451  0.4293  3.2401
16491TIP3   OH270887   3.012   1.973   1.071  0.0538 -0.0986  0.3391
16491TIP3    H170888   3.086   2.008   1.021 -1.1650  0.2602 -1.3220
16491TIP3    H270889   2.945   1.954   1.004 -0.1722 -3.5975  1.3687
16492TIP3   OH270890   4.651   2.053  10.670 -0.0003 -0.2283 -0.2126
16492TIP3    H170891   4.624   1.976  10.620 -0.4351  0.5785 -1.2865
16492TIP3    H270892   4.735   2.079  10.630  1.1458 -1.2452  1.4265
16493TIP3   OH270893   6.683   2.956  15.759 -0.2749 -0.2806 -0.3895
16493TIP3    H170894   6.769   2.997  15.754 -0.0694 -0.6742 -0.1373
16493TIP3    H270895   6.677   2.903  15.680  0.7109 -2.1423  0.7039
16494TIP3   OH270896   6.485   4.373   5.853 -0.2514  0.1273  0.2705
16494TIP3    H170897   6.417   4.311   5.825  0.3869 -0.0703 -0.9526
16494TIP3    H270898   6.557   4.318   5.882  0.1943  0.2715 -0.5121
16495TIP3   OH270899   3.150   1.617   2.757  0.8765 -0.2249 -0.2317
16495TIP3    H170900   3.075   1.598   2.814  1.2053  0.6827  0.5324
16495TIP3    H270901   3.115   1.613   2.668 -0.1510  0.5080  0.1324
16496TIP3   OH270902   4.629   1.139  13.076  0.0080 -0.6572  0.6933
16496TIP3    H170903   4.534   1.147  13.086 -0.0913  1.1033 -1.0673
16496TIP3    H270904   4.659   1.105  13.160 -2.0959 -0.6233  1.5277
16497TIP3   OH270905   2.349   3.013   0.607  0.2129  0.0053  0.0346
16497TIP3    H170906   2.260   3.047   0.611 -0.0264 -0.2432 -1.9193
16497TIP3    H270907   2.341   2.920   0.627 -0.4141 -0.5735 -2.5583
16498TIP3   OH270908   6.450   5.248  11.494  0.0568  0.0895 -0.2776
16498TIP3    H170909   6.455   5.303  11.416 -1.0888  0.4175 -0.1437
16498TIP3    H270910   6.437   5.159  11.460 -1.4532  0.3609 -0.4777
16499TIP3   OH270911   2.553   4.428   0.043 -0.3728  0.1492  0.2531
16499TIP3    H170912   2.487   4.466   0.100  0.8069  2.5155  0.2048
16499TIP3    H270913   2.604   4.370   0.099 -1.2064 -0.0888  0.7767
16500TIP3   OH270914   5.458   5.800  14.200 -0.2766 -0.1325  0.0309
16500TIP3    H170915   5.412   5.722  14.232 -0.6614 -0.2780 -0.8521
16500TIP3    H270916   5.389   5.858  14.169  0.0450  0.3424  0.1873
16501TIP3   OH270917   0.409   4.025   5.945  0.3757 -0.0895  0.0188
16501TIP3    H170918   0.441   4.106   5.985  1.3303 -0.9220  1.0317
16501TIP3    H270919   0.382   4.051   5.857  1.7235  1.1317 -0.0914
16502TIP3   OH270920   3.343   2.682  12.437  0.5584  0.4005  0.2820
16502TIP3    H170921   3.284   2.682  12.362  1.5803  0.6474 -0.5422
16502TIP3    H270922   3.288   2.655  12.511 -0.7545  1.3487 -0.3112
16503TIP3   OH270923   4.822   0.105   2.420 -0.0767 -0.1838 -0.1238
16503TIP3    H170924   4.845   0.198   2.429 -0.0075 -0.0809 -1.2081
16503TIP3    H270925   4.906   0.059   2.422  0.0887 -0.0214 -1.6111
16504TIP3   OH270926   4.445   1.775  11.820 -0.0018  0.1104  0.2701
16504TIP3    H170927   4.381   1.706  11.838 -0.8145  0.2739 -1.7511
16504TIP3    H270928   4.483   1.751  11.736 -0.7343  2.4011 -0.7882
16505TIP3   OH270929   1.837   6.761  16.276 -0.1971  0.4881  0.0068
16505TIP3    H170930   1.847   6.765  16.371  2.7634 -2.9473  0.0424
16505TIP3    H270931   1.874   6.844  16.245  2.2518  0.1826  1.7743
16506TIP3   OH270932   1.287   2.503  13.015 -0.0896  0.2989 -0.0688
16506TIP3    H170933   1.369   2.497  13.064  0.6534 -0.2264 -1.3577
16506TIP3    H270934   1.274   2.597  13.002 -0.3934  0.4690  1.2454
16507TIP3   OH270935   5.531   4.949   0.013  0.4283 -0.1242  0.4986
16507TIP3    H170936   5.453   4.907  -0.024  0.2273  0.8246 -0.1943
16507TIP3    H270937   5.536   4.915   0.102  0.0160 -1.2526  0.1102
16508TIP3   OH270938   5.850   0.414  11.332 -0.0565 -0.0884 -0.4541
16508TIP3    H170939   5.895   0.486  11.377  0.7886 -2.2268  2.4121
16508TIP3    H270940   5.914   0.382  11.269  0.7679 -0.2572  0.4453
16509TIP3   OH270941   2.725   2.154   5.871  0.3621  0.0812  0.8849
16509TIP3    H170942   2.723   2.250   5.863  2.7630  0.3152  2.3011
16509TIP3    H270943   2.753   2.138   5.961  1.0260 -1.9635  0.3603
16510TIP3   OH270944   0.604   6.319   4.633  0.2184 -0.0353  0.1915
16510TIP3    H170945   0.678   6.260   4.618  0.6284 -0.0587  2.0698
16510TIP3    H270946   0.560   6.323   4.549  0.8735 -2.0746 -0.3206
16511TIP3   OH270947   2.518   2.158   1.550 -0.0835 -0.0367  0.0722
16511TIP3    H170948   2.439   2.105   1.544 -0.3489  0.2891  0.6453
16511TIP3    H270949   2.553   2.138   1.637  0.1872  0.2098  0.0200
16512TIP3   OH270950   1.239   0.711  13.150 -0.7166 -0.3014  0.6280
16512TIP3    H170951   1.327   0.679  13.171  0.4079  2.1120 -0.0851
16512TIP3    H270952   1.234   0.797  13.191 -1.9266  0.5295 -1.1294
16513TIP3   OH270953   4.578   2.648  12.427  0.4950  0.5048 -0.1551
16513TIP3    H170954   4.583   2.617  12.517 -0.9356  1.0556  0.1270
16513TIP3    H270955   4.520   2.724  12.430 -1.0323 -0.5122 -1.7978
16514TIP3   OH270956   0.003   5.830   5.098  0.4397  0.4415 -0.0676
16514TIP3    H170957   0.054   5.870   5.168  2.2365  0.4196 -1.2910
16514TIP3    H270958   0.006   5.736   5.116 -1.3622  0.5806  1.2311
16515TIP3   OH270959   6.037   0.775   3.436 -0.0612 -0.3217 -0.0324
16515TIP3    H170960   6.125   0.777   3.400  1.2068 -3.3054  2.4196
16515TIP3    H270961   5.986   0.724   3.373  0.9208 -1.5961  0.1701
16516TIP3   OH270962   5.323   6.315   1.790  0.7603 -0.2257  0.1047
16516TIP3    H170963   5.350   6.277   1.873  3.4386  1.5931  0.1967
16516TIP3    H270964   5.388   6.282   1.727  1.8148  2.2878 -0.2202
16517TIP3   OH270965   3.031   2.373   3.350 -0.1755 -0.5730 -0.2272
16517TIP3    H170966   3.060   2.345   3.263 -1.4278  1.1799 -1.2761
16517TIP3    H270967   2.996   2.293   3.390 -2.4756 -0.9118 -2.5897
16518TIP3   OH270968   1.925   6.178   0.049  0.0118  0.9648 -0.4811
16518TIP3    H170969   1.872   6.189   0.128 -1.2037  0.6242 -1.2232
16518TIP3    H270970   1.972   6.096   0.063 -1.1412  0.2541 -0.6094
16519TIP3   OH270971   0.291   5.327   1.426  0.3262  0.1302  0.3567
16519TIP3    H170972   0.340   5.357   1.503 -0.5670  1.1010  0.5746
16519TIP3    H270973   0.200   5.324   1.456 -0.7381  4.5491 -1.7057
16520TIP3   OH270974   4.107   2.352  11.886  0.0523  0.3636  0.5928
16520TIP3    H170975   4.052   2.396  11.951  0.4764  1.0456  0.5053
16520TIP3    H270976   4.045   2.318  11.821 -0.4716 -1.3955  1.9601
16521TIP3   OH270977   5.498   2.291   0.014 -0.6572  0.6940 -0.6651
16521TIP3    H170978   5.419   2.327  -0.025 -1.0999  0.8603  0.3460
16521TIP3    H270979   5.535   2.234  -0.054 -1.7231  0.5036 -1.0971
16522TIP3   OH270980   3.565   5.315   3.967  0.4994  0.1306  0.3518
16522TIP3    H170981   3.559   5.359   4.052 -0.5034 -1.4543  1.1465
16522TIP3    H270982   3.654   5.336   3.936  1.1553  0.1575  2.1319
16523TIP3   OH270983   2.448   1.526   1.710  0.5788 -0.4899 -0.0170
16523TIP3    H170984   2.479   1.612   1.682 -3.8875  1.3450 -0.1901
16523TIP3    H270985   2.460   1.525   1.805 -0.8177  1.1458  0.2232
16524TIP3   OH270986   4.651   4.778   1.100  0.4457 -0.1911 -0.0194
16524TIP3    H170987   4.587   4.810   1.036  2.4742  2.1158 -1.0521
16524TIP3    H270988   4.603   4.776   1.182 -0.8263  2.2004 -0.5958
16525TIP3   OH270989   1.923   5.596  17.019 -0.4565  0.5013  0.0212
16525TIP3    H170990   1.931   5.575  17.112  1.0665  1.1092  0.0494
16525TIP3    H270991   1.837   5.637  17.011 -2.5479 -3.3298  0.3636
16526TIP3   OH270992   1.599   4.390   4.017 -0.3199 -0.4299 -0.4192
16526TIP3    H170993   1.619   4.301   4.044 -1.6646 -0.1020  2.0059
16526TIP3    H270994   1.683   4.428   3.992  0.7962 -1.4781  1.5044
16527TIP3   OH270995   1.556   5.039  14.251 -0.1248  0.0430 -0.0232
16527TIP3    H170996   1.558   5.096  14.175 -0.1009 -0.7726 -0.6514
16527TIP3    H270997   1.466   5.007  14.255 -0.0266 -0.2274  0.0559
16528TIP3   OH270998   2.726   5.675   4.686 -0.2149 -0.7255 -0.7118
16528TIP3    H170999   2.676   5.731   4.746 -0.3377  0.9374 -2.2797
16528TIP3    H271000   2.725   5.589   4.728 -0.7538  0.2195  1.3868
16529TIP3   OH271001   5.974   0.213   0.298 -0.4727 -0.3297  0.1271
16529TIP3    H171002   5.914   0.266   0.352 -0.4362  0.6282 -0.7531
16529TIP3    H271003   5.947   0.230   0.208 -0.2004 -1.5224 -0.1919
16530TIP3   OH271004   1.130   0.368  16.565 -0.0166  0.8013 -1.1791
16530TIP3    H171005   1.091   0.390  16.650  0.6415  1.0975 -0.9480
16530TIP3    H271006   1.190   0.441  16.547  1.1775 -0.1264 -1.0634
16531TIP3   OH271007   2.772   3.603   5.260  0.1700 -0.1950 -0.2518
16531TIP3    H171008   2.827   3.666   5.306 -0.0042 -1.2405  1.5100
16531TIP3    H271009   2.698   3.654   5.227  0.5376  0.6866  0.2623
16532TIP3   OH271010   2.287   2.957  10.701  0.1993 -0.0434  1.0430
16532TIP3    H171011   2.196   2.962  10.673  0.6340 -1.1985 -0.7959
16532TIP3    H271012   2.298   2.868  10.733  0.9486 -0.3000  0.1247
16533TIP3   OH271013   5.425   0.573  13.132  0.4814  0.4929  0.1315
16533TIP3    H171014   5.377   0.492  13.148  1.4708  0.0339  0.8631
16533TIP3    H271015   5.376   0.616  13.061 -0.3900 -0.4512  0.1344
16534TIP3   OH271016   2.640   0.877   2.761  0.1389 -0.2184  0.0765
16534TIP3    H171017   2.556   0.850   2.797  0.9127 -2.6737  0.2286
16534TIP3    H271018   2.630   0.866   2.666  0.2995 -0.5593  0.0984
16535TIP3   OH271019   1.295   4.817  16.953  0.2634 -0.5597  0.1962
16535TIP3    H171020   1.368   4.760  16.931  1.5870  1.3494 -0.6623
16535TIP3    H271021   1.246   4.825  16.871  0.1398 -0.3945  0.2855
16536TIP3   OH271022   1.284   2.600   2.203  0.7513  0.0664 -0.1290
16536TIP3    H171023   1.281   2.695   2.190 -0.9609 -0.0510 -0.7405
16536TIP3    H271024   1.360   2.572   2.151  0.6008  0.9662 -0.8631
16537TIP3   OH271025   1.724   1.547   3.931  0.5257 -0.0442 -0.1361
16537TIP3    H171026   1.783   1.614   3.967 -0.4718  1.4721 -1.2263
16537TIP3    H271027   1.752   1.536   3.840 -1.6389  1.7040 -1.0917
16538TIP3   OH271028   2.360   1.590   1.139  0.2474  0.3662 -0.0549
16538TIP3    H171029   2.315   1.619   1.219 -0.7183  0.8659 -0.7567
16538TIP3    H271030   2.385   1.671   1.095  1.2007  0.0912 -0.0352
16539TIP3   OH271031   6.144   0.322   4.559 -0.0458  0.2457  0.0831
16539TIP3    H171032   6.141   0.403   4.509  0.9595  0.0551 -0.3183
16539TIP3    H271033   6.187   0.345   4.642 -0.9325  0.3845  0.5090
16540TIP3   OH271034   6.670   3.623  15.205  0.1422  0.5295  0.4331
16540TIP3    H171035   6.603   3.661  15.263 -1.1806 -0.6724 -0.2266
16540TIP3    H271036   6.629   3.542  15.172  1.8671 -0.1364 -0.1638
16541TIP3   OH271037   2.169   0.172   1.775  0.0438 -0.0559  0.9531
16541TIP3    H171038   2.222   0.233   1.725  2.1094 -0.6519  2.2906
16541TIP3    H271039   2.222   0.093   1.781 -2.8203 -2.3686 -1.3464
16542TIP3   OH271040   0.163   3.189   1.826 -0.5345 -0.0836  0.3714
16542TIP3    H171041   0.220   3.178   1.902  0.9960 -0.0389 -0.7122
16542TIP3    H271042   0.188   3.274   1.790 -2.5425  0.7469  0.8435
16543TIP3   OH271043   0.947   6.256   3.131  0.6047  0.4211  0.4969
16543TIP3    H171044   0.980   6.170   3.156 -0.3095  0.1913  0.9697
16543TIP3    H271045   1.020   6.298   3.085  1.6317  0.0401  1.7242
16544TIP3   OH271046   4.515   3.263  12.241  0.1955 -0.0825 -0.1085
16544TIP3    H171047   4.459   3.202  12.289 -0.4222  0.3139 -0.3187
16544TIP3    H271048   4.604   3.243  12.272 -0.0987 -0.4567  0.5099
16545TIP3   OH271049   6.205   5.272   2.508 -0.8279 -0.2991 -0.3886
16545TIP3    H171050   6.248   5.270   2.593 -2.9611  0.7235  0.8018
16545TIP3    H271051   6.136   5.205   2.514 -0.8779 -0.3567 -1.3829
16546TIP3   OH271052   2.789   6.168  14.188  1.0944  0.2077  0.0729
16546TIP3    H171053   2.800   6.183  14.282  3.2198  0.9595 -0.2290
16546TIP3    H271054   2.695   6.164  14.174  0.7374 -0.2999  2.2831
16547TIP3   OH271055   0.789   5.243  11.801  0.1930 -0.0705 -0.0083
16547TIP3    H171056   0.738   5.291  11.736  3.7725  2.2015 -1.4144
16547TIP3    H271057   0.869   5.216  11.755  1.5941 -0.9757  2.7123
16548TIP3   OH271058   6.034   3.516   5.240  0.1492 -0.3298 -0.6876
16548TIP3    H171059   6.127   3.497   5.230 -0.0247 -1.3834 -0.4417
16548TIP3    H271060   6.022   3.601   5.196  0.9997 -0.7313 -1.7581
16549TIP3   OH271061   5.889   0.139  17.045 -0.0344 -0.4409 -0.1279
16549TIP3    H171062   5.808   0.152  17.094  0.4817  0.7091  0.4448
16549TIP3    H271063   5.946   0.090  17.106  0.6331  1.0525  0.4857
16550TIP3   OH271064   0.492   3.604   3.098  0.2061 -0.5502  0.6739
16550TIP3    H171065   0.412   3.655   3.112  0.7784 -0.3731  4.6338
16550TIP3    H271066   0.542   3.655   3.033 -0.9376  1.8949  1.5689
16551TIP3   OH271067   2.233   3.176   5.613  0.3617 -0.0585 -0.5187
16551TIP3    H171068   2.193   3.244   5.668  2.2936 -0.7594  1.9099
16551TIP3    H271069   2.165   3.109   5.604 -0.2710  0.4628  0.3049
16552TIP3   OH271070   0.866   3.407  15.523  0.2116  0.0863  0.5678
16552TIP3    H171071   0.775   3.407  15.555 -0.0104 -3.5695  0.4302
16552TIP3    H271072   0.913   3.462  15.585 -1.7169  0.2967  1.9526
16553TIP3   OH271073   3.753   4.715   4.348 -0.4419 -0.0594  0.1310
16553TIP3    H171074   3.826   4.738   4.291 -0.7746 -1.9142 -1.1474
16553TIP3    H271075   3.787   4.725   4.437  1.5573 -1.3378 -0.4311
16554TIP3   OH271076   3.147   2.454  12.087 -0.6650 -0.0419  0.0202
16554TIP3    H171077   3.159   2.379  12.145 -2.4395  0.4294  1.0772
16554TIP3    H271078   3.083   2.425  12.022 -0.1502  0.0561 -0.5372
16555TIP3   OH271079   2.306   5.231   2.530 -0.0346 -0.1618  0.2398
16555TIP3    H171080   2.241   5.276   2.583 -0.8521 -1.6227  0.5178
16555TIP3    H271081   2.256   5.184   2.463  0.9536  1.3554 -1.6584
16556TIP3   OH271082   4.544   2.782  11.343  0.0604 -0.4839  0.0851
16556TIP3    H171083   4.633   2.775  11.310 -0.3125  0.3538 -1.1608
16556TIP3    H271084   4.492   2.729  11.283 -0.5170  0.4181 -0.2276
16557TIP3   OH271085   1.578   4.503  13.866 -0.1266 -0.3967 -0.6501
16557TIP3    H171086   1.493   4.460  13.864 -0.1702 -0.3103 -0.6416
16557TIP3    H271087   1.602   4.504  13.959  0.1824 -1.0116 -0.7161
16558TIP3   OH271088   6.380   2.762  14.385  0.1848 -0.3883  0.7394
16558TIP3    H171089   6.316   2.695  14.359 -0.0130 -0.9442  2.5627
16558TIP3    H271090   6.329   2.843  14.387  0.0292 -0.4675  0.1692
16559TIP3   OH271091   0.275   0.825  12.978 -0.1509 -0.2420  0.2583
16559TIP3    H171092   0.252   0.903  12.928  0.4755  0.4710  1.0528
16559TIP3    H271093   0.355   0.849  13.025  0.9474 -1.9009 -0.6884
16560TIP3   OH271094   4.069   3.721   5.249  0.2447 -0.6425 -0.2904
16560TIP3    H171095   4.049   3.632   5.279  2.5476 -0.9763  0.5166
16560TIP3    H271096   4.006   3.777   5.295  0.1838 -1.6740  0.9323
16561TIP3   OH271097   5.910   0.681  16.124  0.7842 -0.5101  0.1061
16561TIP3    H171098   5.966   0.627  16.180 -0.7555 -1.0803  1.1667
16561TIP3    H271099   5.924   0.647  16.036  1.6914 -0.9879  0.4236
16562TIP3   OH271100   6.471   1.518  14.948  0.3889 -0.0044 -0.1400
16562TIP3    H171101   6.414   1.508  15.023  1.3254  2.4618  1.0301
16562TIP3    H271102   6.542   1.456  14.962  0.1530 -0.1071  0.6165
16563TIP3   OH271103   1.949   3.452   4.539 -0.1377 -0.6276 -0.6008
16563TIP3    H171104   1.908   3.429   4.622  0.0016 -1.3271 -0.7119
16563TIP3    H271105   2.006   3.377   4.520  2.1030  0.7911  0.1181
16564TIP3   OH271106   4.668   0.236  13.384 -0.4030  0.0678  0.8151
16564TIP3    H171107   4.640   0.284  13.306 -1.1947 -0.9824  0.4332
16564TIP3    H271108   4.623   0.279  13.456 -0.2678  0.5574  0.6155
16565TIP3   OH271109   5.192   2.661   5.829  0.6193  0.5017 -0.3278
16565TIP3    H171110   5.137   2.730   5.866 -0.7374 -0.6569 -0.1431
16565TIP3    H271111   5.176   2.667   5.734  1.3731  1.1497 -0.4278
16566TIP3   OH271112   6.633   2.526   0.353  0.3184 -0.3577  0.4092
16566TIP3    H171113   6.580   2.508   0.276 -0.5516  1.1640  0.6242
16566TIP3    H271114   6.704   2.582   0.321  2.1195 -2.7060  0.0418
16567TIP3   OH271115   5.424   3.739   1.572 -0.6686  0.3941  0.0713
16567TIP3    H171116   5.496   3.687   1.608 -0.7459  0.5778  0.5020
16567TIP3    H271117   5.429   3.822   1.619 -2.1317 -0.1478  1.2803
16568TIP3   OH271118   0.863   0.164  16.946  0.1277  0.0249  0.7875
16568TIP3    H171119   0.779   0.196  16.978 -0.7339 -0.9316 -0.4146
16568TIP3    H271120   0.882   0.219  16.869 -0.6998 -1.3942 -0.4809
16569TIP3   OH271121   5.160   4.433  14.737 -0.1236  0.5607 -0.7082
16569TIP3    H171122   5.125   4.462  14.653 -1.6703 -1.9891 -1.0590
16569TIP3    H271123   5.085   4.436  14.797  0.4294  0.3064  0.0193
16570TIP3   OH271124   2.325   4.363  16.162  0.1541 -0.2051 -0.0529
16570TIP3    H171125   2.265   4.416  16.214  0.6047 -0.1690  0.4491
16570TIP3    H271126   2.272   4.289  16.130  0.2733 -1.2736  2.0381
16571TIP3   OH271127   3.088   0.710  14.677 -0.2477  0.6636  0.1759
16571TIP3    H171128   3.031   0.696  14.602 -1.2847  3.2558  0.3840
16571TIP3    H271129   3.156   0.770  14.645 -0.8510  2.0219  1.3100
16572TIP3   OH271130   6.742   3.722  16.880  0.1221  0.3430 -0.1266
16572TIP3    H171131   6.739   3.764  16.794  0.6386  1.3090  0.3084
16572TIP3    H271132   6.836   3.719  16.902 -0.0398  0.6085  0.6312
16573TIP3   OH271133   1.799   5.523  16.578  0.8031 -0.1968  0.0731
16573TIP3    H171134   1.884   5.486  16.603  0.7191 -0.9997 -0.7839
16573TIP3    H271135   1.737   5.479  16.636  0.9107 -0.0351  0.3125
16574TIP3   OH271136   4.673   0.985  15.881 -0.5084  0.6604 -0.0717
16574TIP3    H171137   4.759   0.987  15.923 -0.8910 -2.4076  1.1714
16574TIP3    H271138   4.612   1.006  15.951 -1.0025 -2.3686  0.5623
16575TIP3   OH271139   5.810   5.453  12.669 -0.3309  0.8039 -0.3973
16575TIP3    H171140   5.801   5.477  12.576  2.1022  4.3978  0.1159
16575TIP3    H271141   5.893   5.406  12.674  0.5359  2.3185  0.1350
16576TIP3   OH271142   0.721   1.475   3.770 -0.0314 -0.1994  0.2323
16576TIP3    H171143   0.805   1.469   3.726 -0.5004 -0.9015 -0.6019
16576TIP3    H271144   0.718   1.399   3.828  0.4440  0.5400  1.2552
16577TIP3   OH271145   6.048   6.144   1.235  0.4882  0.4330 -0.0382
16577TIP3    H171146   6.071   6.167   1.145  1.2237 -0.1351 -0.0029
16577TIP3    H271147   5.952   6.137   1.234  0.4311  1.1420 -0.5957
16578TIP3   OH271148   0.012   3.442   1.038 -0.0895  0.2517  0.5798
16578TIP3    H171149  -0.032   3.468   1.119 -0.7780  1.8505 -0.2678
16578TIP3    H271150   0.066   3.367   1.063 -0.3449  0.6628  2.4907
16579TIP3   OH271151   5.745   0.581   5.985  0.1618 -0.1716  0.1082
16579TIP3    H171152   5.702   0.543   6.061  0.3391  2.0646  1.4238
16579TIP3    H271153   5.779   0.506   5.937  0.7850 -1.6723  2.6718
16580TIP3   OH271154   2.340   2.419   4.771  0.1784  0.4271  0.2623
16580TIP3    H171155   2.358   2.336   4.728 -0.8323  0.2435  0.1521
16580TIP3    H271156   2.259   2.403   4.820  0.2218  1.2100  0.6076
16581TIP3   OH271157   5.385   2.592  12.793 -0.3522  0.0085  0.0723
16581TIP3    H171158   5.392   2.561  12.703  2.1203  1.2252 -0.2331
16581TIP3    H271159   5.293   2.581  12.815 -1.0869 -0.0659 -2.6907
16582TIP3   OH271160   0.557   0.532   3.981 -0.1805  0.3470  0.5658
16582TIP3    H171161   0.586   0.600   3.920 -0.8831 -0.2419 -0.4407
16582TIP3    H271162   0.560   0.575   4.067  0.0254  1.4451  0.0330
16583TIP3   OH271163   2.547   2.563  12.455  0.6871 -0.8045 -0.4524
16583TIP3    H171164   2.624   2.620  12.446  0.3144 -0.3307 -0.6951
16583TIP3    H271165   2.548   2.537  12.548  0.1591  0.6442 -0.0082
16584TIP3   OH271166   1.230   0.852   1.790 -0.6544 -0.1961 -0.0313
16584TIP3    H171167   1.267   0.880   1.706 -1.8304  1.7140  0.0198
16584TIP3    H271168   1.300   0.868   1.853  0.0002 -0.9933 -0.5364
16585TIP3   OH271169   3.583   2.035  11.648  0.2486 -0.3012 -0.0120
16585TIP3    H171170   3.658   2.015  11.592 -0.2455 -0.1105 -0.7659
16585TIP3    H271171   3.526   1.958  11.640  0.0968 -0.2013  0.0981
16586TIP3   OH271172   5.060   6.310   3.585 -0.7299 -0.1836  0.0422
16586TIP3    H171173   5.073   6.246   3.515 -4.4410  0.5977 -1.5567
16586TIP3    H271174   5.016   6.261   3.655 -2.5858  0.3177 -0.7395
16587TIP3   OH271175   3.797   2.737  11.506  0.0356 -0.4780  0.2094
16587TIP3    H171176   3.809   2.689  11.424  0.7377 -0.9358  0.5777
16587TIP3    H271177   3.784   2.828  11.478 -0.7213 -0.7758 -0.4572
16588TIP3   OH271178   0.111   2.212  10.505 -1.0887  0.2919  0.4042
16588TIP3    H171179   0.178   2.221  10.438 -0.4837  0.5152  1.0235
16588TIP3    H271180   0.115   2.120  10.531 -1.3162  0.2078  0.1464
16589TIP3   OH271181   2.246   4.666   4.944  0.9445  0.2517  0.1689
16589TIP3    H171182   2.194   4.588   4.963  0.4345 -0.2638 -2.9686
16589TIP3    H271183   2.293   4.683   5.026 -1.6524 -1.1615  2.1059
16590TIP3   OH271184   2.367   4.828   1.450  0.0212  0.3820  0.1233
16590TIP3    H171185   2.430   4.899   1.433 -1.5201  1.8051  0.1270
16590TIP3    H271186   2.348   4.836   1.544 -2.9054  2.4320 -0.5093
16591TIP3   OH271187   2.608   5.604  16.096 -0.4915  0.4060 -0.2052
16591TIP3    H171188   2.660   5.576  16.171 -0.7033  2.5247  0.8003
16591TIP3    H271189   2.596   5.524  16.044  2.3490 -0.4819  0.3370
16592TIP3   OH271190   2.323   3.861   4.859  0.5018 -0.2094 -0.2184
16592TIP3    H171191   2.350   3.889   4.771 -2.2518 -1.0179 -1.4195
16592TIP3    H271192   2.332   3.939   4.913  3.3151  0.0265 -0.8720
16593TIP3   OH271193   2.111   4.525   5.286  0.3212  0.4006 -0.1206
16593TIP3    H171194   2.102   4.443   5.335  0.1340  1.4396  1.6596
16593TIP3    H271195   2.054   4.587   5.332  1.2703  1.8241 -0.7804
16594TIP3   OH271196   3.149   4.349  11.460  0.2410  0.5119  0.1344
16594TIP3    H171197   3.194   4.369  11.378 -0.3807  0.1107 -0.3032
16594TIP3    H271198   3.219   4.349  11.525  0.6129  1.7912 -0.2223
16595TIP3   OH271199   3.070   2.051   2.216  0.3634  0.5540 -0.0546
16595TIP3    H171200   3.053   1.993   2.141  2.1485  0.7784 -0.6783
16595TIP3    H271201   2.989   2.101   2.225 -1.0787 -1.6647  0.2100
16596TIP3   OH271202   2.626   3.533  14.870 -0.1244 -0.4410 -1.2237
16596TIP3    H171203   2.533   3.517  14.888 -0.2074  1.3471  0.2588
16596TIP3    H271204   2.636   3.515  14.777 -1.8110 -1.2477 -1.2897
16597TIP3   OH271205   1.619   4.755   5.790 -0.3135  0.4593 -0.4516
16597TIP3    H171206   1.565   4.695   5.842  1.0708  0.5374  1.1651
16597TIP3    H271207   1.602   4.842   5.827  1.5432  0.3779  0.7099
16598TIP3   OH271208   4.822   4.959   3.612 -0.5494 -0.0394 -0.3571
16598TIP3    H171209   4.875   5.036   3.629  1.3669 -1.6379  1.4629
16598TIP3    H271210   4.885   4.886   3.610 -2.3365 -1.6749 -1.3130
16599TIP3   OH271211   4.112   2.037   2.018  0.3524 -0.0611 -0.6468
16599TIP3    H171212   4.141   2.112   1.966 -0.8900  0.2595 -0.9303
16599TIP3    H271213   4.188   1.980   2.025  1.9333  2.1034  1.2047
16600TIP3   OH271214   0.327   1.617  14.530 -0.0017  0.4188 -0.0714
16600TIP3    H171215   0.305   1.599  14.438 -0.7176  2.1551 -0.2805
16600TIP3    H271216   0.243   1.623  14.574  0.3196  0.1989  0.5881
16601TIP3   OH271217   5.162   4.465  16.000 -0.5361  0.2227 -0.2479
16601TIP3    H171218   5.235   4.410  15.969  1.2120  2.5685 -0.5761
16601TIP3    H271219   5.083   4.417  15.974  0.8600 -2.0898 -0.5195
16602TIP3   OH271220   5.462   0.685   6.151  0.2652  0.0348 -0.2603
16602TIP3    H171221   5.391   0.661   6.211  0.4788  2.7772  1.2458
16602TIP3    H271222   5.427   0.668   6.064 -1.2615 -1.0621  0.5258
16603TIP3   OH271223   4.528   0.947  12.016 -0.0699 -0.0688 -0.5338
16603TIP3    H171224   4.570   0.870  11.978 -0.2446 -0.2561 -0.3495
16603TIP3    H271225   4.529   1.012  11.946 -2.2516 -1.0639 -1.5734
16604TIP3   OH271226   0.827   0.852  11.165 -0.0663  0.4919 -0.3730
16604TIP3    H171227   0.769   0.785  11.201 -2.1128  2.3914  0.0680
16604TIP3    H271228   0.859   0.815  11.082 -0.2320 -1.4369  0.3942
16605TIP3   OH271229   2.212   2.740  14.931 -0.2326  0.4966 -0.5604
16605TIP3    H171230   2.210   2.736  14.835 -0.1427  2.5644 -0.6828
16605TIP3    H271231   2.181   2.654  14.959  0.2692 -0.3434 -2.4352
16606TIP3   OH271232   3.322   3.781   5.603 -0.3607  0.0287  0.4347
16606TIP3    H171233   3.380   3.705   5.608  0.6217  0.8017  1.1017
16606TIP3    H271234   3.373   3.847   5.557 -0.2164  1.1561  2.1472
16607TIP3   OH271235   6.791   4.602  15.839 -0.2943  0.1108 -0.2355
16607TIP3    H171236   6.770   4.695  15.851 -0.1027  0.1696 -0.3425
16607TIP3    H271237   6.878   4.603  15.800 -0.5961 -0.0897 -0.9376
16608TIP3   OH271238   3.884   3.667  15.326 -0.3139 -0.5810 -0.4928
16608TIP3    H171239   3.869   3.742  15.384  1.3387  0.2052 -1.0328
16608TIP3    H271240   3.933   3.703  15.253  0.8369 -2.2639 -0.5814
16609TIP3   OH271241   6.397   0.065  13.389  0.0700 -0.0626  0.0465
16609TIP3    H171242   6.402   0.153  13.353 -1.5853  0.5467  1.1935
16609TIP3    H271243   6.334   0.019  13.332 -0.5121  0.0954  0.5473
16610TIP3   OH271244   1.133   2.178   0.826  0.2773  0.0424 -0.1672
16610TIP3    H171245   1.067   2.157   0.760  0.7689  0.4960 -0.8149
16610TIP3    H271246   1.122   2.271   0.843  0.7113  0.1131 -0.2462
16611TIP3   OH271247   3.861   6.363   0.382  0.1011 -0.2436 -0.5680
16611TIP3    H171248   3.807   6.287   0.364  0.6185 -0.8250  0.2581
16611TIP3    H271249   3.865   6.368   0.478 -1.7836  2.1698 -0.5302
16612TIP3   OH271250   6.768   2.372   3.337  0.3532 -0.4115  0.2304
16612TIP3    H171251   6.717   2.327   3.270  0.7610 -0.7097  0.1134
16612TIP3    H271252   6.716   2.448   3.360 -0.0348 -0.5888 -0.0513
16613TIP3   OH271253   5.079   5.170  14.439  0.6103 -0.0268  0.1824
16613TIP3    H171254   4.999   5.144  14.485  0.7417 -1.1129 -0.1719
16613TIP3    H271255   5.059   5.256  14.402 -0.9579 -0.9396 -1.2245
16614TIP3   OH271256   5.294   1.556  15.629  0.3485  0.3831  0.6881
16614TIP3    H171257   5.383   1.557  15.665 -0.1401  1.7585  1.9703
16614TIP3    H271258   5.261   1.469  15.650  2.2362 -1.1956 -2.2082
16615TIP3   OH271259   2.795   1.710   1.753  0.1036 -0.1987 -0.1901
16615TIP3    H171260   2.802   1.777   1.685  0.5315  0.0698  0.1101
16615TIP3    H271261   2.884   1.702   1.788  0.5297 -2.4237 -1.6022
16616TIP3   OH271262   4.413   0.320   0.172  0.5149  0.1917 -0.0912
16616TIP3    H171263   4.333   0.271   0.191  0.4442 -0.2478 -1.4639
16616TIP3    H271264   4.406   0.344   0.080  1.9075  0.2535 -0.2084
16617TIP3   OH271265   3.821   3.890  14.912 -0.0522 -0.3096 -0.3361
16617TIP3    H171266   3.749   3.847  14.958  1.2495 -0.6766  1.4508
16617TIP3    H271267   3.862   3.946  14.977  0.7315  0.6175 -1.5713
16618TIP3   OH271268   6.791   2.088   5.912  0.3115 -0.4750 -0.3306
16618TIP3    H171269   6.724   2.135   5.962 -0.4242 -0.1185 -1.6120
16618TIP3    H271270   6.868   2.144   5.918 -0.6480  1.1651 -2.1319
16619TIP3   OH271271   0.833   4.716   1.807 -0.1238  0.5088  0.7364
16619TIP3    H171272   0.771   4.695   1.737 -0.1876  3.0475 -0.0792
16619TIP3    H271273   0.920   4.704   1.767 -0.1598  2.2147  0.0663
16620TIP3   OH271274   5.344   6.651  17.012  0.2090  0.1550  0.4157
16620TIP3    H171275   5.336   6.571  17.063  1.3553  0.2976  0.8405
16620TIP3    H271276   5.436   6.675  17.018  0.7483 -0.6182 -2.9335
16621TIP3   OH271277   3.769   1.440  13.137 -0.0857 -0.1024 -0.1012
16621TIP3    H171278   3.800   1.349  13.144  0.2412 -0.0655 -0.9677
16621TIP3    H271279   3.756   1.468  13.228 -2.4027 -1.7428  0.1450
16622TIP3   OH271280   0.403   5.879  12.276  0.6368  0.4363  0.5395
16622TIP3    H171281   0.309   5.884  12.257  1.1671 -1.6961 -4.0094
16622TIP3    H271282   0.442   5.947  12.221  1.9028  0.6956  1.6886
16623TIP3   OH271283   3.394   2.778  11.341  0.4797 -0.7421 -0.5676
16623TIP3    H171284   3.342   2.836  11.396  1.1686  0.0895 -0.7752
16623TIP3    H271285   3.427   2.710  11.401 -0.7279 -1.2152 -0.4169
16624TIP3   OH271286   5.364   0.069   4.670  0.2133 -0.0238 -0.3196
16624TIP3    H171287   5.402  -0.012   4.636  1.3202  0.7804 -1.0955
16624TIP3    H271288   5.319   0.108   4.595 -0.6431 -0.0896  0.1449
16625TIP3   OH271289   0.523   4.952  13.025 -0.0574 -0.1870  0.0397
16625TIP3    H171290   0.498   4.876  12.973 -0.2841 -0.2203  0.2000
16625TIP3    H271291   0.450   5.013  13.016  0.1799  0.0637 -0.1921
16626TIP3   OH271292   0.781   1.017   1.836 -0.3561 -0.0090  0.4377
16626TIP3    H171293   0.825   1.030   1.753 -1.9464  2.9600 -0.0719
16626TIP3    H271294   0.836   0.955   1.883  1.0383 -1.1439 -2.4508
16627TIP3   OH271295   4.386   3.424   0.502  0.0594  0.2951  0.1380
16627TIP3    H171296   4.385   3.458   0.412  1.8001 -1.7558 -0.7440
16627TIP3    H271297   4.456   3.473   0.545  1.1239 -0.6176 -0.4969
16628TIP3   OH271298   2.730   6.616  14.747 -0.1449  0.2847 -0.1315
16628TIP3    H171299   2.659   6.680  14.759 -0.1740  0.2272  0.0115
16628TIP3    H271300   2.738   6.574  14.833  0.9027  1.1579  0.2227
16629TIP3   OH271301   5.231   1.085   1.799 -0.1195  0.1665  0.1556
16629TIP3    H171302   5.151   1.137   1.804 -0.1361  0.3078 -1.1854
16629TIP3    H271303   5.206   0.998   1.830 -0.9807  0.0155 -0.9400
16630TIP3   OH271304   4.521   6.448   4.500  0.0761 -0.3618  0.1683
16630TIP3    H171305   4.552   6.406   4.420  2.4990 -0.2800  0.9813
16630TIP3    H271306   4.543   6.386   4.569 -2.0377 -0.4582  0.8510
16631TIP3   OH271307   1.103   6.573  16.329  0.1115 -0.2248  0.2227
16631TIP3    H171308   1.028   6.568  16.269 -2.1832 -1.9920  3.0119
16631TIP3    H271309   1.080   6.642  16.391  0.8837 -0.6407  0.9948
16632TIP3   OH271310   2.315   5.176  15.211  0.9041 -0.5170  0.2046
16632TIP3    H171311   2.294   5.082  15.205 -0.7768 -0.1807  0.4225
16632TIP3    H271312   2.279   5.203  15.295  0.2052  0.6146 -0.4421
16633TIP3   OH271313   4.437   5.261   3.058 -0.0977  0.5457  0.1751
16633TIP3    H171314   4.385   5.271   2.978  2.7106  0.5084 -1.7941
16633TIP3    H271315   4.526   5.284   3.032  1.8095 -3.6312  2.1286
16634TIP3   OH271316   5.471   5.362   3.817 -0.0703  0.3661 -0.1391
16634TIP3    H171317   5.405   5.386   3.881 -1.0739 -2.0351 -0.1590
16634TIP3    H271318   5.491   5.270   3.837  1.9553  0.5024 -1.2676
16635TIP3   OH271319   4.113   4.553   2.930  0.2962 -0.6921 -0.6416
16635TIP3    H171320   4.140   4.498   3.004 -1.0365  0.6175  0.8757
16635TIP3    H271321   4.160   4.635   2.943 -1.6270  0.3562  0.0714
16636TIP3   OH271322   2.613   3.299  10.443 -0.1463  0.0950  0.0061
16636TIP3    H171323   2.592   3.206  10.444 -2.6810  0.5585 -1.3969
16636TIP3    H271324   2.695   3.304  10.393 -0.5608 -1.3123 -0.8808
16637TIP3   OH271325   2.561   0.023  16.909  0.3039 -0.2182  0.6793
16637TIP3    H171326   2.478  -0.019  16.931  0.3906 -0.3342  0.7862
16637TIP3    H271327   2.546   0.062  16.823 -0.1781  0.6277  1.1404
16638TIP3   OH271328   0.677   3.399  14.224  0.0158  0.4370  0.3140
16638TIP3    H171329   0.709   3.416  14.135  1.7854 -0.8045  0.6871
16638TIP3    H271330   0.620   3.323  14.215 -0.7028  0.9838  0.0967
16639TIP3   OH271331   4.335   1.178   5.302  0.5066 -0.2638 -0.0812
16639TIP3    H171332   4.333   1.085   5.281 -1.7256 -0.0052 -1.3657
16639TIP3    H271333   4.259   1.215   5.256  0.5238  1.9574  1.4981
16640TIP3   OH271334   3.000   5.871  11.915 -0.1959 -0.5006 -0.1026
16640TIP3    H171335   2.961   5.954  11.942 -0.3192 -0.8352  0.7615
16640TIP3    H271336   3.023   5.884  11.823 -1.0210  0.1928 -0.2182
16641TIP3   OH271337   1.763   2.346  11.838  0.1332 -0.3148  0.9263
16641TIP3    H171338   1.739   2.373  11.750 -0.6876  0.8538  1.4904
16641TIP3    H271339   1.849   2.305  11.828 -1.2012 -2.9699 -0.8779
16642TIP3   OH271340   3.478   5.214   2.314  0.4710  0.3975 -0.3757
16642TIP3    H171341   3.385   5.203   2.295  0.4923  0.2071 -0.3756
16642TIP3    H271342   3.489   5.307   2.331  0.2657  0.4086 -0.3062
16643TIP3   OH271343   5.676   5.104  11.444 -0.7182 -0.1364  0.2235
16643TIP3    H171344   5.679   5.104  11.348 -0.1884  0.0531  0.2413
16643TIP3    H271345   5.589   5.139  11.465 -1.2591 -1.1542 -0.1924
16644TIP3   OH271346   2.103   6.059  16.259  0.0907  0.5143  0.3305
16644TIP3    H171347   2.130   6.066  16.350  1.3819 -0.4376  0.0521
16644TIP3    H271348   2.042   6.131  16.246  0.6365  1.2458  1.6859
16645TIP3   OH271349   4.817   0.869   5.820 -0.0824 -0.0908  0.0009
16645TIP3    H171350   4.819   0.859   5.915 -1.9571  1.4562  0.2709
16645TIP3    H271351   4.909   0.871   5.794  0.4736 -0.6676  1.7459
16646TIP3   OH271352   3.100   4.336   0.825 -0.0980 -0.3085 -0.6216
16646TIP3    H171353   3.133   4.350   0.914 -1.2196 -0.6035 -0.1387
16646TIP3    H271354   3.095   4.424   0.787 -0.0025 -0.1387 -0.2474
16647TIP3   OH271355   5.693   2.941   0.487  0.6304  0.3015  0.3114
16647TIP3    H171356   5.661   3.020   0.445  0.1157 -0.5615 -0.9908
16647TIP3    H271357   5.785   2.935   0.459  0.6836  0.4492  0.4491
16648TIP3   OH271358   2.785   5.698  16.305  0.0959  0.2175  0.9958
16648TIP3    H171359   2.824   5.720  16.390  1.0566 -0.3119  0.7159
16648TIP3    H271360   2.861   5.681  16.249 -0.5015  1.1792 -0.1519
16649TIP3   OH271361   2.240   3.663  13.568 -0.2539 -0.2436 -0.2093
16649TIP3    H171362   2.313   3.635  13.512  0.4505  0.3471  0.3971
16649TIP3    H271363   2.169   3.603  13.545 -0.1205  0.2313 -2.0331
16650TIP3   OH271364   3.354   0.555  17.011  0.7389 -0.6553 -0.4557
16650TIP3    H171365   3.450   0.554  17.003  0.6626 -2.1689 -1.5653
16650TIP3    H271366   3.338   0.536  17.103  1.4955 -0.6664 -0.3151
16651TIP3   OH271367   1.515   5.479   5.186  0.1841 -0.1067  0.2044
16651TIP3    H171368   1.575   5.504   5.255  1.8441 -1.9722 -0.4704
16651TIP3    H271369   1.531   5.385   5.173 -1.1951 -0.1440 -1.6209
16652TIP3   OH271370   5.643   0.351  11.530 -0.0384  0.0462  0.5203
16652TIP3    H171371   5.586   0.283  11.494 -2.8471  3.0546 -1.2523
16652TIP3    H271372   5.704   0.372  11.460  1.8424 -1.5229  1.5906
16653TIP3   OH271373   6.524   2.738   5.277  0.0970 -0.0055 -0.0861
16653TIP3    H171374   6.499   2.774   5.192 -0.1108 -0.2524 -0.1298
16653TIP3    H271375   6.446   2.749   5.331  0.7398  1.6336  0.5580
16654TIP3   OH271376   6.036   0.756  14.658  0.4604  0.6038 -0.1450
16654TIP3    H171377   6.081   0.774  14.740 -3.1129  0.6629  2.0382
16654TIP3    H271378   5.994   0.671  14.671 -0.5502  0.8097 -1.7012
16655TIP3   OH271379   6.623   4.141   0.031 -0.0918 -1.0106  0.5530
16655TIP3    H171380   6.673   4.096   0.099 -1.3589 -1.0762  1.4984
16655TIP3    H271381   6.638   4.090  -0.048  4.9312  1.4360 -0.4637
16656TIP3   OH271382   3.923   3.766   2.020 -0.0233 -0.0652 -0.3433
16656TIP3    H171383   3.883   3.782   1.935 -0.2208  0.5784 -0.1364
16656TIP3    H271384   3.979   3.842   2.035 -0.9342  0.4367  0.6436
16657TIP3   OH271385   6.045   0.373   1.653  0.3544 -0.0544 -0.3435
16657TIP3    H171386   6.033   0.395   1.746  3.0718  0.2365  0.0187
16657TIP3    H271387   6.005   0.287   1.643  0.1753 -0.1712  1.1577
16658TIP3   OH271388   3.462   6.427   0.651  0.1279 -0.4979  0.7121
16658TIP3    H171389   3.422   6.506   0.689  1.4791  0.4810  0.1689
16658TIP3    H271390   3.415   6.355   0.693 -0.8431  0.5779  1.5648
16659TIP3   OH271391   3.558   2.392  15.072  0.5709  0.4055  0.0505
16659TIP3    H171392   3.480   2.341  15.052  1.4568  0.3505 -4.0652
16659TIP3    H271393   3.532   2.483  15.060  0.6355  0.5397  0.8504
16660TIP3   OH271394   5.977   2.902  11.579 -0.1323  0.1321  0.1979
16660TIP3    H171395   5.897   2.895  11.528  0.2536 -0.9383 -0.2890
16660TIP3    H271396   6.048   2.894  11.515  0.3613 -0.2626  0.7805
16661TIP3   OH271397   5.426   1.888  15.886  0.3251  0.4684  0.8180
16661TIP3    H171398   5.337   1.863  15.911  0.7747 -1.3686  0.7073
16661TIP3    H271399   5.475   1.806  15.885  1.8848  1.3604  0.2580
16662TIP3   OH271400   4.494   1.925   0.373  0.5044 -0.2101 -0.2840
16662TIP3    H171401   4.493   1.839   0.416  0.1193 -1.1244 -2.0498
16662TIP3    H271402   4.416   1.926   0.318  1.6794  0.3561 -2.0255
16663TIP3   OH271403   6.704   2.528   5.184  0.2881  0.4077  0.1799
16663TIP3    H171404   6.655   2.604   5.214  0.4927  0.4947  0.2946
16663TIP3    H271405   6.760   2.561   5.114  0.1738  0.3071  0.0408
16664TIP3   OH271406   3.231   1.329  15.300 -0.3022 -0.3038 -0.0780
16664TIP3    H171407   3.215   1.292  15.213  0.8168 -0.5353 -0.2052
16664TIP3    H271408   3.271   1.414  15.282 -2.3353  0.7708  0.2147
16665TIP3   OH271409   4.762   3.747  16.218 -0.2898  0.2014 -0.0774
16665TIP3    H171410   4.677   3.705  16.204  0.5607 -1.5377 -0.2310
16665TIP3    H271411   4.787   3.723  16.307 -0.3728  1.5529  0.3431
16666TIP3   OH271412   2.251   1.451  16.304  0.0273  0.5231 -0.0902
16666TIP3    H171413   2.166   1.475  16.268  0.4903  1.0561 -0.8475
16666TIP3    H271414   2.305   1.432  16.227 -0.5886 -4.2001  0.3199
16667TIP3   OH271415   6.731   0.395  14.229 -0.6469  0.1758 -0.6755
16667TIP3    H171416   6.728   0.485  14.262  0.4659  0.1465 -0.4348
16667TIP3    H271417   6.735   0.405  14.134  1.0270  0.4639 -0.6036
16668TIP3   OH271418   0.570   1.024   2.390 -0.0824 -0.1298  0.0236
16668TIP3    H171419   0.476   1.028   2.378 -0.0401  2.1493  0.0027
16668TIP3    H271420   0.582   1.009   2.484 -0.4326 -1.6915 -0.1607
16669TIP3   OH271421   4.266   2.525   4.505 -0.5216  0.8773 -0.4033
16669TIP3    H171422   4.204   2.595   4.526 -1.5994 -0.2313  0.2473
16669TIP3    H271423   4.350   2.557   4.537 -1.0797  1.6923  0.2803
16670TIP3   OH271424   2.601   3.747   3.626 -0.8672  0.0406 -0.2646
16670TIP3    H171425   2.599   3.666   3.575 -2.4912 -1.2989  1.7650
16670TIP3    H271426   2.663   3.730   3.697  0.5200  1.4773 -1.0459
16671TIP3   OH271427   5.389   1.727  15.426 -0.6448 -0.2777 -0.0308
16671TIP3    H171428   5.310   1.776  15.404 -0.8213 -0.4345  0.2390
16671TIP3    H271429   5.368   1.684  15.510 -0.3223 -0.4247 -0.0238
16672TIP3   OH271430   6.682   0.043  10.967  0.3044  0.6190  0.2183
16672TIP3    H171431   6.671  -0.030  10.906  0.3054  2.0859 -1.6300
16672TIP3    H271432   6.773   0.039  10.995  0.6382  0.6198 -0.8452
16673TIP3   OH271433   3.600   0.290  14.016  0.4202  0.5858  0.2911
16673TIP3    H171434   3.567   0.369  14.059  1.6643  2.1190 -1.4280
16673TIP3    H271435   3.638   0.321  13.934  0.7167 -1.8538 -0.5782
16674TIP3   OH271436   2.201   2.355   4.058  0.4773 -0.1264  0.0066
16674TIP3    H171437   2.242   2.318   4.136  1.3162  0.5451 -0.1010
16674TIP3    H271438   2.111   2.322   4.060  0.8759 -1.2241  0.5195
16675TIP3   OH271439   6.211   2.754  11.368  0.2725  0.2181 -0.0024
16675TIP3    H171440   6.130   2.735  11.320  0.9684  1.3003 -1.6665
16675TIP3    H271441   6.232   2.844  11.345  1.6320  0.1521  0.9055
16676TIP3   OH271442   3.307   5.710  16.892 -0.2873  0.0923  0.8668
16676TIP3    H171443   3.256   5.634  16.864 -0.5495  0.3725  0.5868
16676TIP3    H271444   3.334   5.689  16.982  2.5769 -1.9036 -0.2954
16677TIP3   OH271445   5.087   4.886  13.620  0.0960 -0.1192  0.2153
16677TIP3    H171446   5.143   4.832  13.565 -1.6223 -2.0191  0.2026
16677TIP3    H271447   5.023   4.923  13.560  0.8345  1.4030  0.3364
16678TIP3   OH271448   0.840   2.987   6.455  0.4953  0.1837  0.1122
16678TIP3    H171449   0.907   2.954   6.515 -1.4440 -0.8970  1.8044
16678TIP3    H271450   0.781   3.038   6.510 -0.3042  0.7997 -1.2614
16679TIP3   OH271451   3.272   1.824  13.360  0.3413 -0.2039 -0.0625
16679TIP3    H171452   3.221   1.841  13.439  1.7373 -2.4538  1.4521
16679TIP3    H271453   3.355   1.870  13.375  0.4440 -0.2686 -0.4224
16680TIP3   OH271454   1.293   1.819  16.423 -0.4082  0.3084 -1.1125
16680TIP3    H171455   1.212   1.769  16.417 -0.0105 -0.2901 -1.6688
16680TIP3    H271456   1.362   1.754  16.410  0.1191  1.0320 -2.0957
16681TIP3   OH271457   2.861   4.861   1.249  0.1504 -0.2456 -0.4421
16681TIP3    H171458   2.801   4.935   1.242 -0.1871 -0.3055  1.2862
16681TIP3    H271459   2.943   4.893   1.211 -0.1993  0.7831 -0.3706
16682TIP3   OH271460   2.623   1.015   4.670 -0.4783  0.4811 -0.2646
16682TIP3    H171461   2.577   0.979   4.594  1.4334  0.7381 -1.6047
16682TIP3    H271462   2.553   1.047   4.727 -1.9712  0.8845 -2.2098
16683TIP3   OH271463   2.234   4.046  12.749 -0.4947 -0.2485  0.0526
16683TIP3    H171464   2.232   4.036  12.844 -0.6055 -0.8273 -0.0089
16683TIP3    H271465   2.272   3.964  12.716  0.4160  0.3192 -0.3487
16684TIP3   OH271466   3.204   2.541   6.314 -0.5310 -0.4041 -0.4617
16684TIP3    H171467   3.165   2.486   6.382 -0.7352  1.0970  0.7140
16684TIP3    H271468   3.134   2.600   6.287  0.1355  0.4419 -0.3907
16685TIP3   OH271469   5.805   0.062  16.783  0.1791  0.1963 -0.1788
16685TIP3    H171470   5.862  -0.010  16.756  0.4244  0.2375  0.2254
16685TIP3    H271471   5.843   0.094  16.865  0.0401  0.7478 -0.3229
16686TIP3   OH271472   6.721   5.328  13.580 -0.0378 -0.2947 -0.0561
16686TIP3    H171473   6.642   5.274  13.589 -0.4210  0.1180 -0.8332
16686TIP3    H271474   6.754   5.337  13.669 -1.2948  0.1451  0.3873
16687TIP3   OH271475   2.455   4.917   2.877  0.0735  0.5222 -0.8122
16687TIP3    H171476   2.550   4.910   2.873  0.0677  0.6182 -1.1616
16687TIP3    H271477   2.439   5.000   2.922  0.1435 -0.4707  1.1599
16688TIP3   OH271478   6.556   1.640  17.086  0.4649 -0.0498  0.3582
16688TIP3    H171479   6.592   1.714  17.134  0.6999 -0.9981  1.7108
16688TIP3    H271480   6.611   1.566  17.111 -1.2150 -1.1645  0.9945
16689TIP3   OH271481   6.579   1.717  13.461 -0.2963 -0.3340  0.2037
16689TIP3    H171482   6.517   1.767  13.515  0.2522 -1.0066  1.5225
16689TIP3    H271483   6.537   1.631  13.451  0.4781 -0.8719  1.3073
16690TIP3   OH271484   1.871   2.078   1.834  0.0577 -0.6289  0.4399
16690TIP3    H171485   1.930   2.101   1.906 -0.5724  1.4677  0.3764
16690TIP3    H271486   1.914   2.112   1.756 -1.5033  1.7123  0.4876
16691TIP3   OH271487   3.654   2.134   2.555 -0.3845  0.1518  0.3657
16691TIP3    H171488   3.615   2.166   2.474 -0.1574  1.0982  0.6207
16691TIP3    H271489   3.747   2.121   2.533  0.1175  2.3486  0.9857
16692TIP3   OH271490   6.142   4.024   1.219 -0.8589 -0.2190  0.0435
16692TIP3    H171491   6.134   4.085   1.292  1.0873 -0.8937  0.8600
16692TIP3    H271492   6.072   3.961   1.233 -0.8512 -0.0222  1.0121
16693TIP3   OH271493   0.388   0.384   6.137 -0.1439  0.4432 -0.3242
16693TIP3    H171494   0.436   0.453   6.182 -0.3281  0.1007  0.4236
16693TIP3    H271495   0.434   0.303   6.161  0.2618  0.3267 -1.4457
16694TIP3   OH271496   1.929   2.669   1.190  0.2104  0.2473  0.1334
16694TIP3    H171497   1.883   2.747   1.160 -0.3632  0.0824  0.5671
16694TIP3    H271498   1.861   2.602   1.200  0.9154 -0.8835 -1.9719
16695TIP3   OH271499   3.907   6.249   4.808  0.0204  0.3405 -0.6021
16695TIP3    H171500   3.959   6.237   4.887  1.2675  0.9530 -1.3042
16695TIP3    H271501   3.950   6.196   4.742 -1.2576 -0.5059 -0.7954
16696TIP3   OH271502   0.769   6.784  15.080 -0.1307  0.2166 -0.6476
16696TIP3    H171503   0.723   6.867  15.064 -0.1798  0.1895 -0.6454
16696TIP3    H271504   0.708   6.733  15.132  1.0732  1.3642  2.0831
16697TIP3   OH271505   0.843   0.205   1.349  0.3625  0.3712 -0.2180
16697TIP3    H171506   0.776   0.178   1.285 -0.7896  2.9166 -0.1852
16697TIP3    H271507   0.895   0.126   1.363  1.2912 -0.1702 -4.9851
16698TIP3   OH271508   6.268   4.331  13.177 -0.1100  0.5812  0.1375
16698TIP3    H171509   6.299   4.333  13.087  0.2850  0.2752  0.2617
16698TIP3    H271510   6.326   4.269  13.221  0.2080  1.3125  0.7848
16699TIP3   OH271511   6.755   6.261   2.036 -0.1462 -0.1866 -0.3541
16699TIP3    H171512   6.792   6.261   1.948 -2.2819  0.2492 -1.3057
16699TIP3    H271513   6.689   6.192   2.035 -2.6704  2.0704 -0.2747
16700TIP3   OH271514   2.123   6.596   0.842 -0.7136  0.3406 -0.0329
16700TIP3    H171515   2.151   6.535   0.910 -0.8459  0.7468  0.3950
16700TIP3    H271516   2.201   6.607   0.787  0.3695  2.2322  1.7187
16701TIP3   OH271517   6.421   2.987   0.066  0.5006  0.0066  0.1805
16701TIP3    H171518   6.505   3.030   0.082  1.1500 -0.5200 -1.5274
16701TIP3    H271519   6.441   2.894   0.071 -0.2837 -0.1316  1.0313
16702TIP3   OH271520   1.859   5.344   1.889  0.3641 -0.4497  0.3513
16702TIP3    H171521   1.924   5.327   1.821  0.3535 -0.5199  0.3593
16702TIP3    H271522   1.840   5.259   1.927  0.4524 -0.3942  0.5187
16703TIP3   OH271523   1.652   5.288  13.569 -0.0962  0.1744 -0.0172
16703TIP3    H171524   1.708   5.310  13.495  0.8887  1.6273  1.1023
16703TIP3    H271525   1.692   5.332  13.644 -1.3916 -0.7503  1.2845
16704TIP3   OH271526   3.758   4.530   6.532 -0.6990  0.6087 -0.4492
16704TIP3    H171527   3.752   4.439   6.503  0.9899  0.1294  0.5381
16704TIP3    H271528   3.789   4.578   6.455  2.8407 -0.4815  0.0888
16705TIP3   OH271529   5.201   5.712  14.493 -1.1057 -0.7992  0.0127
16705TIP3    H171530   5.284   5.759  14.491 -2.5791  1.9731 -0.7807
16705TIP3    H271531   5.210   5.645  14.426  0.2767 -0.1818 -0.4568
16706TIP3   OH271532   6.656   0.923  14.886 -0.4357  0.1311  0.1302
16706TIP3    H171533   6.696   0.990  14.940  1.6709 -0.7625 -0.2144
16706TIP3    H271534   6.638   0.851  14.946 -1.7876  0.6022  0.3203
16707TIP3   OH271535   1.196   4.104   2.280 -0.0670  0.1976  0.1609
16707TIP3    H171536   1.252   4.059   2.217  1.0317  0.2264  1.0732
16707TIP3    H271537   1.208   4.055   2.362 -1.4119  0.1949  0.3845
16708TIP3   OH271538   4.838   6.089   6.435 -0.5543  0.0044  0.1794
16708TIP3    H171539   4.752   6.103   6.473  0.0534  0.7770  1.3370
16708TIP3    H271540   4.822   6.037   6.355 -2.1140  0.5747  0.1014
16709TIP3   OH271541   4.950   2.354   2.822 -0.2084 -0.4720  1.3853
16709TIP3    H171542   4.907   2.425   2.867 -0.4163 -1.3037  2.5511
16709TIP3    H271543   5.030   2.339   2.872  1.0968  0.5350 -0.2836
16710TIP3   OH271544   1.221   5.677   2.984 -0.4394  0.0784 -0.6180
16710TIP3    H171545   1.290   5.700   2.922 -0.2025 -2.0741 -1.2451
16710TIP3    H271546   1.141   5.673   2.931 -0.8350  1.2902 -0.1441
16711TIP3   OH271547   2.548   3.014  12.282 -0.7341  0.2990  0.0330
16711TIP3    H171548   2.461   3.048  12.261 -0.8222  0.2276  0.2819
16711TIP3    H271549   2.593   3.011  12.197 -1.6685 -1.6782 -0.4620
16712TIP3   OH271550   4.730   5.649   1.836  0.4682  0.2844  0.1167
16712TIP3    H171551   4.717   5.560   1.804  0.8627  0.4260 -0.4632
16712TIP3    H271552   4.801   5.641   1.900  0.0030  0.0706  0.6045
16713TIP3   OH271553   1.028   0.055   2.894  0.4578 -0.4296  0.3617
16713TIP3    H171554   0.949   0.018   2.933 -0.6958 -0.7078 -2.0242
16713TIP3    H271555   1.083  -0.020   2.873 -0.3129 -0.5946 -1.2548
16714TIP3   OH271556   0.412   0.999   1.706 -0.1396 -0.6382  0.4945
16714TIP3    H171557   0.481   1.033   1.649 -0.2589 -2.0433 -0.5381
16714TIP3    H271558   0.347   0.963   1.646 -1.3537 -0.1747  1.4801
16715TIP3   OH271559   0.474   0.698   2.814  0.0922 -0.0155  0.4982
16715TIP3    H171560   0.500   0.647   2.737  0.8057 -0.1291  0.8037
16715TIP3    H271561   0.408   0.644   2.857  0.1083 -0.2208  0.2698
16716TIP3   OH271562   3.781   6.650   2.757  0.7600  0.4513  0.5879
16716TIP3    H171563   3.746   6.565   2.730 -0.0601  0.8472  0.3770
16716TIP3    H271564   3.735   6.669   2.839  0.6661  0.8659  0.4393
16717TIP3   OH271565   6.435   6.481  17.009 -0.0724  0.2000  0.1790
16717TIP3    H171566   6.454   6.446  17.096 -0.7517 -0.3667  0.1005
16717TIP3    H271567   6.485   6.563  17.006  2.0146 -0.9880  0.1495
16718TIP3   OH271568   0.866   3.002  14.915  0.1066 -0.3670  0.3757
16718TIP3    H171569   0.915   3.008  14.833  1.3688 -1.5272  1.0050
16718TIP3    H271570   0.907   3.066  14.973  0.5932 -0.9961  0.7455
16719TIP3   OH271571   0.366   0.105  16.332  0.5521 -0.4189  0.6710
16719TIP3    H171572   0.328   0.159  16.262  0.7883  0.2509  1.0503
16719TIP3    H271573   0.301   0.037  16.347 -0.3798  0.5259  1.0883
16720TIP3   OH271574   2.965   6.629  14.987  0.0132 -0.5227  0.1480
16720TIP3    H171575   2.915   6.551  14.961  1.3747 -0.6588 -2.3933
16720TIP3    H271576   3.043   6.594  15.029 -0.0662 -0.4659  0.3438
16721TIP3   OH271577   1.864   1.193  11.237  0.3142  0.0209  0.1506
16721TIP3    H171578   1.847   1.118  11.294  3.1831 -0.2145  0.8985
16721TIP3    H271579   1.778   1.228  11.215 -1.0199 -2.1799  1.5533
16722TIP3   OH271580   3.240   2.960  14.354  0.1323 -0.3893  0.6208
16722TIP3    H171581   3.211   2.909  14.430 -0.5041 -0.0190  0.6308
16722TIP3    H271582   3.285   3.036  14.391 -1.4792  0.5687  0.6724
16723TIP3   OH271583   6.189   2.520  16.413 -0.4720  0.3043 -0.1149
16723TIP3    H171584   6.269   2.472  16.391 -0.3284  0.4255  0.1406
16723TIP3    H271585   6.168   2.568  16.333  0.2472  1.0228  0.1143
16724TIP3   OH271586   3.623   4.207  13.958 -0.4231 -0.1793 -0.2354
16724TIP3    H171587   3.647   4.152  14.032 -0.3180  1.4587  1.0031
16724TIP3    H271588   3.690   4.191  13.892  0.3278 -0.5644  0.6098
16725TIP3   OH271589   0.498   4.647  12.305  0.0710 -0.5143 -0.0211
16725TIP3    H171590   0.529   4.630  12.216 -0.6315 -2.0807  0.0130
16725TIP3    H271591   0.514   4.565  12.352 -1.8236 -0.5344  0.6474
16726TIP3   OH271592   1.761   6.228  10.291 -0.3040  0.2683 -0.4714
16726TIP3    H171593   1.802   6.230  10.377  0.6434 -0.0170 -0.9030
16726TIP3    H271594   1.690   6.165  10.299  1.1936 -1.5010 -0.4957
16727TIP3   OH271595   1.880   5.038  13.836  0.4686  0.2880  0.2462
16727TIP3    H171596   1.915   5.087  13.761  0.6533 -1.9045 -1.1761
16727TIP3    H271597   1.958   4.998  13.876  0.0042 -2.0371 -1.0315
16728TIP3   OH271598   0.394   1.622   6.259  0.1322  0.6278  0.7636
16728TIP3    H171599   0.311   1.665   6.239  0.2165  1.0340  1.2716
16728TIP3    H271600   0.393   1.542   6.206 -1.3616 -0.2714  2.0652
16729TIP3   OH271601   3.568   6.160  15.766 -0.6516  0.0772  0.7836
16729TIP3    H171602   3.483   6.118  15.775 -0.8544  0.0525 -0.9205
16729TIP3    H271603   3.548   6.251  15.745 -0.3047 -0.1363 -0.5854
16730TIP3   OH271604   2.737   2.976  15.656 -0.0299  0.0822  0.0539
16730TIP3    H171605   2.687   3.032  15.596 -0.2972  0.9251  1.0461
16730TIP3    H271606   2.827   3.008  15.649  0.1267 -0.4811 -0.6352
16731TIP3   OH271607   3.435   5.481  14.487  0.1840  0.0039 -0.3576
16731TIP3    H171608   3.370   5.498  14.556 -0.9089 -1.0267 -1.1068
16731TIP3    H271609   3.519   5.498  14.530 -0.3796 -1.6679  1.6005
16732TIP3   OH271610   2.163   0.785  15.113  0.6865  0.2801  0.6734
16732TIP3    H171611   2.258   0.789  15.112  0.7064 -0.1401 -0.5137
16732TIP3    H271612   2.135   0.877  15.116  1.1205  0.4216  0.4683
16733TIP3   OH271613   6.322   6.070   0.141  0.4643  0.4409 -0.5886
16733TIP3    H171614   6.361   5.991   0.179  0.4799  1.3706  1.4608
16733TIP3    H271615   6.298   6.123   0.217  0.0369  2.2141 -1.9123
16734TIP3   OH271616   2.125   2.276   1.115  0.3532  0.5622 -0.1824
16734TIP3    H171617   2.182   2.335   1.164  2.1679 -1.2068 -0.0633
16734TIP3    H271618   2.141   2.297   1.023  0.6213  0.5653 -0.1335
16735TIP3   OH271619   1.987   5.572   5.426  0.6349  0.4764  0.1703
16735TIP3    H171620   1.989   5.597   5.519  0.2411 -0.1794  0.3659
16735TIP3    H271621   2.063   5.616   5.388  0.5813  1.0718  0.7193
16736TIP3   OH271622   0.678   0.320   5.751  0.2274 -0.2890  0.1106
16736TIP3    H171623   0.594   0.315   5.704 -0.3860  2.5240  0.7243
16736TIP3    H271624   0.657   0.287   5.839  0.6086 -2.5277 -0.5602
16737TIP3   OH271625   0.737   0.896   3.986  0.2040  0.3053  0.3492
16737TIP3    H171626   0.681   0.857   3.918  0.0304 -1.1007  1.2534
16737TIP3    H271627   0.803   0.828   4.004  1.0070  1.1570  0.7036
16738TIP3   OH271628   2.590   5.105   5.905  0.7098  0.0334 -0.3506
16738TIP3    H171629   2.551   5.184   5.868  1.2793  0.8280  0.7088
16738TIP3    H271630   2.515   5.050   5.928  0.2898  0.5502 -0.4670
16739TIP3   OH271631   1.618   3.576  13.263 -0.1952  0.4479 -0.5985
16739TIP3    H171632   1.590   3.643  13.200 -0.6705  0.0352 -0.8346
16739TIP3    H271633   1.544   3.565  13.322  0.4762  1.2810  0.4376
16740TIP3   OH271634   6.341   1.535  15.366  0.1423 -0.1064  0.1053
16740TIP3    H171635   6.263   1.558  15.416 -1.3314 -0.7042 -1.7812
16740TIP3    H271636   6.308   1.486  15.290  2.3543 -0.4031 -0.7621
16741TIP3   OH271637   4.568   3.743   1.562  0.3404 -0.1081 -0.1417
16741TIP3    H171638   4.590   3.779   1.476  1.3114 -0.4889 -0.0683
16741TIP3    H271639   4.613   3.801   1.624  2.1095 -1.5380 -0.0329
16742TIP3   OH271640   2.273   3.510   3.801  0.2721 -0.0217  0.0622
16742TIP3    H171641   2.185   3.486   3.773  0.3269 -0.8059  0.5262
16742TIP3    H271642   2.328   3.492   3.724  0.2206 -0.8478  0.2098
16743TIP3   OH271643   1.866   0.342  10.642  0.7205 -0.3218  0.4706
16743TIP3    H171644   1.863   0.354  10.737  1.2656  0.0646  0.4436
16743TIP3    H271645   1.815   0.416  10.607  0.3647 -0.5664  0.4660
16744TIP3   OH271646   4.053   2.065  13.019  0.7194  0.4512 -0.5412
16744TIP3    H171647   3.959   2.060  13.038  0.6938 -1.5199 -0.9176
16744TIP3    H271648   4.059   2.039  12.927  1.5682  1.4334 -0.7698
16745TIP3   OH271649   3.042   0.689  13.996 -0.4391 -0.6404  0.1374
16745TIP3    H171650   3.104   0.653  14.059 -1.4802 -0.4908  1.2914
16745TIP3    H271651   3.049   0.631  13.920  0.2696 -1.3059  0.6877
16746TIP3   OH271652   2.395   5.262  12.206 -0.1168  0.3680 -0.0088
16746TIP3    H171653   2.464   5.196  12.209 -1.8197 -1.7473 -2.6031
16746TIP3    H271654   2.441   5.345  12.223  3.0671 -0.8989 -1.5580
16747TIP3   OH271655   2.505   6.153   5.461 -0.1207  0.2362  0.3887
16747TIP3    H171656   2.593   6.160   5.499  0.2684 -1.7855 -0.0624
16747TIP3    H271657   2.447   6.152   5.537  0.3310  0.3333  0.7431
16748TIP3   OH271658   4.127   3.695   5.586  0.1837  0.4663  0.2146
16748TIP3    H171659   4.164   3.646   5.659 -0.9607  1.2276  1.3317
16748TIP3    H271660   4.081   3.629   5.533  1.6567 -0.2079 -0.2739
16749TIP3   OH271661   5.215   5.886   2.002 -0.1271  0.6430  0.5796
16749TIP3    H171662   5.247   5.928   1.923 -0.8362  1.1959  0.5737
16749TIP3    H271663   5.293   5.871   2.055  0.1421  2.0021  0.5933
16750TIP3   OH271664   5.486   6.654   3.102  0.8380  0.4622 -0.5457
16750TIP3    H171665   5.522   6.697   3.024 -1.5666  3.5515 -0.1511
16750TIP3    H271666   5.501   6.716   3.173 -0.3843 -0.5670  0.6717
16751TIP3   OH271667   0.312   4.236  15.138  0.2969  0.2234  0.0480
16751TIP3    H171668   0.372   4.250  15.065 -0.5532  1.0045 -0.5336
16751TIP3    H271669   0.244   4.302  15.125 -0.0899  0.0951  1.3201
16752TIP3   OH271670   0.334   3.918  15.704  0.7867  0.4957  0.3365
16752TIP3    H171671   0.372   3.978  15.768  0.6018  1.5208 -0.4838
16752TIP3    H271672   0.371   3.833  15.726  0.8443  0.8465  1.7019
16753TIP3   OH271673   0.189   5.452   5.488  0.0701  0.3471 -0.0235
16753TIP3    H171674   0.149   5.448   5.575  1.6905  0.9682  0.7929
16753TIP3    H271675   0.204   5.545   5.473  1.5478  0.1186 -0.1129
16754TIP3   OH271676   4.761   5.827  15.916 -0.1318 -0.5932  1.0500
16754TIP3    H171677   4.745   5.760  15.982 -2.3600 -1.2837 -0.0801
16754TIP3    H271678   4.688   5.888  15.925 -0.1748 -0.3971 -0.3760
16755TIP3   OH271679   6.710   5.693   2.254 -0.0355 -0.8295  0.4637
16755TIP3    H171680   6.758   5.639   2.191 -0.4763  0.9537 -1.5218
16755TIP3    H271681   6.722   5.648   2.338  2.1685 -2.2930 -0.5316
16756TIP3   OH271682   2.628   4.792  15.800 -0.3345  0.7259 -0.6476
16756TIP3    H171683   2.641   4.720  15.738 -2.7505 -1.2499  0.9810
16756TIP3    H271684   2.677   4.766  15.878 -2.0179  0.2722  0.3096
16757TIP3   OH271685   3.645   3.606  15.431  0.0432  0.5080  0.0939
16757TIP3    H171686   3.606   3.683  15.391  1.9541  1.4047 -0.1429
16757TIP3    H271687   3.736   3.608  15.404  0.1734 -1.8340  0.1086
16758TIP3   OH271688   5.703   1.203   4.182  0.6797 -0.2636 -0.6605
16758TIP3    H171689   5.636   1.147   4.221  0.9849 -0.0782  0.1505
16758TIP3    H271690   5.785   1.173   4.221  0.8202  0.9014 -0.0225
16759TIP3   OH271691   4.295   3.859   3.844 -0.5587  0.2353 -0.5021
16759TIP3    H171692   4.341   3.919   3.902 -1.8881  0.8774 -0.0951
16759TIP3    H271693   4.309   3.773   3.883  0.0169  0.4569 -0.2052
16760TIP3   OH271694   5.123   2.609  12.122 -0.0919  0.5208  0.0038
16760TIP3    H171695   5.206   2.573  12.090 -0.4151 -0.1600 -0.0934
16760TIP3    H271696   5.057   2.573  12.062 -0.4355  1.2025 -0.0270
16761TIP3   OH271697   1.433   4.148  15.566  0.4982 -0.0200 -0.2796
16761TIP3    H171698   1.428   4.104  15.651 -1.6634 -1.4563 -1.0671
16761TIP3    H271699   1.521   4.127  15.534  1.4892  0.8510  1.7132
16762TIP3   OH271700   2.905   6.614  15.566  0.2619 -0.7415 -0.0344
16762TIP3    H171701   2.839   6.561  15.520  1.2520 -2.0064 -0.0693
16762TIP3    H271702   2.884   6.602  15.659 -2.8892  3.2893  0.0582
16763TIP3   OH271703   2.176   5.031   3.067  0.1819  0.0025 -0.2194
16763TIP3    H171704   2.267   5.052   3.050  0.2369  1.1469  1.2488
16763TIP3    H271705   2.128   5.110   3.043 -0.0870  0.3968  1.4297
16764TIP3   OH271706   4.949   5.304   2.055 -0.0466  0.3223  0.1645
16764TIP3    H171707   5.019   5.257   2.100  1.6885  0.8140 -1.8470
16764TIP3    H271708   4.873   5.246   2.060  1.6789 -2.2257 -1.1749
16765TIP3   OH271709   1.011   2.488  16.204 -0.0843 -1.0027  0.2482
16765TIP3    H171710   0.923   2.468  16.237 -0.4312 -0.9525 -0.6012
16765TIP3    H271711   1.035   2.570  16.247 -1.7066  0.6007 -1.6952
16766TIP3   OH271712   3.735   5.688  13.557 -0.2465  0.0464  0.0531
16766TIP3    H171713   3.795   5.690  13.482 -0.3298 -0.0685 -0.0181
16766TIP3    H271714   3.650   5.666  13.518 -0.0918 -1.0957  0.3017
16767TIP3   OH271715   6.327   4.581   4.998 -0.1771 -0.5065  0.5977
16767TIP3    H171716   6.242   4.536   5.000 -0.5781  0.2528  1.3319
16767TIP3    H271717   6.317   4.653   5.060  0.4706  0.5611 -0.4972
16768TIP3   OH271718   5.178   3.730  15.479  0.9246 -0.0088 -0.3899
16768TIP3    H171719   5.231   3.653  15.462  1.8197  0.0507  1.8049
16768TIP3    H271720   5.177   3.778  15.396  0.2552 -2.3861 -1.8317
16769TIP3   OH271721   3.697   4.225   3.324  0.1730 -0.8569 -0.6744
16769TIP3    H171722   3.630   4.158   3.338  1.1371 -1.7206 -0.0357
16769TIP3    H271723   3.648   4.302   3.295 -0.9011 -2.0578 -2.2665
16770TIP3   OH271724   6.213   1.411  12.927 -0.4724  0.2133 -0.2120
16770TIP3    H171725   6.305   1.395  12.948 -0.7421  0.7399  1.5030
16770TIP3    H271726   6.213   1.498  12.887 -0.0804 -0.3436 -1.4613
16771TIP3   OH271727   4.152   4.090  10.994  0.7519 -0.0902  0.6984
16771TIP3    H171728   4.123   3.999  10.998  1.7471 -0.5443 -1.2755
16771TIP3    H271729   4.219   4.096  11.063  1.7132 -1.2820 -0.0940
16772TIP3   OH271730   4.876   1.714   3.190 -0.3235  0.1405  0.1153
16772TIP3    H171731   4.943   1.659   3.229 -0.3808 -0.3010 -0.3947
16772TIP3    H271732   4.920   1.758   3.117 -0.3377  0.5981  0.3788
16773TIP3   OH271733   2.003   6.116   3.779  0.2872 -0.1722 -0.0769
16773TIP3    H171734   1.933   6.177   3.757 -0.6607 -1.2268 -0.0197
16773TIP3    H271735   2.083   6.169   3.774 -0.2516  0.5181 -2.3943
16774TIP3   OH271736   4.891   5.324   1.194 -1.1226  0.5729 -0.0090
16774TIP3    H171737   4.953   5.394   1.215 -0.3935  0.2204 -0.9309
16774TIP3    H271738   4.841   5.311   1.274  0.4011  0.4485  0.9530
16775TIP3   OH271739   2.420   4.991  11.270 -0.2349  0.4532  0.6611
16775TIP3    H171740   2.424   4.953  11.182 -1.9460 -1.3338  1.2816
16775TIP3    H271741   2.510   5.017  11.289  0.4587 -0.5490 -1.0131
16776TIP3   OH271742   3.922   4.722   6.041  0.0966  0.0142 -0.1076
16776TIP3    H171743   3.933   4.783   5.968 -0.9542  0.1435 -0.1864
16776TIP3    H271744   3.985   4.750   6.107  1.6418 -0.6133 -1.2778
16777TIP3   OH271745   4.532   2.110   4.490  0.3097 -0.2905 -0.0539
16777TIP3    H171746   4.532   2.056   4.411  0.7170  0.1579 -0.3640
16777TIP3    H271747   4.575   2.191   4.464  2.9336 -1.1436  1.3429
16778TIP3   OH271748   4.565   1.436  11.767  0.4587  0.4868 -0.2110
16778TIP3    H171749   4.515   1.456  11.846  0.6699 -1.7608  0.5756
16778TIP3    H271750   4.534   1.499  11.702 -2.0457  0.3577  0.7575
16779TIP3   OH271751   1.615   3.924   4.012 -0.1552 -0.6898 -0.4451
16779TIP3    H171752   1.662   3.971   3.943  0.4582 -0.8776 -0.1648
16779TIP3    H271753   1.555   3.989   4.049  0.2618 -0.2896 -0.4571
16780TIP3   OH271754   1.957   4.672  14.677  0.8490  0.0846  0.8733
16780TIP3    H171755   1.890   4.616  14.717  0.7183 -0.8678 -0.6105
16780TIP3    H271756   2.039   4.644  14.718  0.6468 -0.4198  0.9372
16781TIP3   OH271757   0.011   4.873   5.964 -0.1597 -0.4141 -0.0407
16781TIP3    H171758   0.018   4.907   6.054  0.3131 -0.0394 -0.2195
16781TIP3    H271759  -0.063   4.921   5.927 -2.4033 -2.7385  1.1065
16782TIP3   OH271760   4.063   4.739   3.584 -0.0365  0.7801 -0.1392
16782TIP3    H171761   4.096   4.671   3.525 -0.2242  1.0228 -0.5307
16782TIP3    H271762   4.141   4.780   3.621  0.1343  1.6210 -1.3656
16783TIP3   OH271763   3.169   4.164  14.959  0.0621  0.1457 -0.1828
16783TIP3    H171764   3.153   4.208  15.043  1.0633  0.3221 -0.0643
16783TIP3    H271765   3.082   4.147  14.924 -0.3641  1.6247  0.0843
16784TIP3   OH271766   6.722   3.411  14.236 -0.7642  0.1452  0.1540
16784TIP3    H171767   6.728   3.417  14.141 -1.7047 -0.0201  0.0741
16784TIP3    H271768   6.657   3.342  14.252  0.2164 -0.6380  0.9266
16785TIP3   OH271769   2.991   5.849   2.925  0.3224  0.3537  0.1133
16785TIP3    H171770   3.062   5.813   2.978  0.3829  0.6371  0.2319
16785TIP3    H271771   3.010   5.943   2.921  0.5813  0.2664 -0.8275
16786TIP3   OH271772   3.936   6.080  16.795  0.4491 -0.6835 -0.4327
16786TIP3    H171773   3.998   6.041  16.857  1.4011  0.8634 -0.3747
16786TIP3    H271774   3.887   6.005  16.760  3.9328 -2.3447 -2.2875
16787TIP3   OH271775   5.118   0.415  17.043  0.3733  0.1505 -0.4888
16787TIP3    H171776   5.145   0.419  16.952  2.1017 -1.8848 -0.1649
16787TIP3    H271777   5.060   0.339  17.047  0.2127  0.2993  0.0682
16788TIP3   OH271778   4.406   2.183  10.696 -0.4807  0.3075  0.2851
16788TIP3    H171779   4.384   2.214  10.608  0.5306  0.9681  0.2567
16788TIP3    H271780   4.478   2.122  10.683 -1.7717 -1.3434  0.4499
16789TIP3   OH271781   6.684   6.105  12.595 -0.5479  0.4811 -0.3466
16789TIP3    H171782   6.769   6.149  12.589 -0.2773 -0.2485 -2.8384
16789TIP3    H271783   6.705   6.013  12.606 -1.1207  0.6130  2.8621
16790TIP3   OH271784   0.683   4.431   6.124  0.3500  0.2081 -0.1840
16790TIP3    H171785   0.669   4.414   6.217  0.5382  2.7572  0.3789
16790TIP3    H271786   0.757   4.375   6.100  0.8337  0.1329  1.3929
16791TIP3   OH271787   3.922   5.473  16.313 -0.1625  0.3592 -0.4876
16791TIP3    H171788   3.847   5.423  16.281  0.6755 -2.0560  1.0895
16791TIP3    H271789   3.934   5.444  16.404  2.5532  0.7595 -0.6271
16792TIP3   OH271790   1.336   0.736  10.537  0.4858  0.0487  0.4206
16792TIP3    H171791   1.272   0.721  10.468 -1.8040  0.2680  2.3749
16792TIP3    H271792   1.384   0.815  10.508 -1.5573  1.1432 -0.1612
16793TIP3   OH271793   4.521   1.832  12.531 -0.1709  0.2166 -0.5397
16793TIP3    H171794   4.533   1.831  12.626  0.1441  1.5648 -0.5402
16793TIP3    H271795   4.600   1.792  12.496 -0.2406 -0.1877 -0.2450
16794TIP3   OH271796   1.893   4.649  16.212 -0.8725  0.1673 -0.1585
16794TIP3    H171797   1.828   4.591  16.173 -0.3489 -0.7153  0.2723
16794TIP3    H271798   1.953   4.669  16.140  0.2431 -1.6700  0.1960
16795TIP3   OH271799   3.240   3.690  12.855  0.1935 -0.3932 -0.1849
16795TIP3    H171800   3.218   3.672  12.764  1.3335 -1.2377 -0.3120
16795TIP3    H271801   3.172   3.645  12.905 -0.5301  0.2046 -0.5994
16796TIP3   OH271802   2.874   4.888   5.357 -0.3590  0.2950 -0.1163
16796TIP3    H171803   2.797   4.869   5.411 -1.7135  0.6559 -1.8390
16796TIP3    H271804   2.897   4.804   5.318  0.0619  0.2089  0.3135
16797TIP3   OH271805   1.083   6.500  13.791  0.4849 -0.3653  0.0755
16797TIP3    H171806   1.071   6.554  13.870 -0.0033 -0.2940 -0.0446
16797TIP3    H271807   1.004   6.515  13.739 -0.3795 -2.3146  0.7097
16798TIP3   OH271808   5.154   5.023   2.343  0.2084 -0.1422 -0.0036
16798TIP3    H171809   5.131   5.051   2.431 -0.7524  1.5431 -0.7608
16798TIP3    H271810   5.082   5.053   2.288  0.5616 -1.5751 -1.3227
16799TIP3   OH271811   2.191   1.004  11.853 -0.6434  0.3235 -0.2863
16799TIP3    H171812   2.129   0.998  11.926  0.0728  1.4003  0.4525
16799TIP3    H271813   2.267   0.953  11.882  0.4297  2.3097  0.6274
16800TIP3   OH271814   2.608   4.913  16.216 -0.4386 -0.3131 -0.1920
16800TIP3    H171815   2.640   4.943  16.301  0.1581  0.8309 -0.8109
16800TIP3    H271816   2.537   4.973  16.194  0.9812  0.9326 -1.5872
16801TIP3   OH271817   4.376   6.381  14.973 -0.1660 -0.6106  0.4433
16801TIP3    H171818   4.435   6.394  15.048 -0.1185  0.3726  0.2374
16801TIP3    H271819   4.290   6.366  15.012 -0.4339  1.3796  0.6896
16802TIP3   OH271820   3.128   1.137  12.647 -0.5301  0.2432  0.1165
16802TIP3    H171821   3.035   1.120  12.664 -0.8907  3.5346  2.3485
16802TIP3    H271822   3.130   1.179  12.561 -0.9757 -0.4705 -0.2539
16803TIP3   OH271823   4.767   0.970   3.474 -1.0656 -0.1008  0.0971
16803TIP3    H171824   4.829   1.042   3.486 -1.4558  0.6766 -2.1859
16803TIP3    H271825   4.752   0.937   3.563  1.2414  0.8122  0.9136
16804TIP3   OH271826   0.024   0.269  11.439  0.2791 -0.2279  0.1619
16804TIP3    H171827  -0.063   0.307  11.454 -0.0501 -0.1749 -1.7100
16804TIP3    H271828   0.084   0.335  11.474 -0.3935  0.4169  0.1312
16805TIP3   OH271829   3.377   0.063  15.478  0.2020  0.0135 -0.6890
16805TIP3    H171830   3.417   0.079  15.393 -0.7724 -1.1571 -1.4143
16805TIP3    H271831   3.363   0.150  15.515  0.1520  0.5741 -1.9677
16806TIP3   OH271832   1.769   3.739  12.099  0.3143  0.3315 -0.4143
16806TIP3    H171833   1.726   3.746  12.014  1.7357  1.8865 -1.0611
16806TIP3    H271834   1.784   3.830  12.125  0.8404 -0.1384  1.0231
16807TIP3   OH271835   6.263   0.033  15.485 -0.2585 -0.0355 -0.1284
16807TIP3    H171836   6.239  -0.058  15.468  0.1288 -0.2454  0.3853
16807TIP3    H271837   6.195   0.065  15.544 -1.8377  0.8250 -2.3064
16808TIP3   OH271838   1.548   0.453   5.407  0.0572 -0.1487 -0.0097
16808TIP3    H171839   1.610   0.381   5.411  0.1931  0.0177  1.1719
16808TIP3    H271840   1.501   0.440   5.324  1.0243 -0.7923 -0.4774
16809TIP3   OH271841   0.251   0.156   3.876  0.0833  0.3668 -0.2732
16809TIP3    H171842   0.248   0.190   3.787 -2.3195  0.7631 -0.0850
16809TIP3    H271843   0.244   0.234   3.931 -0.9724 -0.0721  0.2205
16810TIP3   OH271844   2.856   2.376   1.633  0.7785  0.8714 -0.2081
16810TIP3    H171845   2.806   2.412   1.560  0.0053 -0.3139 -0.2823
16810TIP3    H271846   2.941   2.420   1.627  0.3332  1.6484 -1.1150
16811TIP3   OH271847   1.309   4.077  14.415  0.1225  0.4079  0.0766
16811TIP3    H171848   1.334   4.087  14.324  0.7546  0.0785  0.2095
16811TIP3    H271849   1.297   4.166  14.447 -1.4522  0.4973 -0.6829
16812TIP3   OH271850   4.826   6.286  14.484 -0.2574 -0.1275 -0.1073
16812TIP3    H171851   4.813   6.338  14.564 -0.6049  0.7755 -0.7328
16812TIP3    H271852   4.744   6.237  14.474  0.3489 -1.4245  0.8932
16813TIP3   OH271853   5.330   0.373   0.434 -0.0074 -0.6031 -0.3562
16813TIP3    H171854   5.265   0.402   0.370 -0.7400 -1.4699 -0.0204
16813TIP3    H271855   5.410   0.421   0.410 -0.8388  0.7175 -0.5834
16814TIP3   OH271856   1.347   1.858   4.842 -0.3340 -0.1889  0.3488
16814TIP3    H171857   1.275   1.858   4.779  1.5654  0.1052 -1.9722
16814TIP3    H271858   1.400   1.782   4.818  1.1829  0.7201  0.6814
16815TIP3   OH271859   1.770   3.090   1.252  0.2980  0.4119  0.4099
16815TIP3    H171860   1.838   3.051   1.307  0.4637 -1.2362 -0.8678
16815TIP3    H271861   1.768   3.034   1.175 -0.8567  1.8658 -0.6535
16816TIP3   OH271862   2.830   2.409   2.600  0.0828 -0.6949  0.3279
16816TIP3    H171863   2.853   2.395   2.508  0.7785  0.6810  0.2563
16816TIP3    H271864   2.884   2.484   2.626 -0.7400 -0.5223  1.6128
16817TIP3   OH271865   0.116   4.083   2.076  0.0898  0.0762  0.1544
16817TIP3    H171866   0.152   4.045   2.156 -0.2182  0.4003  0.4467
16817TIP3    H271867   0.021   4.082   2.089  0.0934  2.6110  0.9555
16818TIP3   OH271868   4.773   0.993   2.180  0.0006 -0.2476 -0.3795
16818TIP3    H171869   4.793   0.901   2.198  1.0361  0.2290  1.1130
16818TIP3    H271870   4.770   1.034   2.266 -3.1917  0.6510 -0.7816
16819TIP3   OH271871   6.285   2.254  12.923  0.1293  0.2646 -0.5454
16819TIP3    H171872   6.262   2.307  12.847 -0.9933  2.5929  1.2753
16819TIP3    H271873   6.318   2.317  12.987  0.9348 -1.5827  0.9561
16820TIP3   OH271874   2.308   4.443  16.771  0.6658 -0.1476  0.3350
16820TIP3    H171875   2.323   4.537  16.765 -0.5800  0.4195  3.8784
16820TIP3    H271876   2.220   4.430  16.735  0.1749  0.3423  1.3266
16821TIP3   OH271877   4.706   1.929   3.491 -0.4051 -0.1431  0.1020
16821TIP3    H171878   4.709   1.930   3.395  2.0876 -0.0898  0.1150
16821TIP3    H271879   4.645   1.858   3.512  0.4646 -1.4553 -1.5427
16822TIP3   OH271880   2.959   3.863   4.235 -0.1944 -0.2950 -0.1484
16822TIP3    H171881   2.914   3.805   4.174 -0.2507  1.2949 -1.6722
16822TIP3    H271882   2.889   3.909   4.281 -0.1392 -0.7464  0.4005
16823TIP3   OH271883   5.283   2.342  15.588 -0.2145 -0.4764 -0.1758
16823TIP3    H171884   5.192   2.313  15.596 -0.4014  0.2106  0.2556
16823TIP3    H271885   5.284   2.398  15.510 -0.4539  0.5551  0.5339
16824TIP3   OH271886   1.944   6.764   2.944  0.0193  0.0787  0.3349
16824TIP3    H171887   2.024   6.781   2.993 -0.0916 -0.4674  0.7217
16824TIP3    H271888   1.897   6.847   2.944  0.0437  0.1005  1.1268
16825TIP3   OH271889   1.763   5.038   4.975 -0.0080 -0.3476 -0.0938
16825TIP3    H171890   1.844   4.989   4.956 -0.8235 -1.1095 -1.8189
16825TIP3    H271891   1.755   5.099   4.903 -1.2160 -0.6005 -0.1801
16826TIP3   OH271892   2.747   2.167  10.668  0.5378  0.5423 -0.0267
16826TIP3    H171893   2.787   2.169  10.755 -1.3647  0.2990  0.9094
16826TIP3    H271894   2.752   2.075  10.641  0.2584  0.4389  0.2669
16827TIP3   OH271895   0.131   0.838   1.129 -0.3597 -0.6621  0.3435
16827TIP3    H171896   0.148   0.758   1.080 -0.1217 -0.4716  0.1144
16827TIP3    H271897   0.213   0.856   1.174 -0.1953 -0.1732 -0.1438
16828TIP3   OH271898   4.374   5.574   6.106 -0.1038 -0.3059  0.3098
16828TIP3    H171899   4.373   5.604   6.197  1.8802 -0.5287  0.4418
16828TIP3    H271900   4.390   5.480   6.112  1.8920 -0.0343 -0.2861
16829TIP3   OH271901   4.936   5.657  11.061  0.0855  0.4447 -0.7412
16829TIP3    H171902   5.002   5.723  11.039  1.6004 -0.4742  0.6987
16829TIP3    H271903   4.887   5.696  11.134  0.6350  0.2230 -0.2389
16830TIP3   OH271904   0.770   2.460   2.873  0.5498  0.3675 -0.2482
16830TIP3    H171905   0.674   2.463   2.879  0.3782  2.0122 -2.7863
16830TIP3    H271906   0.799   2.534   2.926  0.2916  1.0328 -1.0183
16831TIP3   OH271907   1.610   2.104  15.207  0.4339 -0.2029 -0.1323
16831TIP3    H171908   1.635   2.188  15.247  2.6275 -0.8107 -0.1142
16831TIP3    H271909   1.552   2.063  15.271 -0.9176  1.3811 -0.2614
16832TIP3   OH271910   3.570   5.486   4.172 -0.2739 -0.3817  0.4239
16832TIP3    H171911   3.540   5.444   4.252  0.4254 -1.4345  0.1576
16832TIP3    H271912   3.616   5.565   4.202  1.4435 -1.6233  1.2108
16833TIP3   OH271913   5.374   3.877  12.376 -0.3062  0.3379  0.3329
16833TIP3    H171914   5.428   3.799  12.387  0.5818  0.9795  0.6149
16833TIP3    H271915   5.422   3.946  12.420 -1.5184  0.8688  0.8791
16834TIP3   OH271916   5.584   2.354  15.231  0.0414  0.0759  0.3052
16834TIP3    H171917   5.535   2.288  15.280  0.2778  0.6191  1.3031
16834TIP3    H271918   5.518   2.402  15.182 -0.3548  0.3541  1.0945
16835TIP3   OH271919   3.043   4.914  13.568  0.5181  0.3338 -0.0211
16835TIP3    H171920   3.109   4.950  13.628 -0.3389 -1.0324  1.8472
16835TIP3    H271921   3.059   4.820  13.568 -0.1975  0.1946 -1.1176
16836TIP3   OH271922   6.555   6.409  10.158  0.6788 -0.0016  0.1620
16836TIP3    H171923   6.570   6.501  10.136  1.8975  0.2075  1.6775
16836TIP3    H271924   6.577   6.403  10.251 -0.8695 -1.5118  0.4883
16837TIP3   OH271925   6.604   2.893   4.776 -0.8620  0.8372  0.6951
16837TIP3    H171926   6.670   2.958   4.799  1.5596 -0.7155 -1.2306
16837TIP3    H271927   6.599   2.898   4.680  1.0776 -3.0369  0.1794
16838TIP3   OH271928   0.234   5.912   2.333  0.2567 -0.3009  0.2740
16838TIP3    H171929   0.245   5.888   2.241  0.0574  0.8002 -0.0525
16838TIP3    H271930   0.151   5.960   2.335  0.5949  0.2694  0.9022
16839TIP3   OH271931   1.565   2.378   0.344 -0.2658  0.8854 -0.4129
16839TIP3    H171932   1.619   2.445   0.385 -1.3722 -0.1523  3.1113
16839TIP3    H271933   1.626   2.329   0.288  2.0838  0.8257  2.0111
16840TIP3   OH271934   4.429   4.880   1.280 -0.1682  0.8308 -0.0112
16840TIP3    H171935   4.398   4.934   1.353 -1.7105 -1.2456  0.9851
16840TIP3    H271936   4.382   4.797   1.290  2.4839 -0.9571 -1.0690
16841TIP3   OH271937   1.674   6.299  13.474 -0.5922 -0.6163 -0.0035
16841TIP3    H171938   1.730   6.343  13.538  0.3512  1.3105 -2.0381
16841TIP3    H271939   1.644   6.220  13.519 -1.6577  1.5974  3.5578
16842TIP3   OH271940   0.186   1.355   1.020 -0.6059  0.1143  0.4064
16842TIP3    H171941   0.150   1.395   1.099  1.1466 -0.7668  1.7177
16842TIP3    H271942   0.249   1.291   1.052 -0.3753 -0.8103 -1.7124
16843TIP3   OH271943   2.827   5.214  14.375  0.2606  0.2211 -0.0057
16843TIP3    H171944   2.886   5.224  14.301 -0.1000  1.5227 -0.1301
16843TIP3    H271945   2.853   5.281  14.437 -0.5948  0.3216  0.2677
16844TIP3   OH271946   2.856   6.112   6.431 -0.8766  0.1717  0.3926
16844TIP3    H171947   2.796   6.169   6.478 -1.1258  0.9267 -0.7962
16844TIP3    H271948   2.937   6.162   6.423 -0.3662 -0.4966  1.2148
16845TIP3   OH271949   5.911   3.854   1.191  0.2851  0.0795  0.7462
16845TIP3    H171950   5.835   3.910   1.187  0.9910  1.0032 -0.9966
16845TIP3    H271951   5.919   3.829   1.283 -0.5254  2.1489  1.4150
16846TIP3   OH271952   3.065   3.576  12.617 -0.0995  0.2729 -0.0539
16846TIP3    H171953   2.992   3.629  12.648 -2.7364 -2.1396 -1.6218
16846TIP3    H271954   3.050   3.569  12.522  2.1800 -0.3612 -0.4186
16847TIP3   OH271955   6.458   5.368  11.732  0.2745 -0.4630 -0.2439
16847TIP3    H171956   6.378   5.420  11.737  0.1636 -0.5576 -0.8796
16847TIP3    H271957   6.454   5.327  11.645  1.4260  0.2144 -0.6479
16848TIP3   OH271958   1.849   4.231  14.605 -1.0917 -0.0369  0.4537
16848TIP3    H171959   1.896   4.304  14.565  1.7135 -1.4721  0.9233
16848TIP3    H271960   1.810   4.184  14.531  0.2109 -0.1227 -0.1945
16849TIP3   OH271961   0.486   3.474  12.092  0.3144 -0.1143 -0.1165
16849TIP3    H171962   0.522   3.464  12.004  2.3702  1.1041  0.5084
16849TIP3    H271963   0.482   3.569  12.106 -2.7279 -0.1757  0.1051
16850TIP3   OH271964   5.669   5.309  16.477  0.1747 -0.5448  0.5399
16850TIP3    H171965   5.614   5.385  16.455 -1.3182 -1.7571 -0.1118
16850TIP3    H271966   5.720   5.294  16.398  1.0209  0.1955  0.9252
16851TIP3   OH271967   1.357   0.222   2.910  0.0443 -0.5246  0.5468
16851TIP3    H171968   1.376   0.135   2.875  1.8708  0.0541 -0.0148
16851TIP3    H271969   1.414   0.280   2.860 -1.7741  1.1384  0.2878
16852TIP3   OH271970   4.680   2.198  16.992 -0.8953 -0.1086 -0.3918
16852TIP3    H171971   4.603   2.149  16.964 -1.1760 -0.3067  0.6651
16852TIP3    H271972   4.727   2.138  17.050 -0.9155  0.6530  0.4350
16853TIP3   OH271973   4.433   4.222   6.005  1.0552 -0.3464 -0.3861
16853TIP3    H171974   4.476   4.202   6.088  0.7177 -1.6383 -0.5136
16853TIP3    H271975   4.483   4.297   5.971  0.0706  1.4563  1.8165
16854TIP3   OH271976   1.906   1.527   5.226 -0.4121  0.4417  0.4619
16854TIP3    H171977   1.838   1.466   5.255 -0.6579  0.3197 -0.3595
16854TIP3    H271978   1.981   1.470   5.206 -0.6478  0.4056 -0.3244
16855TIP3   OH271979   3.986   3.483   5.431  0.5661 -0.2487 -0.7183
16855TIP3    H171980   4.011   3.411   5.488  1.0209  0.3604 -0.1210
16855TIP3    H271981   3.908   3.452   5.385 -1.2041 -0.0097  1.8589
16856TIP3   OH271982   2.259   1.588  15.153 -0.6707  0.5247  0.1992
16856TIP3    H171983   2.286   1.541  15.074  0.0768  2.1390 -0.5529
16856TIP3    H271984   2.174   1.626  15.130 -0.5291  0.8573  0.2140
16857TIP3   OH271985   2.227   1.649   0.835  0.3710 -0.4927 -0.2499
16857TIP3    H171986   2.250   1.664   0.743  2.8312 -0.1956  0.3535
16857TIP3    H271987   2.291   1.700   0.885 -2.2844  1.2386  1.6757
16858TIP3   OH271988   0.279   3.216   0.114 -0.2646  0.1710  0.1517
16858TIP3    H171989   0.282   3.250   0.204  0.1495  2.3971 -0.6265
16858TIP3    H271990   0.276   3.121   0.124 -0.4577  0.3621  2.5154
16859TIP3   OH271991   6.001   4.391  14.867  0.0645  0.0323  0.1164
16859TIP3    H171992   6.011   4.417  14.959 -0.0999  1.2607 -0.1967
16859TIP3    H271993   5.952   4.309  14.871  0.0799  0.0581  1.1299
16860TIP3   OH271994   5.961   1.565  12.633 -0.0239 -0.2652 -0.6247
16860TIP3    H171995   5.999   1.618  12.704  0.4190 -0.4382 -0.7272
16860TIP3    H271996   5.970   1.475  12.662 -0.8910 -0.2866 -0.3995
16861TIP3   OH271997   1.397   2.311   4.645  0.0070 -0.2191  0.0190
16861TIP3    H171998   1.417   2.235   4.701 -0.7004  1.0995  2.2114
16861TIP3    H271999   1.463   2.309   4.577  0.5586 -2.2956  0.5386
16862TIP3   OH272000   5.627   6.606  14.900  0.0213  0.1199  0.0730
16862TIP3    H172001   5.584   6.529  14.863  0.9294  0.0639 -0.9174
16862TIP3    H272002   5.686   6.636  14.831  0.3127  1.1977  0.7679
16863TIP3   OH272003   5.572   5.031  13.232  0.2663  0.3429 -0.0677
16863TIP3    H172004   5.607   4.977  13.303  0.2360  1.1977  0.6083
16863TIP3    H272005   5.644   5.038  13.169  0.1875 -0.6879 -0.2859
16864TIP3   OH272006   3.358   5.049   1.023  0.8013 -0.0457 -0.5560
16864TIP3    H172007   3.362   5.140   0.994 -2.0904  0.9803  1.7704
16864TIP3    H272008   3.441   5.034   1.068  1.9237  0.8924 -2.2147
16865TIP3   OH272009   6.355   3.369  16.413  0.3474 -0.5784  0.2797
16865TIP3    H172010   6.315   3.341  16.331  0.8141  0.7557 -0.4510
16865TIP3    H272011   6.284   3.409  16.462  0.4085  0.2869 -0.3004
16866TIP3   OH272012   6.659   3.440   2.587 -0.3812  0.8029 -0.0661
16866TIP3    H172013   6.588   3.397   2.636  0.4793 -0.2591  0.2853
16866TIP3    H272014   6.739   3.406   2.626  0.3740  3.3316  0.7332
16867TIP3   OH272015   2.891   2.330   0.437 -0.1683 -0.5042  0.3183
16867TIP3    H172016   2.883   2.273   0.360 -0.9212 -0.4788  0.3641
16867TIP3    H272017   2.947   2.402   0.408 -2.2091  0.6764 -0.9595
16868TIP3   OH272018   0.468   4.945   2.294 -0.0501 -0.5351  0.0262
16868TIP3    H172019   0.480   4.854   2.322  3.0849 -0.2440  0.0056
16868TIP3    H272020   0.416   4.985   2.363  1.2917 -1.6261  1.7626
16869TIP3   OH272021   2.031   1.493  15.641  0.4265  0.2649  0.2593
16869TIP3    H172022   2.027   1.485  15.737  2.1057 -0.8571  0.2776
16869TIP3    H272023   1.975   1.423  15.609  0.8089 -0.1397  0.4494
16870TIP3   OH272024   2.203   2.726  16.882 -0.6543 -0.0220  0.7770
16870TIP3    H172025   2.292   2.736  16.847 -0.1045 -1.9883  1.5407
16870TIP3    H272026   2.205   2.775  16.965 -0.8098  1.3330  0.0154
16871TIP3   OH272027   0.459   1.927   0.053  0.1403 -0.5480  0.0348
16871TIP3    H172028   0.537   1.901   0.005  0.0263  0.2729 -0.6152
16871TIP3    H272029   0.397   1.956  -0.014  0.6377  2.3868  0.6887
16872TIP3   OH272030   2.436   1.709   2.929 -0.1244 -0.0026 -0.1456
16872TIP3    H172031   2.349   1.669   2.931  0.4382 -1.3157  3.0028
16872TIP3    H272032   2.487   1.654   2.869 -0.9432 -0.3190 -0.5645
16873TIP3   OH272033   4.324   3.507  13.205  0.2762 -0.3129  0.2556
16873TIP3    H172034   4.355   3.490  13.294  1.8346  0.7148 -0.0559
16873TIP3    H272035   4.352   3.597  13.186  0.2376 -0.6103 -1.3836
16874TIP3   OH272036   6.406   4.976  11.701 -0.2338  0.2820  0.4806
16874TIP3    H172037   6.420   4.960  11.608 -0.1241  1.3261  0.3080
16874TIP3    H272038   6.464   5.049  11.723 -1.6519  1.3254  0.9157
16875TIP3   OH272039   6.340   6.506   6.288  0.2417 -0.2051  0.1725
16875TIP3    H172040   6.413   6.481   6.346  0.2598 -1.8221 -0.5094
16875TIP3    H272041   6.274   6.541   6.348  1.9600  2.4511  0.7198
16876TIP3   OH272042   0.293   1.040   2.875 -0.4497  0.5945 -0.2214
16876TIP3    H172043   0.234   0.997   2.936  0.0125  1.1441  0.6248
16876TIP3    H272044   0.248   1.121   2.850 -0.4308  0.5961 -0.2511
16877TIP3   OH272045   4.654   5.976  15.143  0.5021 -0.3908  0.3791
16877TIP3    H172046   4.712   5.996  15.070  0.0471 -0.7056 -0.0804
16877TIP3    H272047   4.660   5.881  15.154 -2.6346 -1.0345 -2.0949
16878TIP3   OH272048   5.257   3.500  16.839  0.0427 -0.1947 -1.0553
16878TIP3    H172049   5.300   3.414  16.832 -2.8146 -1.6964 -1.7395
16878TIP3    H272050   5.264   3.537  16.751  0.0740 -0.3481 -1.1182
16879TIP3   OH272051   1.629   5.473   0.486  0.8421  0.6435 -0.2847
16879TIP3    H172052   1.640   5.405   0.552 -2.1683 -0.6437 -0.9457
16879TIP3    H272053   1.645   5.428   0.402  0.1321  1.0542 -0.6520
16880TIP3   OH272054   4.266   6.642  16.523  0.0246  0.4402  0.0793
16880TIP3    H172055   4.300   6.710  16.464  1.3443  0.3184  0.6492
16880TIP3    H272056   4.208   6.689  16.583 -0.1076  0.8304 -0.3481
16881TIP3   OH272057   5.895   2.855   4.708 -0.9640  0.0870 -0.3721
16881TIP3    H172058   5.815   2.894   4.673 -1.7512  0.3608  1.5559
16881TIP3    H272059   5.864   2.793   4.775  0.4123 -0.4292 -0.1725
16882TIP3   OH272060   3.651   4.432  13.373  0.0303 -0.2779  0.1169
16882TIP3    H172061   3.650   4.492  13.299 -1.1153 -0.2415  0.1462
16882TIP3    H272062   3.563   4.395  13.376  0.6389 -1.8208  0.2134
16883TIP3   OH272063   6.773   1.298  11.523 -0.2709  0.0339 -0.2341
16883TIP3    H172064   6.800   1.303  11.431  0.3264  3.7840 -0.0121
16883TIP3    H272065   6.769   1.389  11.552 -3.6129 -0.7812  2.6065
16884TIP3   OH272066   1.489   3.044  12.000 -0.0999  0.7467 -0.3090
16884TIP3    H172067   1.453   3.030  11.913  2.1972  0.2968 -1.2552
16884TIP3    H272068   1.523   2.958  12.026 -2.4171  0.3710  1.9344
16885TIP3   OH272069   5.413   4.621   5.169 -0.1339 -0.2905  0.0389
16885TIP3    H172070   5.429   4.622   5.074 -1.4290 -0.2940 -0.2029
16885TIP3    H272071   5.393   4.529   5.189 -0.9887 -0.1079  0.0870
16886TIP3   OH272072   6.147   4.080   4.925  0.7174 -0.0964  0.3627
16886TIP3    H172073   6.128   4.085   4.832 -1.2331 -1.1000  0.6578
16886TIP3    H272074   6.237   4.047   4.930  1.7092  2.0860 -1.1235
16887TIP3   OH272075   3.363   3.107   2.374 -0.2643  0.1282  0.2019
16887TIP3    H172076   3.290   3.164   2.349 -1.0912 -0.2827  1.5440
16887TIP3    H272077   3.363   3.110   2.470  2.5156  1.3810  0.2596
16888TIP3   OH272078   6.431   0.155   3.673  0.1795  0.0413 -0.7202
16888TIP3    H172079   6.506   0.213   3.687 -0.1695  0.0588  1.4672
16888TIP3    H272080   6.379   0.198   3.606  1.4814  0.6618 -1.3752
16889TIP3   OH272081   2.796   4.567  11.683 -0.4274 -0.4446  0.3691
16889TIP3    H172082   2.800   4.475  11.658 -0.8053 -0.2804 -0.3370
16889TIP3    H272083   2.886   4.598  11.677  0.0630 -1.2643  2.6442
16890TIP3   OH272084   6.640   2.462  12.857  1.0892 -0.0690 -0.2460
16890TIP3    H172085   6.711   2.515  12.820 -0.7807  0.5726 -3.2658
16890TIP3    H272086   6.607   2.515  12.929  2.4231  0.5102 -0.0174
16891TIP3   OH272087   1.965   1.511   6.392 -0.6913 -0.8234  0.2042
16891TIP3    H172088   1.997   1.546   6.475  0.7186 -2.8300  0.5931
16891TIP3    H272089   1.916   1.432   6.416  0.1340 -1.6955 -0.8688
16892TIP3   OH272090   5.881   3.393   3.410  0.4467  0.2076  0.3870
16892TIP3    H172091   5.855   3.337   3.337  0.1027  1.1088 -0.1977
16892TIP3    H272092   5.976   3.395   3.406  0.4012  1.2498 -0.8313
16893TIP3   OH272093   0.313   0.300  15.921  0.4824 -0.0520 -0.1356
16893TIP3    H172094   0.335   0.310  15.829  0.8970 -0.8751 -0.1302
16893TIP3    H272095   0.396   0.308  15.967  0.2627  0.4698  0.1900
16894TIP3   OH272096   1.250   1.572   2.096 -0.6180  0.4293  0.0770
16894TIP3    H172097   1.240   1.658   2.136  0.7037  0.6221  0.0388
16894TIP3    H272098   1.284   1.589   2.008 -2.0721 -0.0630 -0.6084
16895TIP3   OH272099   2.063   2.292  14.718  0.0433 -0.3507 -0.3655
16895TIP3    H172100   2.101   2.307  14.805 -0.7286 -0.5933  0.0195
16895TIP3    H272101   2.102   2.360  14.663 -1.4287  1.4958  0.7531
16896TIP3   OH272102   1.967   3.847  15.835  0.5023  0.4962 -0.5851
16896TIP3    H172103   2.029   3.864  15.907 -0.9101  1.6698  0.4197
16896TIP3    H272104   1.936   3.758  15.850  1.2769  0.2100 -0.6013
16897TIP3   OH272105   3.163   2.234   3.832 -0.0458  0.3536 -0.4985
16897TIP3    H172106   3.156   2.144   3.802 -0.8959  0.4402 -0.5940
16897TIP3    H272107   3.213   2.229   3.913  0.2133 -0.1621 -0.6873
16898TIP3   OH272108   6.083   5.879  15.159 -0.3251  0.4616 -0.0871
16898TIP3    H172109   6.151   5.867  15.094 -0.3438 -0.9745  0.1163
16898TIP3    H272110   6.001   5.861  15.113 -0.4564  0.7939  0.0094
16899TIP3   OH272111   0.181   1.516  11.431 -0.2939 -0.1569  0.3505
16899TIP3    H172112   0.210   1.438  11.384 -0.5991  0.1356 -0.3386
16899TIP3    H272113   0.196   1.495  11.523 -0.0595 -0.8974  0.1544
16900TIP3   OH272114   5.213   6.691  12.909 -0.1664 -0.3414  0.4881
16900TIP3    H172115   5.223   6.596  12.906 -0.5740 -0.3756 -1.0283
16900TIP3    H272116   5.301   6.724  12.928  0.2186 -0.9959 -0.0974
16901TIP3   OH272117   1.323   2.721   5.505 -0.1854  0.1331 -0.8588
16901TIP3    H172118   1.391   2.660   5.478  0.9602  1.0222 -0.0702
16901TIP3    H272119   1.310   2.777   5.429 -1.0477 -0.8731 -1.4909
16902TIP3   OH272120   0.157   2.584   5.728  0.0400  0.4466  0.1878
16902TIP3    H172121   0.240   2.632   5.738 -0.5561  1.0378  3.1578
16902TIP3    H272122   0.100   2.644   5.680  0.7311  0.7970 -0.2137
16903TIP3   OH272123   1.026   2.536  16.916  0.0542 -0.6055  0.0162
16903TIP3    H172124   1.020   2.455  16.966  1.5178 -0.7645 -0.0172
16903TIP3    H272125   1.115   2.535  16.880  0.4153  1.4221  0.7422
16904TIP3   OH272126   2.475   0.873   3.111  0.4741  0.1632 -0.1564
16904TIP3    H172127   2.433   0.875   3.025  0.1932  2.8076 -0.0509
16904TIP3    H272128   2.474   0.964   3.140  0.4904 -0.6486  2.7104
16905TIP3   OH272129   2.853   2.549  12.176  0.0891 -0.1485  0.3896
16905TIP3    H172130   2.776   2.604  12.187 -1.4688 -1.5493 -2.3098
16905TIP3    H272131   2.833   2.468  12.223 -0.6076 -0.8912 -1.1051
16906TIP3   OH272132   0.394   1.716  12.178 -0.2989  0.3697  0.3136
16906TIP3    H172133   0.477   1.731  12.225  1.0990  1.7773 -2.3800
16906TIP3    H272134   0.420   1.701  12.087 -3.0291  1.1433 -0.6955
16907TIP3   OH272135   0.379   2.185  16.814  0.0367 -0.2769  0.0205
16907TIP3    H172136   0.461   2.189  16.863 -1.7774  0.7887  3.2615
16907TIP3    H272137   0.359   2.277  16.793 -0.9065 -0.4137  0.3058
16908TIP3   OH272138   4.528   6.684  11.739  0.1645  0.1191 -0.4620
16908TIP3    H172139   4.537   6.739  11.817 -0.3964 -2.1722  1.3787
16908TIP3    H272140   4.617   6.658  11.717  0.4142  1.5571 -1.2370
16909TIP3   OH272141   0.852   6.407  15.082  0.2730 -0.4325  0.1658
16909TIP3    H172142   0.825   6.356  15.006  1.1661  1.9737 -1.8849
16909TIP3    H272143   0.770   6.429  15.127 -0.3299 -1.1862 -0.5438
16910TIP3   OH272144   1.075   4.491  15.107  0.1490 -0.4573  0.2809
16910TIP3    H172145   1.124   4.416  15.074  0.6187 -0.3712  0.7651
16910TIP3    H272146   1.128   4.567  15.082 -1.5502 -0.0394 -2.4617
16911TIP3   OH272147   2.312   3.773  12.660  0.4352  0.4206  0.3094
16911TIP3    H172148   2.386   3.780  12.599 -1.5567  1.0887 -2.2388
16911TIP3    H272149   2.235   3.776  12.603 -1.5672 -0.5413  2.8103
16912TIP3   OH272150   3.031   4.339  11.874  0.4432 -0.0559 -0.2228
16912TIP3    H172151   3.100   4.273  11.861  0.4388 -0.0064 -0.5151
16912TIP3    H272152   2.952   4.297  11.840 -0.0675 -0.8244  1.7620
16913TIP3   OH272153   1.116   3.322   1.775  0.3833  0.2912 -0.4146
16913TIP3    H172154   1.148   3.402   1.815  3.4492 -0.6522 -0.7717
16913TIP3    H272155   1.128   3.255   1.842 -1.8519 -0.0280 -0.2321
16914TIP3   OH272156   6.297   3.517   0.195  0.2910 -0.0330  0.0960
16914TIP3    H172157   6.392   3.521   0.212  0.3063 -0.3935  0.0995
16914TIP3    H272158   6.258   3.515   0.282  0.1505  2.4599  0.1773
16915TIP3   OH272159   0.163   5.697  14.715 -0.8795 -0.4651  0.7059
16915TIP3    H172160   0.158   5.610  14.754 -1.1235 -1.1643 -0.8074
16915TIP3    H272161   0.105   5.693  14.639 -0.1612  0.7320  0.0576
16916TIP3   OH272162   0.018   5.365  16.189  0.3652  0.3155  0.7739
16916TIP3    H172163   0.013   5.281  16.233 -1.1591  0.9447  1.8573
16916TIP3    H272164  -0.039   5.356  16.112  2.1577 -0.4151 -0.5421
16917TIP3   OH272165   2.444   4.221   2.943 -0.0190 -0.4233  0.6241
16917TIP3    H172166   2.348   4.219   2.945 -0.0607 -0.7726 -0.6275
16917TIP3    H272167   2.471   4.165   3.016 -0.7502  0.1772  1.3725
16918TIP3   OH272168   3.399   5.086  11.473 -0.0749 -0.2933  0.1599
16918TIP3    H172169   3.457   5.130  11.536  1.0796  0.1974 -1.1897
16918TIP3    H272170   3.351   5.158  11.431 -0.6186 -0.5925  0.2688
16919TIP3   OH272171   5.329   2.146  12.451 -0.0283 -0.4765 -0.1230
16919TIP3    H172172   5.417   2.128  12.416 -0.6037 -1.8467 -0.9560
16919TIP3    H272173   5.280   2.179  12.376 -1.0570 -2.6830 -0.4995
16920TIP3   OH272174   5.472   6.726   6.252  0.2399  0.6644  0.1028
16920TIP3    H172175   5.450   6.649   6.304 -1.9348 -0.3528 -2.0968
16920TIP3    H272176   5.568   6.725   6.248  0.3619 -0.6062  1.9544
16921TIP3   OH272177   4.228   4.256   2.125  0.0082  0.4666 -0.0493
16921TIP3    H172178   4.145   4.283   2.163  0.0705  1.8715 -0.8497
16921TIP3    H272179   4.288   4.250   2.200 -0.8807 -1.0504  0.6080
16922TIP3   OH272180   2.524   3.854  12.497  0.0212  0.2181 -0.0132
16922TIP3    H172181   2.523   3.921  12.566 -0.9678  0.3153 -0.1050
16922TIP3    H272182   2.571   3.895  12.425 -0.8994  0.9637 -0.2031
16923TIP3   OH272183   1.847   5.067   3.234  0.1531  0.3655 -0.2327
16923TIP3    H172184   1.847   5.155   3.271 -2.4339  0.3391  0.0688
16923TIP3    H272185   1.767   5.064   3.181  0.2975 -1.7154 -0.4120
16924TIP3   OH272186   5.433   6.225   3.110 -0.2145 -0.4984 -0.2213
16924TIP3    H172187   5.406   6.236   3.202 -0.6424 -1.5300 -0.2168
16924TIP3    H272188   5.405   6.137   3.087  2.0029 -1.1456 -0.6325
16925TIP3   OH272189   0.707   2.326  11.702  0.2462 -0.2067  0.0909
16925TIP3    H172190   0.646   2.257  11.678 -0.7475  0.5154  0.4963
16925TIP3    H272191   0.758   2.343  11.623 -0.2031 -0.6815 -0.3000
16926TIP3   OH272192   1.262   3.998  10.858  0.6904 -0.4322  0.2472
16926TIP3    H172193   1.246   3.927  10.920 -1.2688  0.6748  1.0824
16926TIP3    H272194   1.312   3.957  10.787  0.2446 -2.4618  1.0515
16927TIP3   OH272195   4.066   4.122   3.922  0.0673  0.4016 -0.0072
16927TIP3    H172196   4.046   4.031   3.900 -0.8899  0.6005 -0.0049
16927TIP3    H272197   4.070   4.168   3.838  1.6019  0.1772 -0.0893
16928TIP3   OH272198   6.682   4.748  14.808  0.3214  0.1614  0.0324
16928TIP3    H172199   6.768   4.788  14.799  0.1276  0.4955 -0.3868
16928TIP3    H272200   6.637   4.769  14.726 -1.1563  2.3911  1.3033
16929TIP3   OH272201   4.551   2.044   6.311 -0.1645  0.1973 -0.2570
16929TIP3    H172202   4.500   2.076   6.384 -2.3547 -1.2497 -1.0617
16929TIP3    H272203   4.592   2.122   6.273 -2.2930  1.5196  0.0593
16930TIP3   OH272204   1.156   3.381  14.654 -0.1401  0.0759 -0.0389
16930TIP3    H172205   1.129   3.349  14.568  1.0558 -0.7442 -0.1273
16930TIP3    H272206   1.082   3.361  14.711  0.6044 -3.2481 -0.0120
16931TIP3   OH272207   2.469   1.920   5.154  0.4120 -0.4100 -0.0016
16931TIP3    H172208   2.501   2.001   5.194  0.4988  0.3433 -1.5060
16931TIP3    H272209   2.386   1.902   5.197 -0.8644  1.8984 -1.3567
16932TIP3   OH272210   4.589   0.695  14.651 -0.7373 -0.6824  0.2341
16932TIP3    H172211   4.635   0.640  14.714  0.0877 -2.1466 -1.5474
16932TIP3    H272212   4.552   0.766  14.703  1.1536 -1.0049  2.1311
16933TIP3   OH272213   5.308   2.985  13.936  0.2724  0.8564 -0.1707
16933TIP3    H172214   5.219   3.016  13.919  0.6599  3.2404  1.6169
16933TIP3    H272215   5.340   2.956  13.851 -2.0588  0.2548 -0.9183
16934TIP3   OH272216   4.795   0.914   4.789  0.0372  0.1000  0.2869
16934TIP3    H172217   4.767   0.892   4.700  0.3041 -0.6071  0.3748
16934TIP3    H272218   4.718   0.954   4.828 -0.7983 -1.5616  0.4314
16935TIP3   OH272219   0.708   2.290   1.171  0.7761 -0.7434  0.5156
16935TIP3    H172220   0.678   2.373   1.207  2.5877  0.1401  0.1128
16935TIP3    H272221   0.654   2.277   1.093 -0.2845 -0.5440  1.1897
16936TIP3   OH272222   2.890   5.730   3.198  0.1551  0.1539  0.2406
16936TIP3    H172223   2.885   5.820   3.229  0.3886  0.0101  0.6968
16936TIP3    H272224   2.959   5.731   3.132  1.4850 -0.0754  1.5937
16937TIP3   OH272225   3.782   2.736  11.999 -0.1589 -0.2918  0.1250
16937TIP3    H172226   3.704   2.734  11.943  1.1166 -4.6030 -1.9417
16937TIP3    H272227   3.852   2.764  11.941  0.6216 -1.4465  0.4808
16938TIP3   OH272228   3.102   6.229  15.458 -0.1646  0.0944  0.6497
16938TIP3    H172229   3.094   6.228  15.553 -2.3185  1.5916  0.5717
16938TIP3    H272230   3.167   6.298  15.440 -0.9583  0.9751  1.0420
16939TIP3   OH272231   2.178   3.792  11.838  0.6296  0.5517 -0.3793
16939TIP3    H172232   2.105   3.741  11.874  0.0889  0.1221 -2.0118
16939TIP3    H272233   2.185   3.764  11.747  0.4276  3.2333 -1.3111
16940TIP3   OH272234   1.860   6.444  16.972 -0.2167 -0.1127 -0.0452
16940TIP3    H172235   1.842   6.351  16.955  2.7685 -0.7177 -0.4422
16940TIP3    H272236   1.921   6.444  17.045  0.7312  1.4632 -0.7853
16941TIP3   OH272237   0.969   1.183   5.376 -0.5314 -0.0977 -0.2680
16941TIP3    H172238   0.890   1.131   5.390 -0.3146 -1.0914 -2.3133
16941TIP3    H272239   0.980   1.233   5.457 -2.5104 -0.9016  0.5606
16942TIP3   OH272240   1.984   5.435  11.358 -0.6177 -0.2604 -0.5160
16942TIP3    H172241   2.007   5.485  11.279  1.4686  1.2022  0.9171
16942TIP3    H272242   2.060   5.379  11.374 -1.4762 -1.3423 -0.1330
16943TIP3   OH272243   5.685   3.959   0.141  0.3160  0.3025  0.6110
16943TIP3    H172244   5.708   4.049   0.164 -1.7349  0.5348  1.9578
16943TIP3    H272245   5.593   3.962   0.116  0.3508 -1.3497  0.1007
16944TIP3   OH272246   3.533   6.485  10.775 -0.2121 -0.0802  0.0191
16944TIP3    H172247   3.483   6.475  10.856  2.6608 -0.2322  1.9244
16944TIP3    H272248   3.532   6.579  10.757 -0.6702 -0.0202  0.3624
16945TIP3   OH272249   1.870   3.320   2.688  0.2854  0.0697  0.5300
16945TIP3    H172250   1.887   3.399   2.638  2.0013 -0.4079  0.3102
16945TIP3    H272251   1.785   3.289   2.656 -0.6279  2.0079  0.9252
16946TIP3   OH272252   0.977   4.273  11.505  0.4302  0.5806  0.4043
16946TIP3    H172253   0.970   4.354  11.454 -1.1262  0.4216  0.2994
16946TIP3    H272254   0.910   4.215  11.467 -0.8731  0.4783  2.6338
16947TIP3   OH272255   3.764   3.996   5.652  0.3552 -0.5762 -0.4815
16947TIP3    H172256   3.718   4.034   5.727  0.1392  0.4011 -1.0950
16947TIP3    H272257   3.794   4.071   5.601  1.4694 -1.2219 -0.8035
16948TIP3   OH272258   6.023   2.628   2.885  0.0578  0.0036 -0.7833
16948TIP3    H172259   5.990   2.564   2.822 -1.9258 -0.1769  0.3690
16948TIP3    H272260   6.024   2.582   2.968  0.2873  0.9425 -0.2476
16949TIP3   OH272261   1.860   4.651   0.751 -0.1346  0.8792  0.1229
16949TIP3    H172262   1.930   4.667   0.814  0.4140  0.2353 -0.3114
16949TIP3    H272263   1.797   4.721   0.767  1.5940  2.7505 -0.9467
16950TIP3   OH272264   5.108   6.378   5.071 -0.3834 -0.2429 -0.6061
16950TIP3    H172265   5.091   6.472   5.077  0.0188 -0.1795 -0.4423
16950TIP3    H272266   5.070   6.342   5.151  0.7468 -0.0266  0.0398
16951TIP3   OH272267   4.925   0.967  13.811  0.7092 -0.2778  0.7761
16951TIP3    H172268   4.969   1.040  13.766 -0.2008 -0.3509 -0.2760
16951TIP3    H272269   4.963   0.889  13.771  0.4334 -0.3532  0.6590
16952TIP3   OH272270   6.560   4.598   5.648 -0.2244 -0.2230  0.2453
16952TIP3    H172271   6.552   4.527   5.583  1.3721 -0.3759  0.1686
16952TIP3    H272272   6.581   4.675   5.596  2.1050 -0.5510  0.5813
16953TIP3   OH272273   0.513   3.918  15.472 -0.0931  0.2281  0.6288
16953TIP3    H172274   0.495   3.940  15.563  0.3103 -1.1934  1.0860
16953TIP3    H272275   0.605   3.942  15.460 -0.2683  0.8226  0.4584
16954TIP3   OH272276   1.403   1.543  16.962 -0.4465 -0.2563 -0.2149
16954TIP3    H172277   1.460   1.591  17.022 -0.8539 -1.5632  1.2732
16954TIP3    H272278   1.457   1.528  16.884  0.8315 -0.4119  0.6801
16955TIP3   OH272279   0.254   2.914   3.124 -0.3559 -0.7344  0.7366
16955TIP3    H172280   0.327   2.860   3.153 -0.9252 -1.9449 -0.0049
16955TIP3    H272281   0.252   2.903   3.029 -1.1890 -0.3094  0.6966
16956TIP3   OH272282   1.490   2.474   2.095 -0.0601 -0.8460  0.2078
16956TIP3    H172283   1.577   2.513   2.103 -0.3011 -0.3732  0.6084
16956TIP3    H272284   1.507   2.382   2.074  0.5392 -0.8025  0.4704
16957TIP3   OH272285   0.169   2.327   0.289 -0.0443 -0.1173 -0.3044
16957TIP3    H172286   0.239   2.268   0.318  0.0261  0.0405 -0.1509
16957TIP3    H272287   0.115   2.341   0.367  0.0020  0.1070 -0.3131
16958TIP3   OH272288   1.377   5.183  12.858 -0.1092 -0.3887  0.7702
16958TIP3    H172289   1.356   5.099  12.899  0.5865 -0.3104  1.3025
16958TIP3    H272290   1.468   5.175  12.832 -0.3370 -0.1704 -0.1271
16959TIP3   OH272291   0.298   5.888  11.418  0.0898 -0.5430 -0.1232
16959TIP3    H172292   0.220   5.875  11.364 -1.0869  0.0874  1.3423
16959TIP3    H272293   0.266   5.931  11.497  2.2680  1.8142 -0.3857
16960TIP3   OH272294   5.076   6.151   3.072 -0.1963 -0.6255  0.6744
16960TIP3    H172295   4.998   6.156   3.018  0.1632 -0.2101  0.1803
16960TIP3    H272296   5.146   6.186   3.016 -0.0435  1.0524  1.8431
16961TIP3   OH272297   1.267   1.417  11.445  0.9469  0.0993 -0.0806
16961TIP3    H172298   1.181   1.456  11.426  0.8313 -0.4277 -0.6670
16961TIP3    H272299   1.321   1.439  11.370  0.1507 -3.0004 -1.7358
16962TIP3   OH272300   2.245   4.643  17.146  0.0728  0.2643 -0.4058
16962TIP3    H172301   2.301   4.663  17.221  0.2087  1.1973 -0.7451
16962TIP3    H272302   2.279   4.560  17.113  1.4052  0.9110 -0.7361
16963TIP3   OH272303   2.141   1.782  15.877  0.1824 -0.4329  0.1303
16963TIP3    H172304   2.191   1.864  15.876 -0.1592 -0.2174  0.5564
16963TIP3    H272305   2.150   1.749  15.967 -0.0441 -0.6368  0.0789
16964TIP3   OH272306   3.892   1.273   6.765  0.4978  0.4459  0.8194
16964TIP3    H172307   3.932   1.221   6.695 -0.1093  0.5287  0.4096
16964TIP3    H272308   3.834   1.334   6.720 -0.4722  0.0028  1.4327
16965TIP3   OH272309   2.626   1.457  12.468 -0.0219 -0.3136  0.4891
16965TIP3    H172310   2.689   1.385  12.473 -0.6333 -1.1183 -1.9411
16965TIP3    H272311   2.547   1.423  12.510 -0.2196 -0.9936 -0.4037
16966TIP3   OH272312   2.930   5.174   6.012 -0.0089 -0.0598  1.3107
16966TIP3    H172313   2.887   5.250   6.051 -0.4568  0.4392 -0.0686
16966TIP3    H272314   3.021   5.180   6.042  0.3763  1.9873 -0.0477
16967TIP3   OH272315   1.759   2.375  11.545 -0.4993 -0.0273  0.0153
16967TIP3    H172316   1.768   2.450  11.486 -0.7805  0.6571  0.8313
16967TIP3    H272317   1.812   2.306  11.504 -0.4535  0.5287 -0.8786
16968TIP3   OH272318   6.105   3.794  13.507 -0.0416 -0.1428 -0.0509
16968TIP3    H172319   6.088   3.759  13.594 -0.0404 -1.2077 -0.4582
16968TIP3    H272320   6.197   3.775  13.490 -0.5487 -1.9583 -1.1174
16969TIP3   OH272321   5.187   2.509  11.342 -0.1480 -0.1463 -0.1893
16969TIP3    H172322   5.208   2.603  11.341 -0.3319 -0.0754  1.0881
16969TIP3    H272323   5.138   2.495  11.261  2.5301  0.2042 -2.0045
16970TIP3   OH272324   3.539   3.038   1.340  0.5262 -0.7915 -0.4264
16970TIP3    H172325   3.469   2.987   1.299  0.5493 -0.7054 -0.5750
16970TIP3    H272326   3.497   3.121   1.364  0.4941 -0.8711 -0.2049
16971TIP3   OH272327   5.938   4.143  15.079  0.2912 -0.4266  0.6620
16971TIP3    H172328   5.889   4.181  15.007  0.7007 -2.8694 -0.9984
16971TIP3    H272329   5.872   4.116  15.142 -0.1000  1.1469  0.9832
16972TIP3   OH272330   4.993   0.025   4.649  0.0836  0.0298 -0.3091
16972TIP3    H172331   4.933   0.015   4.575 -2.6539 -0.6016  1.8288
16972TIP3    H272332   4.982   0.115   4.678  0.2505 -0.0494  0.0143
16973TIP3   OH272333   5.925   2.151  16.875 -0.1794 -0.2498 -0.4137
16973TIP3    H172334   5.980   2.121  16.947  0.2944 -1.3123 -1.1884
16973TIP3    H272335   5.983   2.206  16.822 -0.6859  1.0098  0.2965
16974TIP3   OH272336   4.549   3.937  16.021  0.0006  0.0366  0.6341
16974TIP3    H172337   4.589   4.024  16.026  0.5122  0.1189 -2.7548
16974TIP3    H272338   4.545   3.917  15.928 -0.3470 -3.4970  1.2460
16975TIP3   OH272339   0.346   6.539   1.251  0.3104 -0.4576 -0.2170
16975TIP3    H172340   0.420   6.481   1.263  1.5370  0.9676 -0.5315
16975TIP3    H272341   0.269   6.482   1.248  1.4200 -1.9835 -0.1494
16976TIP3   OH272342   5.651   1.688   5.297  0.1298 -0.3878 -0.1245
16976TIP3    H172343   5.592   1.760   5.318  0.3363  0.1541 -1.3388
16976TIP3    H272344   5.620   1.615   5.351 -1.0217  0.1814  0.0059
16977TIP3   OH272345   1.499   4.851  12.916  0.2928 -0.1554 -0.0891
16977TIP3    H172346   1.534   4.764  12.897 -0.0445 -0.0073 -1.5238
16977TIP3    H272347   1.575   4.908  12.913  0.1544 -0.0034 -2.0552
16978TIP3   OH272348   4.472   0.773  16.201 -0.4003 -0.2049 -0.1342
16978TIP3    H172349   4.418   0.834  16.151 -1.4669 -0.6669  0.4390
16978TIP3    H272350   4.472   0.693  16.148  0.5060  0.0707 -0.5880
16979TIP3   OH272351   2.094   0.086   4.779 -0.0732 -0.0444 -0.5911
16979TIP3    H172352   2.049   0.036   4.710 -3.0203 -0.5747  1.5185
16979TIP3    H272353   2.030   0.151   4.807  1.3590  0.7339  1.0552
16980TIP3   OH272354   3.286   0.171  11.420  0.2869  0.3000  0.0591
16980TIP3    H172355   3.328   0.144  11.339 -1.3947  0.3593 -0.8866
16980TIP3    H272356   3.222   0.102  11.439 -0.9487  1.3861  0.0314
16981TIP3   OH272357   3.953   2.351  11.167 -0.4997 -0.4922 -0.3318
16981TIP3    H172358   3.927   2.435  11.205  0.0752 -1.3155  2.0460
16981TIP3    H272359   3.887   2.289  11.198  0.3987 -1.3370 -0.0692
16982TIP3   OH272360   5.901   1.778  15.474 -0.4353 -0.0254 -0.8348
16982TIP3    H172361   5.902   1.684  15.453 -0.6370  0.0660 -1.2551
16982TIP3    H272362   5.863   1.782  15.562  1.7488 -0.5323  0.1979
16983TIP3   OH272363   5.273   5.630   5.432 -0.0288  0.1304  0.0304
16983TIP3    H172364   5.256   5.585   5.515  0.5424 -0.5796 -0.2238
16983TIP3    H272365   5.316   5.564   5.378 -0.4843  0.5549 -0.8688
16984TIP3   OH272366   4.775   2.001   5.382 -0.3039  0.1693  0.0210
16984TIP3    H172367   4.691   2.046   5.386 -0.4136 -0.1477  2.0354
16984TIP3    H272368   4.840   2.071   5.376 -0.6242  0.4799  0.1576
16985TIP3   OH272369   1.693   0.834  14.498 -0.2237  0.4276 -0.3553
16985TIP3    H172370   1.681   0.825  14.404  1.0973  3.4324 -0.9468
16985TIP3    H272371   1.767   0.778  14.518 -1.9008 -2.0017 -0.5926
16986TIP3   OH272372   6.489   6.105   2.151 -0.2112  0.3084 -0.1530
16986TIP3    H172373   6.408   6.143   2.117 -0.5072 -0.2781 -0.1037
16986TIP3    H272374   6.464   6.065   2.234  0.3737  1.1696  0.4676
16987TIP3   OH272375   5.808   4.561   5.787 -0.4099 -1.0016 -0.3665
16987TIP3    H172376   5.778   4.625   5.851  0.4477 -0.3724 -0.5882
16987TIP3    H272377   5.730   4.544   5.733 -0.7448 -0.4329 -0.0739
16988TIP3   OH272378   0.744   3.847  15.794  0.1485  0.1054 -0.1355
16988TIP3    H172379   0.821   3.844  15.852  0.7178 -0.3778 -0.8956
16988TIP3    H272380   0.779   3.826  15.707 -0.9771 -0.9805 -0.3523
16989TIP3   OH272381   2.833   2.942   5.161  0.3961 -0.0607  0.1573
16989TIP3    H172382   2.873   2.914   5.243  0.1285  1.2046  0.7334
16989TIP3    H272383   2.904   2.934   5.096  0.3836 -1.8455  0.3109
16990TIP3   OH272384   4.116   0.542  14.130 -0.2346 -0.5694  0.5242
16990TIP3    H172385   4.042   0.560  14.072 -1.6041 -1.2084  2.0018
16990TIP3    H272386   4.127   0.447  14.127  0.4867 -0.4908  0.3883
16991TIP3   OH272387   3.029   5.016   2.254  0.6026  0.1473 -0.4089
16991TIP3    H172388   2.936   4.994   2.250  0.9706 -1.3327 -1.3947
16991TIP3    H272389   3.072   4.936   2.285  1.2215  1.9055  4.0268
16992TIP3   OH272390   4.922   1.644  14.249 -0.4766  0.1901 -0.4190
16992TIP3    H172391   4.933   1.565  14.301 -1.4706 -0.1222 -0.6650
16992TIP3    H272392   5.010   1.664  14.216  0.4182  1.0344  2.2234
16993TIP3   OH272393   1.596   2.052   5.739 -0.5189 -0.0116  0.0069
16993TIP3    H172394   1.562   2.129   5.693 -1.9628 -0.5111  0.1950
16993TIP3    H272395   1.528   1.985   5.727 -0.5968 -0.3941  2.2173
16994TIP3   OH272396   6.071   2.772   1.146 -0.4373 -0.0315  0.5613
16994TIP3    H172397   6.136   2.709   1.177  0.7030  0.2083 -1.2279
16994TIP3    H272398   6.072   2.842   1.212  2.4222  0.8041 -0.2498
16995TIP3   OH272399   6.175   0.541  16.756  0.1845  0.1497 -0.9205
16995TIP3    H172400   6.228   0.496  16.690  2.4663 -0.8506  1.4368
16995TIP3    H272401   6.222   0.529  16.838 -2.2534  1.7663  0.8794
16996TIP3   OH272402   2.883   2.985  14.549 -0.2805  0.3125  0.0917
16996TIP3    H172403   2.934   2.924  14.602 -0.9998 -0.6617 -0.3015
16996TIP3    H272404   2.948   3.046  14.513  0.8117 -1.5039 -1.2495
16997TIP3   OH272405   0.389   0.782   5.397 -0.1048  0.4544 -0.4192
16997TIP3    H172406   0.336   0.737   5.464  0.2689  2.1040  1.0638
16997TIP3    H272407   0.357   0.747   5.314 -2.3886  0.1654  0.4905
16998TIP3   OH272408   2.907   3.583   0.585  0.4536 -0.3540  0.4753
16998TIP3    H172409   2.995   3.617   0.605  0.5486 -0.0971 -0.3439
16998TIP3    H272410   2.867   3.651   0.531  1.5072 -2.4027 -3.2329
16999TIP3   OH272411   5.689   6.226  12.031  0.0784 -0.1193 -0.3258
16999TIP3    H172412   5.611   6.219  11.975  0.4669  1.3603 -1.0914
16999TIP3    H272413   5.689   6.145  12.082 -2.2255  0.0381  0.0324
17000TIP3   OH272414   5.783   0.973   3.807  0.6388 -0.2882 -0.6021
17000TIP3    H172415   5.747   0.885   3.793 -1.1739  0.4585 -0.9795
17000TIP3    H272416   5.807   0.975   3.899 -0.8234 -0.6845 -0.1891
17001TIP3   OH272417   5.585   6.299   5.131 -0.3804 -0.6577 -0.3885
17001TIP3    H172418   5.643   6.282   5.205 -0.4258 -2.2856 -0.7058
17001TIP3    H272419   5.499   6.311   5.172 -0.4488 -1.7706 -0.1632
17002TIP3   OH272420   1.141   4.847  12.192  0.0463 -0.1017  0.0683
17002TIP3    H172421   1.046   4.852  12.185  0.1343  0.8603 -0.8914
17002TIP3    H272422   1.160   4.754  12.205 -0.9423 -0.5689 -1.5380
17003TIP3   OH272423   0.973   4.747   2.288 -0.3561 -0.5568 -0.3872
17003TIP3    H172424   1.064   4.770   2.268 -0.3099 -2.2349 -2.4199
17003TIP3    H272425   0.922   4.821   2.255  0.1475 -0.4661 -0.9729
17004TIP3   OH272426   4.321   3.865   1.245  0.9653 -0.2518  0.4473
17004TIP3    H172427   4.337   3.900   1.157  0.2578  0.2329  0.4991
17004TIP3    H272428   4.394   3.898   1.298  1.4545 -0.6409  0.0180
17005TIP3   OH272429   3.134   4.492   1.942  0.0912  0.8533  0.2219
17005TIP3    H172430   3.138   4.418   1.881 -0.4028 -0.3262  1.5636
17005TIP3    H272431   3.200   4.553   1.910 -0.6538  0.6374 -1.9245
17006TIP3   OH272432   1.889   4.701   5.032  0.7430 -0.0239 -0.4154
17006TIP3    H172433   1.960   4.729   5.090  2.1126 -1.6860 -1.1920
17006TIP3    H272434   1.895   4.605   5.031 -0.1073 -0.1093 -2.2031
17007TIP3   OH272435   4.009   2.593  16.358 -0.3092  0.4252  0.2540
17007TIP3    H172436   3.916   2.611  16.366 -0.6897 -0.4548 -1.6886
17007TIP3    H272437   4.040   2.655  16.292 -0.2702 -1.4136 -1.5718
17008TIP3   OH272438   2.368   0.899  12.635 -0.1240 -0.4075  0.2556
17008TIP3    H172439   2.298   0.870  12.576 -1.6334 -0.5125  2.0138
17008TIP3    H272440   2.435   0.831  12.627 -0.7865 -0.9913 -0.5047
17009TIP3   OH272441   4.719   0.073  15.250 -0.1366  0.5471 -0.4333
17009TIP3    H172442   4.686   0.077  15.340 -0.1338  1.1813 -0.4552
17009TIP3    H272443   4.683  -0.008  15.214  0.1597  0.1047  0.2566
17010TIP3   OH272444   1.429   2.526  13.684  0.2549 -0.4578 -0.5140
17010TIP3    H172445   1.383   2.563  13.608 -1.9613 -0.0393  0.9150
17010TIP3    H272446   1.366   2.535  13.756  2.2323 -0.9036  1.3682
17011TIP3   OH272447   3.549   5.530   5.584 -0.1537  0.1401  0.0954
17011TIP3    H172448   3.487   5.475   5.536 -1.0510  0.8506  0.3999
17011TIP3    H272449   3.611   5.469   5.623 -0.1963 -0.5329 -0.8726
17012TIP3   OH272450   1.432   5.632  10.936  0.0259 -0.2293 -0.0437
17012TIP3    H172451   1.526   5.623  10.952 -0.2002 -0.4260  1.3445
17012TIP3    H272452   1.421   5.722  10.906  0.2408  1.2652  3.8051
17013TIP3   OH272453   2.819   3.949  15.614 -0.0499 -0.1182  0.8050
17013TIP3    H172454   2.870   3.981  15.689 -1.9496  0.4394  1.9313
17013TIP3    H272455   2.840   4.009  15.543  2.2727 -1.0217  0.6277
17014TIP3   OH272456   3.803   2.963  16.634  0.5177  0.1103  0.4904
17014TIP3    H172457   3.749   2.896  16.678  0.6416 -0.1585  0.2390
17014TIP3    H272458   3.759   2.977  16.550 -1.4099  2.7487  1.7941
17015TIP3   OH272459   2.154   5.070  16.634 -0.4835  0.6920  0.1572
17015TIP3    H172460   2.063   5.084  16.660 -0.1213 -0.1082  2.0255
17015TIP3    H272461   2.149   5.038  16.544 -2.0216  0.9869  0.1241
17016TIP3   OH272462   1.740   2.772   1.419  0.2803  0.2765 -0.0974
17016TIP3    H172463   1.682   2.746   1.348  0.5859  1.8538 -0.9593
17016TIP3    H272464   1.715   2.715   1.492 -1.1318 -0.2804 -0.9729
17017TIP3   OH272465   3.614   2.060   2.098  0.2520  0.3144  0.1702
17017TIP3    H172466   3.567   2.022   2.023  0.6820 -2.0924  1.0140
17017TIP3    H272467   3.670   2.127   2.059 -1.7322  1.2520 -1.2336
17018TIP3   OH272468   4.998   4.694   2.741  0.5176 -0.6525  0.0606
17018TIP3    H172469   4.912   4.737   2.743  1.5463  1.7636 -1.9731
17018TIP3    H272470   5.013   4.676   2.648 -0.0947 -6.3879  0.7276
17019TIP3   OH272471   6.496   4.885  16.335  0.2798 -0.7224 -0.1422
17019TIP3    H172472   6.454   4.843  16.259  1.3291 -0.0975 -1.0952
17019TIP3    H272473   6.483   4.822  16.406  0.8044 -2.1537 -1.2546
17020TIP3   OH272474   3.683   2.192   1.459 -0.1263 -0.0608 -0.2597
17020TIP3    H172475   3.638   2.155   1.383  1.6447 -0.2650 -1.2775
17020TIP3    H272476   3.768   2.220   1.425  0.5237  0.3090  1.5553
17021TIP3   OH272477   3.659   1.270  13.533 -0.2445  0.6779  0.3034
17021TIP3    H172478   3.648   1.273  13.629  0.7421 -0.2635  0.4590
17021TIP3    H272479   3.606   1.195  13.506  3.3191 -2.2945  0.7654
17022TIP3   OH272480   1.982   3.175  14.964  0.2559 -0.2908  0.4721
17022TIP3    H172481   2.026   3.222  14.893  0.0978 -2.2159 -0.9815
17022TIP3    H272482   1.893   3.161  14.933 -0.3974  0.4808  1.8954
17023TIP3   OH272483   6.192   3.303  13.494 -0.1689  0.2429  0.1240
17023TIP3    H172484   6.280   3.269  13.479 -0.1587 -0.1217  0.9491
17023TIP3    H272485   6.149   3.298  13.408 -0.4106 -2.5984  0.3278
17024TIP3   OH272486   2.814   4.020   3.335  0.5070 -0.2494 -0.3410
17024TIP3    H172487   2.845   3.977   3.255  0.5002  1.0001 -1.0310
17024TIP3    H272488   2.839   4.112   3.325 -0.4878  0.1459  0.5924
17025TIP3   OH272489   2.858   0.645   5.403 -0.9459  0.1546 -0.0459
17025TIP3    H172490   2.909   0.589   5.344  2.2599  1.2014  1.5155
17025TIP3    H272491   2.851   0.728   5.357  0.6346  0.6397  0.5263
17026TIP3   OH272492   0.660   5.916  13.619 -0.4337  0.4334 -0.3555
17026TIP3    H172493   0.643   5.883  13.707 -2.4535  0.4999 -0.6750
17026TIP3    H272494   0.577   5.954  13.591  0.2545  0.7027 -2.1765
17027TIP3   OH272495   2.537   4.662  16.579  0.0743 -0.5505 -0.0801
17027TIP3    H172496   2.606   4.635  16.519  0.6162 -1.6630  0.9851
17027TIP3    H272497   2.574   4.645  16.666  0.1186  2.8642  0.7054
17028TIP3   OH272498   3.680   5.371   3.446  0.0894 -0.1102  0.1324
17028TIP3    H172499   3.768   5.358   3.410 -0.1688 -0.2396 -0.4595
17028TIP3    H272500   3.672   5.304   3.514  1.0409  0.9331  1.3039
17029TIP3   OH272501   3.696   0.528  12.139  0.2596  0.4531  0.1624
17029TIP3    H172502   3.775   0.500  12.185 -0.1123 -0.3332  0.3293
17029TIP3    H272503   3.729   0.578  12.064  0.9452 -0.4356 -0.1482
17030TIP3   OH272504   1.408   5.928   0.359  0.3292 -0.1525 -0.8076
17030TIP3    H172505   1.445   5.856   0.409 -1.3517  0.5727  1.6351
17030TIP3    H272506   1.424   6.006   0.412  2.0360  1.4010 -3.3236
17031TIP3   OH272507   2.051   1.105  13.732 -0.4501 -0.5577  0.0410
17031TIP3    H172508   2.008   1.105  13.647 -0.2631  1.0235 -0.0744
17031TIP3    H272509   2.141   1.079  13.713 -0.7883 -1.8046  0.0084
17032TIP3   OH272510   3.222   3.824  16.161  0.4412  0.2024 -0.1025
17032TIP3    H172511   3.201   3.901  16.214  0.3781  0.2706 -0.2245
17032TIP3    H272512   3.312   3.802  16.184  0.1766 -0.2114  0.5778
17033TIP3   OH272513   3.680   2.549  16.329 -0.1021 -0.3514 -0.3761
17033TIP3    H172514   3.699   2.485  16.260  1.2784  1.3596 -1.6752
17033TIP3    H272515   3.602   2.595  16.299 -1.4249 -1.7174  0.8241
17034TIP3   OH272516   3.883   0.175  13.710 -0.3482  0.3963 -0.1739
17034TIP3    H172517   3.878   0.086  13.745  0.9035  0.9764  1.6168
17034TIP3    H272518   3.977   0.193  13.701 -0.5972  1.2260 -1.3739
17035TIP3   OH272519   6.442   4.156   4.092  0.3720 -0.6342 -0.2365
17035TIP3    H172520   6.403   4.152   4.179  1.1181 -0.0861  0.1248
17035TIP3    H272521   6.393   4.224   4.046 -1.3541 -2.2529 -0.9363
17036TIP3   OH272522   4.513   2.842  14.886  0.1692  0.3734 -0.3571
17036TIP3    H172523   4.483   2.930  14.861 -0.3553  0.4761  0.5827
17036TIP3    H272524   4.520   2.845  14.981 -1.1357 -0.9791 -0.1826
17037TIP3   OH272525   3.713   0.098  13.474 -0.2151  0.0607  0.3952
17037TIP3    H172526   3.762   0.118  13.555  0.1724 -0.0283  0.1874
17037TIP3    H272527   3.781   0.081  13.409 -0.5282  0.1356  0.0470
17038TIP3   OH272528   3.669   0.660   3.044 -0.7373 -0.3951  0.2378
17038TIP3    H172529   3.584   0.703   3.040  0.1694  1.4606 -0.2574
17038TIP3    H272530   3.711   0.696   3.122  0.2042 -0.0512 -0.4103
17039TIP3   OH272531   2.846   3.150  16.232 -0.4380  0.0467 -0.0002
17039TIP3    H172532   2.801   3.210  16.172 -0.8626  0.8227  1.0510
17039TIP3    H272533   2.845   3.196  16.317 -0.5256 -1.3371  0.7780
17040TIP3   OH272534   2.581   4.252   4.768  0.3823 -0.0845  0.0046
17040TIP3    H172535   2.654   4.256   4.830  0.1822 -2.3379  0.4742
17040TIP3    H272536   2.586   4.164   4.730 -1.5228  0.0236 -0.6327
17041TIP3   OH272537   2.342   5.229   0.819 -0.3329  0.1217  0.1858
17041TIP3    H172538   2.366   5.291   0.751 -0.6465 -0.3823 -0.3889
17041TIP3    H272539   2.266   5.182   0.784 -1.1024  0.5102  1.2690
17042TIP3   OH272540   2.179   2.556   0.560 -0.6518  0.5096 -0.1781
17042TIP3    H172541   2.169   2.538   0.466 -0.7719  0.5425 -0.1706
17042TIP3    H272542   2.239   2.631   0.563  0.1577 -0.1177 -0.1997
17043TIP3   OH272543   3.191   6.708   1.433  0.0031  0.1865 -0.4542
17043TIP3    H172544   3.105   6.674   1.406 -0.1269  0.8352 -0.9020
17043TIP3    H272545   3.170   6.776   1.497  0.2692 -0.6833  0.5794
17044TIP3   OH272546   0.932   4.715  16.845 -0.5124 -0.1953 -0.3382
17044TIP3    H172547   1.001   4.750  16.790 -0.5936 -0.7329 -0.7856
17044TIP3    H272548   0.885   4.654  16.789 -1.0553 -0.1920  0.1060
17045TIP3   OH272549   5.586   5.837   2.542  0.1804  0.5412 -0.0165
17045TIP3    H172550   5.518   5.854   2.477 -0.6899 -1.8517  0.1314
17045TIP3    H272551   5.549   5.766   2.595  1.8480  0.8108  1.5918
17046TIP3   OH272552   6.259   5.518   5.339  0.4045  0.2224 -0.1166
17046TIP3    H172553   6.228   5.608   5.344 -1.9408 -0.5186 -0.0669
17046TIP3    H272554   6.221   5.475   5.416 -0.7591 -1.3752 -1.4921
17047TIP3   OH272555   6.250   2.958  12.411  0.0722  0.4092 -0.2365
17047TIP3    H172556   6.200   3.039  12.403 -0.5341 -0.0192 -0.9713
17047TIP3    H272557   6.220   2.904  12.338  1.3431 -0.0133 -0.4775
17048TIP3   OH272558   0.174   5.319   5.891 -0.4222  0.1845  0.6217
17048TIP3    H172559   0.187   5.226   5.909  1.4502 -0.0246 -1.4107
17048TIP3    H272560   0.210   5.363   5.968  2.2645 -0.7469  0.0070
17049TIP3   OH272561   2.989   1.818   5.593  0.2417 -0.2640  0.0246
17049TIP3    H172562   2.963   1.909   5.578  0.8632  0.1386  1.2416
17049TIP3    H272563   2.907   1.773   5.614 -0.2302 -0.2422 -1.6335
17050TIP3   OH272564   5.160   4.784   0.272 -0.4168 -0.2346  0.7092
17050TIP3    H172565   5.208   4.754   0.350  0.4452  1.9656  1.0866
17050TIP3    H272566   5.168   4.711   0.210  0.1513 -1.4389  2.1434
17051TIP3   OH272567   6.748   3.172  12.007  0.0378  0.0497  0.4140
17051TIP3    H172568   6.755   3.197  11.915 -1.9378  0.7771  0.4139
17051TIP3    H272569   6.834   3.138  12.030  1.5782  2.8546 -0.8093
17052TIP3   OH272570   3.274   0.016  13.164  0.5464 -0.5479 -0.4396
17052TIP3    H172571   3.237   0.098  13.132 -0.7645 -0.1768  1.8497
17052TIP3    H272572   3.357   0.041  13.205 -0.4511 -0.0940  1.4001
17053TIP3   OH272573   5.586   5.945   0.586  0.3248  0.7147 -0.6126
17053TIP3    H172574   5.651   6.008   0.554  2.1969  0.0532  1.5885
17053TIP3    H272575   5.540   5.992   0.655 -0.6028  0.7173 -1.2223
17054TIP3   OH272576   3.971   5.832   0.443  0.2842  0.0083  0.2723
17054TIP3    H172577   3.920   5.778   0.504  0.3470 -1.1938 -0.6933
17054TIP3    H272578   4.039   5.773   0.411 -1.2740 -0.3022 -2.9170
17055TIP3   OH272579   5.249   3.103  12.620  0.3081  0.5924 -0.4001
17055TIP3    H172580   5.189   3.169  12.653 -0.4238 -0.4025  0.2933
17055TIP3    H272581   5.231   3.025  12.672  0.5457 -0.4243 -1.7787
17056TIP3   OH272582   3.235   5.800  16.206  0.7294 -0.0230  0.1113
17056TIP3    H172583   3.299   5.730  16.219  2.8010  1.8176  0.5196
17056TIP3    H272584   3.271   5.874  16.256 -0.2076  1.9771 -1.9980
17057TIP3   OH272585   3.612   2.640   2.120 -0.2483  0.2801 -0.3914
17057TIP3    H172586   3.541   2.597   2.167 -0.0527 -1.0829 -1.2827
17057TIP3    H272587   3.569   2.708   2.068 -1.0986 -1.2224 -1.7574
17058TIP3   OH272588   6.342   6.246   5.814 -0.3031 -0.5283 -0.1227
17058TIP3    H172589   6.430   6.256   5.851 -0.6029  1.3726  0.1909
17058TIP3    H272590   6.284   6.287   5.878 -1.2971 -0.7474 -0.8591
17059TIP3   OH272591   6.503   3.185   4.824 -0.5088  0.0773 -0.0727
17059TIP3    H172592   6.577   3.245   4.836  0.1386 -0.6398 -0.3910
17059TIP3    H272593   6.484   3.153   4.912  0.5644 -0.8881 -0.1664
17060TIP3   OH272594   4.735   5.529   0.149 -0.2621 -0.1427 -0.4436
17060TIP3    H172595   4.744   5.468   0.076 -1.6445 -2.4937  1.2466
17060TIP3    H272596   4.784   5.489   0.221 -2.2187  0.0382  1.0854
17061TIP3   OH272597   2.567   5.504   0.738  0.3520 -0.3519 -0.4019
17061TIP3    H172598   2.482   5.518   0.695 -0.0860  0.5427  0.7178
17061TIP3    H272599   2.619   5.458   0.672 -0.9278 -0.7390 -1.1923
17062TIP3   OH272600   4.366   4.859  10.940  0.6740 -0.1871 -0.2535
17062TIP3    H172601   4.418   4.893  11.013  1.1162 -0.9744 -0.1852
17062TIP3    H272602   4.293   4.813  10.982  0.7839 -0.4137 -0.3087
17063TIP3   OH272603   4.162   6.049  11.151 -0.1268  0.3621 -0.7923
17063TIP3    H172604   4.255   6.024  11.153 -0.1115  0.4151 -0.8393
17063TIP3    H272605   4.134   6.027  11.062 -0.4372 -0.6516 -0.4518
17064TIP3   OH272606   2.398   2.563  13.840  0.4466 -0.6741  0.9144
17064TIP3    H172607   2.324   2.511  13.871  0.0573 -1.3204 -0.9773
17064TIP3    H272608   2.474   2.524  13.883  0.1848 -2.9847 -0.5530
17065TIP3   OH272609   4.828   6.498   2.184  0.3256  0.1872  0.7746
17065TIP3    H172610   4.752   6.483   2.240 -0.2502 -0.2880 -0.1119
17065TIP3    H272611   4.840   6.593   2.186 -0.8291  0.3698  0.2652
17066TIP3   OH272612   2.911   4.324  16.022  0.2133 -0.6719  0.1905
17066TIP3    H172613   2.852   4.270  16.073 -0.4830  0.5966  0.7763
17066TIP3    H272614   2.870   4.332  15.936 -1.0600  1.0358  0.8946
17067TIP3   OH272615   3.970   6.122   2.654  0.3550 -0.2846  0.4593
17067TIP3    H172616   4.054   6.075   2.649  0.4720 -0.0058 -0.4186
17067TIP3    H272617   3.967   6.156   2.743 -0.2138 -2.7929  1.4908
17068TIP3   OH272618   4.243   1.080   1.507 -0.3024  0.2592  0.0667
17068TIP3    H172619   4.323   1.076   1.455 -0.0224  0.6350  0.4585
17068TIP3    H272620   4.172   1.078   1.443  0.0271  0.2494 -0.2994
17069TIP3   OH272621   1.006   0.045  15.354 -0.3749 -0.1179  0.5363
17069TIP3    H172622   1.039  -0.039  15.322 -0.9662 -0.8965  1.8850
17069TIP3    H272623   0.968   0.086  15.276  1.6052 -0.2208 -0.5589
17070TIP3   OH272624   2.019   5.860   2.985 -0.1487  0.8518 -0.5789
17070TIP3    H172625   2.028   5.952   2.957 -0.9102  1.0348 -0.2402
17070TIP3    H272626   1.934   5.856   3.029  0.1133  0.1017 -0.1111
17071TIP3   OH272627   2.822   5.260   2.635  0.1523 -0.0630 -0.3761
17071TIP3    H172628   2.730   5.235   2.621  0.0926  0.5870 -1.1600
17071TIP3    H272629   2.818   5.333   2.696  0.1476  0.0141 -0.4691
17072TIP3   OH272630   5.762   3.038  16.487 -0.7144 -0.2464  0.2742
17072TIP3    H172631   5.808   2.982  16.423 -0.4676  0.6148 -0.3169
17072TIP3    H272632   5.683   2.989  16.508  0.8814 -2.2724  2.1039
17073TIP3   OH272633   6.696   2.728  16.001  0.0226 -0.5138  0.1450
17073TIP3    H172634   6.647   2.790  16.055 -0.6572 -0.3351 -0.6624
17073TIP3    H272635   6.639   2.709  15.927  0.4010 -1.7750  0.1449
17074TIP3   OH272636   3.653   2.570  15.555  0.2464  0.4056 -0.3704
17074TIP3    H172637   3.684   2.483  15.530 -0.7433  0.1578 -0.7564
17074TIP3    H272638   3.732   2.616  15.583  0.4946 -1.4882  2.4917
17075TIP3   OH272639   5.277   6.656   1.158  0.7477  0.2613  0.1112
17075TIP3    H172640   5.211   6.606   1.207  0.6585  0.9199  0.6699
17075TIP3    H272641   5.360   6.629   1.196  0.9000 -1.2056 -1.1527
17076TIP3   OH272642   1.441   6.755   2.382 -0.0575 -0.9097  0.7001
17076TIP3    H172643   1.409   6.765   2.472 -0.1638  0.4282  0.5310
17076TIP3    H272644   1.535   6.774   2.387 -0.5284  2.1757  0.1222
17077TIP3   OH272645   0.556   2.159   5.821  0.6189  0.3223  0.1338
17077TIP3    H172646   0.556   2.247   5.859 -0.9080  0.5936 -0.4182
17077TIP3    H272647   0.541   2.174   5.727  0.5255 -0.5138  0.0069
17078TIP3   OH272648   3.228   3.276   3.852  0.4388 -0.1760  0.0351
17078TIP3    H172649   3.235   3.324   3.935 -2.7151  1.0308 -0.2452
17078TIP3    H272650   3.185   3.193   3.876 -0.2324  0.0612 -0.3013
17079TIP3   OH272651   1.178   5.117  16.057 -0.0241 -0.1212 -0.1295
17079TIP3    H172652   1.267   5.105  16.022 -0.2862 -2.1685 -0.2289
17079TIP3    H272653   1.123   5.061  16.003 -1.1767  0.1075  0.7579
17080TIP3   OH272654   6.103   0.529  11.531  0.0781 -0.1293 -0.3361
17080TIP3    H172655   6.097   0.571  11.617 -1.6952  1.1614 -1.0239
17080TIP3    H272656   6.050   0.449  11.540 -0.2345  0.0835 -0.2578
17081TIP3   OH272657   4.840   5.389   1.764  0.2759 -0.2087 -0.1668
17081TIP3    H172658   4.884   5.362   1.845  0.2911  0.9096  0.2085
17081TIP3    H272659   4.906   5.439   1.716 -0.3070  0.7592  0.0142
17082TIP3   OH272660   4.792   3.663  13.923 -0.0518  0.3959  0.7034
17082TIP3    H172661   4.831   3.749  13.907 -0.4892  0.6088  0.7792
17082TIP3    H272662   4.739   3.674  14.002 -1.0288  0.3676  0.0735
17083TIP3   OH272663   6.041   5.338  12.739 -0.2617 -0.7219  0.5665
17083TIP3    H172664   6.097   5.260  12.734 -0.8217 -1.0796 -0.3890
17083TIP3    H272665   6.054   5.370  12.828  1.7886 -0.5237  0.2418
17084TIP3   OH272666   5.047   1.924   3.054  0.6872 -0.9107  0.5586
17084TIP3    H172667   5.114   1.880   3.002  1.2185 -0.0328  0.4683
17084TIP3    H272668   5.070   2.017   3.049 -1.2529 -0.4235 -0.5191
17085TIP3   OH272669   3.578   3.671   5.526  0.6133  0.0890  0.0083
17085TIP3    H172670   3.652   3.701   5.578  0.6623 -0.7193  0.4232
17085TIP3    H272671   3.601   3.582   5.501  0.2654  0.2146 -0.7901
17086TIP3   OH272672   5.584   3.550   4.592  0.2200  0.1364  0.7979
17086TIP3    H172673   5.523   3.624   4.596 -0.1922 -0.1402  0.0052
17086TIP3    H272674   5.636   3.566   4.513 -0.9822 -1.2179 -0.3437
17087TIP3   OH272675   5.907   2.419  14.450 -0.5817  0.4563 -0.1810
17087TIP3    H172676   5.906   2.414  14.545 -0.7708 -0.4686 -0.2249
17087TIP3    H272677   5.913   2.328  14.421  0.2926  0.7730 -1.0452
17088TIP3   OH272678   3.022   3.186  14.449 -0.0316 -0.1834  0.3205
17088TIP3    H172679   3.059   3.216  14.366  0.3886 -1.8399 -0.1276
17088TIP3    H272680   3.067   3.239  14.515  0.5660  0.2652 -0.4283
17089TIP3   OH272681   4.720   6.497  11.044 -0.2142  0.0791  0.3415
17089TIP3    H172682   4.781   6.559  11.083  0.7891 -0.3052 -0.5766
17089TIP3    H272683   4.771   6.417  11.031 -0.9708 -0.3349 -0.2241
17090TIP3   OH272684   0.928   4.573   3.354 -0.0242 -0.1182  0.8071
17090TIP3    H172685   0.900   4.488   3.322  2.0900 -1.0393  1.2222
17090TIP3    H272686   1.019   4.581   3.325  0.9134  0.4801  3.6295
17091TIP3   OH272687   1.207   3.813  11.094 -0.4485  0.3820 -0.0872
17091TIP3    H172688   1.234   3.721  11.105 -0.7565  0.1038 -1.5125
17091TIP3    H272689   1.183   3.841  11.182  2.1018 -0.0912  0.8592
17092TIP3   OH272690   4.173   6.524   5.243 -0.1672 -0.1696 -0.4620
17092TIP3    H172691   4.232   6.529   5.167  1.5842 -0.0697  0.8253
17092TIP3    H272692   4.166   6.615   5.273  2.0613 -0.5487  1.5201
17093TIP3   OH272693   3.981   4.181   5.702  0.5043  0.0820  0.1800
17093TIP3    H172694   3.909   4.243   5.708  0.8492  0.4442  0.5603
17093TIP3    H272695   3.972   4.125   5.779 -0.1360 -0.7107 -0.4427
17094TIP3   OH272696   2.360   0.633  12.888  0.1648  0.1277  0.3191
17094TIP3    H172697   2.404   0.589  12.960 -0.5411 -0.0965  0.6183
17094TIP3    H272698   2.370   0.574  12.813  2.2019  1.0213 -0.1973
17095TIP3   OH272699   5.438   4.835   4.701 -0.1238  0.9504 -0.5879
17095TIP3    H172700   5.532   4.841   4.685 -0.2318 -0.4773 -2.1252
17095TIP3    H272701   5.399   4.843   4.614 -1.4741  1.9422  0.0756
17096TIP3   OH272702   0.211   4.394   3.886  0.4617 -0.0594  0.5452
17096TIP3    H172703   0.192   4.301   3.880 -2.2122  0.4376  0.1449
17096TIP3    H272704   0.269   4.402   3.962  1.7464 -2.1188 -0.1337
17097TIP3   OH272705   3.624   4.117   0.106 -0.3905 -0.2934  0.5311
17097TIP3    H172706   3.537   4.104   0.068 -0.4041 -1.1558  0.8463
17097TIP3    H272707   3.682   4.062   0.053  0.1873  1.2353 -0.4777
17098TIP3   OH272708   2.894   5.483   3.339 -0.3187 -0.2430  0.4211
17098TIP3    H172709   2.902   5.576   3.319  1.3100 -0.0513  1.7856
17098TIP3    H272710   2.857   5.480   3.427  0.5147 -0.8302  0.7706
17099TIP3   OH272711   0.167   0.748  12.536 -0.9471 -0.0723 -0.1541
17099TIP3    H172712   0.076   0.774  12.553 -0.7772  0.8282 -0.5894
17099TIP3    H272713   0.201   0.815  12.478  0.7863  1.0346  1.9693
17100TIP3   OH272714   3.285   4.223   1.031 -0.4506  0.4497  0.6476
17100TIP3    H172715   3.279   4.221   1.127  0.7111 -0.8372  0.7371
17100TIP3    H272716   3.375   4.252   1.014 -0.8409  1.2494 -0.0706
17101TIP3   OH272717   2.773   3.433  16.888 -0.0457 -0.3544  0.1280
17101TIP3    H172718   2.763   3.351  16.841 -1.2610  0.0697 -0.3900
17101TIP3    H272719   2.695   3.439  16.943  0.1942  0.2907  0.4059
17102TIP3   OH272720   0.250   6.436   3.564 -0.3260 -0.1982 -0.8639
17102TIP3    H172721   0.232   6.525   3.594  0.0183  0.0757 -1.4509
17102TIP3    H272722   0.198   6.380   3.622 -1.5617  0.4561 -1.3040
17103TIP3   OH272723   1.095   2.112  10.321 -0.1654 -0.1248 -0.1926
17103TIP3    H172724   1.081   2.025  10.285 -2.3766 -0.3505  1.0265
17103TIP3    H272725   1.033   2.167  10.273  0.3312  0.5436 -0.0838
17104TIP3   OH272726   0.234   2.719  17.138  0.0412  0.6064  0.0958
17104TIP3    H172727   0.173   2.671  17.082 -2.7977  0.3549  3.1405
17104TIP3    H272728   0.304   2.656  17.157 -1.8149 -1.2365  1.2102
17105TIP3   OH272729   6.395   6.728  10.931 -0.2951  0.5390  0.1063
17105TIP3    H172730   6.346   6.786  10.873 -1.1969  0.9732  1.2662
17105TIP3    H272731   6.466   6.783  10.964  0.4223  0.1945 -0.8151
17106TIP3   OH272732   4.158   2.901   1.757 -0.1404 -0.0296  0.4185
17106TIP3    H172733   4.201   2.834   1.809 -0.0448  0.2257  0.6760
17106TIP3    H272734   4.065   2.891   1.775 -0.1664 -0.3971  0.0854
17107TIP3   OH272735   4.300   0.760  16.838 -0.8113 -0.5735  0.0982
17107TIP3    H172736   4.389   0.724  16.835 -0.4338  0.3028  0.2373
17107TIP3    H272737   4.284   0.777  16.930  0.4107  2.8119 -0.1712
17108TIP3   OH272738   0.025   0.627  14.078  0.4968  0.0567  0.1197
17108TIP3    H172739  -0.016   0.698  14.128 -0.1881  0.4782 -0.9990
17108TIP3    H272740   0.113   0.621  14.113  0.8609  2.0793 -0.3523
17109TIP3   OH272741   4.008   4.915  11.870  0.6194 -0.9796 -0.2953
17109TIP3    H172742   3.965   4.981  11.923  0.2190 -1.1803 -0.3692
17109TIP3    H272743   3.941   4.887  11.806  0.9574 -1.0466 -0.6266
17110TIP3   OH272744   0.962   0.790   2.722  0.5734 -0.0731  0.1487
17110TIP3    H172745   1.056   0.785   2.743  0.6910  0.0828 -0.3257
17110TIP3    H272746   0.957   0.851   2.649 -0.1894  2.0462  1.8735
17111TIP3   OH272747   5.579   4.137   0.738 -0.0818 -0.3445  0.6384
17111TIP3    H172748   5.584   4.229   0.765  0.0993 -0.3103  0.4902
17111TIP3    H272749   5.663   4.100   0.766  0.0447 -0.3457  0.2651
17112TIP3   OH272750   0.371   4.177  12.655 -0.6492 -0.1480  0.5773
17112TIP3    H172751   0.366   4.081  12.647  0.7646 -0.0689 -3.2309
17112TIP3    H272752   0.463   4.197  12.636 -1.2376  2.0501 -0.1455
17113TIP3   OH272753   5.300   0.606   0.225  0.4053  0.3277 -0.1822
17113TIP3    H172754   5.375   0.571   0.177 -0.4112 -0.6915 -0.7643
17113TIP3    H272755   5.227   0.596   0.164 -0.3888  0.3092  0.7606
17114TIP3   OH272756   2.308   5.520  14.234 -0.0996 -0.1346 -0.1519
17114TIP3    H172757   2.357   5.572  14.171 -0.6077 -0.7541 -1.0818
17114TIP3    H272758   2.231   5.573  14.255 -0.1310 -0.0921 -0.3692
17115TIP3   OH272759   4.657   4.482  11.151 -0.6557 -0.1540  0.3520
17115TIP3    H172760   4.672   4.462  11.243  0.4344 -2.9361 -0.3217
17115TIP3    H272761   4.718   4.553  11.132  0.8645 -1.1352  1.2897
17116TIP3   OH272762   4.908   1.857  10.946 -0.8133 -0.4079 -0.4833
17116TIP3    H172763   4.867   1.822  11.026 -1.1205  2.0160  0.4888
17116TIP3    H272764   4.866   1.942  10.933  1.8465  0.8846 -1.1433
17117TIP3   OH272765   3.878   5.134  13.793 -0.0915  0.8593 -0.0653
17117TIP3    H172766   3.801   5.187  13.814 -0.8156  0.7325 -2.1773
17117TIP3    H272767   3.944   5.198  13.766  0.3565  0.9215  1.1301
17118TIP3   OH272768   4.648   4.552  15.729  0.0382 -0.3489  0.2175
17118TIP3    H172769   4.615   4.623  15.674 -0.7764 -0.1127  0.9871
17118TIP3    H272770   4.669   4.594  15.812  1.0147 -0.7467  0.1907
17119TIP3   OH272771   6.141   2.476  14.054 -0.3780 -0.3696 -0.6832
17119TIP3    H172772   6.128   2.531  13.977 -0.7403 -0.4863 -0.7022
17119TIP3    H272773   6.231   2.444  14.046  0.3824  1.4178  0.0786
17120TIP3   OH272774   1.646   4.553   1.482 -0.6977  0.6235 -0.1028
17120TIP3    H172775   1.609   4.474   1.442 -1.1339  0.6416  0.2574
17120TIP3    H272776   1.681   4.523   1.566 -3.2293  1.2539  1.2741
17121TIP3   OH272777   6.022   6.516   1.597 -0.1442  0.0162 -0.1536
17121TIP3    H172778   6.084   6.587   1.617  0.7487 -0.8174  0.1155
17121TIP3    H272779   6.054   6.442   1.649 -2.0326 -0.1361  0.8586
17122TIP3   OH272780   1.737   0.810   3.230 -0.2577  0.1164 -0.4523
17122TIP3    H172781   1.680   0.769   3.295  2.1499 -1.1271  1.0365
17122TIP3    H272782   1.748   0.900   3.261 -0.4237 -0.0008 -0.0542
17123TIP3   OH272783   0.772   6.767   2.989 -0.7478  0.0340  0.1108
17123TIP3    H172784   0.700   6.706   2.971 -1.0024 -0.6487  2.9009
17123TIP3    H272785   0.731   6.853   2.989 -1.3382 -0.2364  0.4066
17124TIP3   OH272786   4.810   6.708  14.120 -0.1063 -0.5012  0.0427
17124TIP3    H172787   4.848   6.682  14.036 -0.7114 -2.7990  0.4262
17124TIP3    H272788   4.716   6.701  14.106 -0.2054 -0.9849  0.9356
17125TIP3   OH272789   4.816   4.532   5.960  0.5946 -0.2503  0.7714
17125TIP3    H172790   4.795   4.529   5.867  1.6657 -0.5632  0.5222
17125TIP3    H272791   4.893   4.476   5.969  0.6182 -0.0770  1.8206
17126TIP3   OH272792   1.159   4.706  14.344  0.0658  0.2674  0.1567
17126TIP3    H172793   1.191   4.721  14.255 -1.7812 -1.6486 -0.9415
17126TIP3    H272794   1.065   4.721  14.339 -0.3576 -1.6150  1.3085
17127TIP3   OH272795   3.313   6.254  14.335  0.2347  0.1491  0.1398
17127TIP3    H172796   3.325   6.347  14.313 -0.6534  0.3523  0.4606
17127TIP3    H272797   3.222   6.235  14.311  0.7250 -0.9310 -0.9153
17128TIP3   OH272798   5.407   5.523  11.158 -0.2256  0.1200  0.9013
17128TIP3    H172799   5.419   5.535  11.252  2.3547 -0.3151  0.6878
17128TIP3    H272800   5.483   5.473  11.129 -0.1509  1.5195 -1.6794
17129TIP3   OH272801   6.504   0.788  14.651 -0.8252  0.0601  0.1022
17129TIP3    H172802   6.555   0.740  14.586 -1.5469 -0.3734 -0.1487
17129TIP3    H272803   6.569   0.819  14.714 -0.1078  0.4967 -0.8199
17130TIP3   OH272804   4.275   2.444  14.601  0.4294 -0.4187  0.0906
17130TIP3    H172805   4.184   2.455  14.574  0.5565  0.1334 -0.1306
17130TIP3    H272806   4.273   2.447  14.697  0.3857  1.0611  0.0602
17131TIP3   OH272807   5.067   1.442   1.071 -0.1473  0.5276 -0.2206
17131TIP3    H172808   5.012   1.518   1.050 -0.8088  0.8347  2.1969
17131TIP3    H272809   5.098   1.460   1.160  0.7433 -1.4432 -0.0904
17132TIP3   OH272810   0.748   1.839   0.318  0.2246 -0.1594 -0.7842
17132TIP3    H172811   0.843   1.830   0.328  0.4806  2.2423 -0.3574
17132TIP3    H272812   0.712   1.802   0.399  0.8699 -0.3061 -0.5614
17133TIP3   OH272813   4.288   4.124   4.237 -0.5894  0.7235  0.2806
17133TIP3    H172814   4.238   4.148   4.315 -0.1088  0.6324  0.6175
17133TIP3    H272815   4.327   4.207   4.208 -0.1542  0.6182  0.5720
17134TIP3   OH272816   2.052   5.982  11.909  0.0194  0.2305  0.8534
17134TIP3    H172817   1.986   6.014  11.848  0.7083  2.1634  1.0358
17134TIP3    H272818   2.012   5.989  11.995 -0.0812 -0.1060  0.8346
17135TIP3   OH272819   6.639   4.370  14.187 -0.4407 -0.1505 -0.2351
17135TIP3    H172820   6.625   4.401  14.098  0.0338 -2.6673 -1.2675
17135TIP3    H272821   6.708   4.305  14.180  0.6262  0.5897  2.2391
17136TIP3   OH272822   2.959   5.542  12.589  0.6452 -0.2217  0.1479
17136TIP3    H172823   3.045   5.570  12.558  0.0693 -0.1352 -1.4208
17136TIP3    H272824   2.963   5.446  12.587  0.8985 -0.2310  0.6932
17137TIP3   OH272825   0.457   5.829  13.393 -0.3713  0.4336  0.4415
17137TIP3    H172826   0.414   5.777  13.461 -1.5133  0.0903 -0.5067
17137TIP3    H272827   0.544   5.789  13.385 -0.9089 -0.7707  0.3604
17138TIP3   OH272828   5.258   0.076  11.856 -0.1342 -0.4156  0.6847
17138TIP3    H172829   5.264   0.163  11.816 -3.1700  0.4329  1.8591
17138TIP3    H272830   5.262   0.016  11.782 -1.7072  0.9262 -0.5752
17139TIP3   OH272831   0.103   1.641   0.602 -0.4298  0.3394  0.1298
17139TIP3    H172832   0.031   1.678   0.653  0.6578 -0.1630  2.1423
17139TIP3    H272833   0.068   1.559   0.568 -1.3519  0.9433 -0.4181
17140TIP3   OH272834   4.904   1.282  12.713 -0.3534  0.4841 -0.0551
17140TIP3    H172835   4.984   1.256  12.757 -0.5426 -3.0110 -1.3823
17140TIP3    H272836   4.919   1.260  12.621 -2.1610  1.5433 -0.6657
17141TIP3   OH272837   4.100   2.099   0.946 -0.0003  0.2949  0.3252
17141TIP3    H172838   4.145   2.184   0.946  1.1301 -0.2923  0.3758
17141TIP3    H272839   4.029   2.110   1.009 -0.1644  1.3533 -0.0166
17142TIP3   OH272840   3.145   3.391  16.131  0.0120  0.3009 -0.4213
17142TIP3    H172841   3.239   3.405  16.147  0.0888  1.2788 -1.5586
17142TIP3    H272842   3.102   3.424  16.210  0.6206 -0.3094  0.1828
17143TIP3   OH272843   2.498   2.733   5.393  0.3664  0.1041 -0.4069
17143TIP3    H172844   2.578   2.745   5.444  1.0267  0.3815 -1.4729
17143TIP3    H272845   2.467   2.646   5.418 -0.7552  1.1922  2.3363
17144TIP3   OH272846   5.969   0.374  16.939  0.3241 -0.0535  0.0160
17144TIP3    H172847   5.922   0.297  16.970  1.3094 -0.3793  0.7615
17144TIP3    H272848   6.007   0.412  17.019  1.4877  0.0763 -0.5911
17145TIP3   OH272849   5.683   0.273  15.581  0.0063  0.1186  0.1377
17145TIP3    H172850   5.746   0.295  15.649  0.1857  0.2995 -0.0862
17145TIP3    H272851   5.606   0.326  15.600 -0.2359 -0.4075  0.6532
17146TIP3   OH272852   3.810   5.405   5.280 -1.1680 -0.1998  0.8158
17146TIP3    H172853   3.775   5.331   5.229  0.7536 -0.8084  0.2897
17146TIP3    H272854   3.879   5.367   5.333  1.1256  1.4626 -0.7930
17147TIP3   OH272855   2.462   5.388   2.079 -0.3136  0.2351  0.0765
17147TIP3    H172856   2.484   5.409   1.989  1.0296 -1.3016  0.0041
17147TIP3    H272857   2.371   5.358   2.076 -0.0127 -0.6368 -0.9268
17148TIP3   OH272858   5.706   2.632  13.114  0.0350 -0.2754 -0.6294
17148TIP3    H172859   5.686   2.726  13.112  2.6856  0.3770  0.0739
17148TIP3    H272860   5.707   2.610  13.207  0.0412 -0.8592 -0.7648
17149TIP3   OH272861   6.224   2.109   0.908 -0.0871  0.2152 -0.5828
17149TIP3    H172862   6.274   2.030   0.888  1.6142  1.3183 -0.8047
17149TIP3    H272863   6.289   2.177   0.919 -1.4936  1.5015  0.1458
17150TIP3   OH272864   4.018   0.201   4.557 -0.1753 -0.0987 -0.0343
17150TIP3    H172865   3.933   0.233   4.588  0.9203  1.8811  1.2112
17150TIP3    H272866   4.053   0.152   4.632  0.9283  1.5511  0.5949
17151TIP3   OH272867   2.288   5.448   1.027 -0.3324  0.5266  0.3917
17151TIP3    H172868   2.298   5.422   0.935  0.4543  2.1745 -0.0231
17151TIP3    H272869   2.322   5.537   1.031 -0.7380  0.6450  2.2163
17152TIP3   OH272870   4.048   5.141  15.586 -0.3485  0.1321 -0.0058
17152TIP3    H172871   3.975   5.120  15.528  0.3414 -0.3083 -0.7370
17152TIP3    H272872   4.039   5.235  15.601 -1.9129 -0.1509  1.1364
17153TIP3   OH272873   5.335   2.165  11.377  0.1249 -0.0565 -0.1285
17153TIP3    H172874   5.411   2.125  11.336  0.3830  0.3356 -0.0316
17153TIP3    H272875   5.342   2.259  11.357  0.0662  0.0903  0.5084
17154TIP3   OH272876   3.175   4.862   5.756  0.8172  0.1409  0.4998
17154TIP3    H172877   3.228   4.785   5.736  1.7348  0.9063 -0.0900
17154TIP3    H272878   3.147   4.894   5.670 -0.1539  0.0663  0.7778
17155TIP3   OH272879   2.736   3.533   2.980  0.2237 -0.1679 -0.1531
17155TIP3    H172880   2.732   3.627   2.961  1.2330 -0.3152 -1.1879
17155TIP3    H272881   2.712   3.527   3.072  0.8711  1.1836  0.1337
17156TIP3   OH272882   6.125   3.503   1.235  0.2091  0.3579 -0.1879
17156TIP3    H172883   6.189   3.565   1.269 -2.9127  3.9156 -0.0804
17156TIP3    H272884   6.117   3.525   1.142 -0.7674 -0.0091 -0.2059
17157TIP3   OH272885   0.745   3.986   0.142 -0.3133  0.0923  0.0605
17157TIP3    H172886   0.727   3.906   0.192 -0.7827  0.4949  0.5572
17157TIP3    H272887   0.831   4.015   0.173  0.7117 -1.1852 -1.4415
17158TIP3   OH272888   1.013   5.747  16.208 -0.2404  0.5470 -0.0451
17158TIP3    H172889   1.032   5.658  16.236 -0.4801  0.3505 -0.4988
17158TIP3    H272890   1.049   5.753  16.120 -1.6250  0.3787 -0.6577
17159TIP3   OH272891   6.560   4.533   5.188  0.2568 -0.0071  0.5027
17159TIP3    H172892   6.482   4.564   5.141  1.1865 -0.4533 -1.4272
17159TIP3    H272893   6.625   4.602   5.176  1.1922 -1.0585 -0.7826
17160TIP3   OH272894   3.738   6.769   0.386  0.2542 -0.1395 -0.1086
17160TIP3    H172895   3.705   6.689   0.428 -0.2280  0.6167  1.0059
17160TIP3    H272896   3.811   6.796   0.442  1.3732 -0.5783 -1.3088
17161TIP3   OH272897   0.015   2.979  14.009 -0.0744  0.4912  0.2816
17161TIP3    H172898  -0.075   2.984  14.042 -0.2102 -0.3614  0.0673
17161TIP3    H272899   0.031   2.885  13.998  0.7829  0.6474  0.1481
17162TIP3   OH272900   3.863   5.062  16.512  0.2869 -0.2584 -0.4400
17162TIP3    H172901   3.884   5.047  16.420  0.9501  0.7381 -0.4742
17162TIP3    H272902   3.947   5.088  16.552 -0.2536  0.7168  0.1196
17163TIP3   OH272903   3.333   5.700   3.352  0.2401 -0.5007 -0.0147
17163TIP3    H172904   3.310   5.610   3.331  1.5121 -1.0648  0.8994
17163TIP3    H272905   3.366   5.736   3.269  0.0251 -0.9620 -0.3069
17164TIP3   OH272906   3.153   4.555   4.125 -0.0327  0.1956  0.1867
17164TIP3    H172907   3.077   4.541   4.068 -0.7076  0.8911  0.8801
17164TIP3    H272908   3.213   4.484   4.103 -0.9434 -0.4553 -0.2768
17165TIP3   OH272909   5.044   3.696  11.545  0.3710  0.0739 -0.0161
17165TIP3    H172910   4.971   3.726  11.491  0.0125 -1.9034 -0.6927
17165TIP3    H272911   5.004   3.636  11.608  1.4125 -1.2558 -0.5765
17166TIP3   OH272912   5.746   6.745   6.316  0.3513 -0.5558 -0.5452
17166TIP3    H172913   5.833   6.714   6.340  0.8953  0.9474 -0.5172
17166TIP3    H272914   5.758   6.836   6.290 -1.2261 -0.2683 -0.4146
17167TIP3   OH272915   4.688   6.470   4.950 -0.1541 -0.2904 -0.5708
17167TIP3    H172916   4.746   6.441   4.880  1.7230  0.2065  0.7131
17167TIP3    H272917   4.708   6.563   4.962 -1.7241  0.0775 -0.5478
17168TIP3   OH272918   3.196   2.942  14.794 -0.5379 -0.3495  0.2190
17168TIP3    H172919   3.202   2.875  14.727 -0.7755 -0.9077  0.7404
17168TIP3    H272920   3.105   2.971  14.791 -0.6543 -0.6652  0.5622
17169TIP3   OH272921   6.677   3.408   4.905  0.4039 -0.0997  0.2869
17169TIP3    H172922   6.683   3.419   5.000  0.2472  0.3418  0.2483
17169TIP3    H272923   6.600   3.459   4.880 -1.0078 -2.1694  0.2224
17170TIP3   OH272924   0.630   2.913  10.395  0.0139 -0.1450  0.8524
17170TIP3    H172925   0.700   2.856  10.427  0.7173  0.1323 -0.1422
17170TIP3    H272926   0.626   2.896  10.301 -1.5680 -0.4782  0.9503
17171TIP3   OH272927   1.535   1.767  14.702 -0.6603  0.0711 -0.0184
17171TIP3    H172928   1.474   1.836  14.729 -1.2469 -0.9100  1.2942
17171TIP3    H272929   1.572   1.798  14.620 -2.4220  1.0123 -0.5026
17172TIP3   OH272930   4.515   0.969  14.777  0.4336 -0.1257 -0.1418
17172TIP3    H172931   4.521   1.000  14.868  0.7915  1.3217 -0.6244
17172TIP3    H272932   4.426   0.988  14.751  0.8452  1.2071 -0.6569
17173TIP3   OH272933   5.254   2.398  15.062  0.3932  0.1004  0.0946
17173TIP3    H172934   5.165   2.431  15.047  0.2343  0.2513  1.2942
17173TIP3    H272935   5.309   2.477  15.060  0.2645  0.2195  1.0799
17174TIP3   OH272936   0.308   0.771   4.074 -0.1959  0.6695 -0.1956
17174TIP3    H172937   0.264   0.768   4.159 -1.3613 -0.8007 -0.8036
17174TIP3    H272938   0.367   0.846   4.080 -1.4461  1.6003  1.3252
17175TIP3   OH272939   4.074   4.230  16.189  0.0318  0.1171 -0.1437
17175TIP3    H172940   4.115   4.267  16.110 -0.9097 -1.7740 -1.6002
17175TIP3    H272941   4.147   4.210  16.247  0.6526  3.0712  0.2624
17176TIP3   OH272942   6.330   1.648   0.388 -0.6407 -0.3269  0.9070
17176TIP3    H172943   6.351   1.555   0.376 -1.6795 -0.3229 -1.5607
17176TIP3    H272944   6.236   1.650   0.405 -0.8967  0.2990 -0.4120
17177TIP3   OH272945   1.193   1.565   1.684  0.5777  0.2197  0.0131
17177TIP3    H172946   1.176   1.533   1.595  1.1344 -0.0755  0.0024
17177TIP3    H272947   1.222   1.655   1.672  1.1710  0.0119 -0.1592
17178TIP3   OH272948   2.980   4.980  13.021  0.6181  0.6185 -0.5872
17178TIP3    H172949   2.899   5.023  12.992  0.6169  0.4442 -0.8434
17178TIP3    H272950   2.979   4.989  13.116 -1.0812 -1.8058 -0.2884
17179TIP3   OH272951   5.022   4.234   1.183  0.7084  0.3112  0.0559
17179TIP3    H172952   5.018   4.158   1.241 -0.9387  1.4074  1.5040
17179TIP3    H272953   5.082   4.294   1.227  0.8781  0.4203 -0.3252
17180TIP3   OH272954   1.919   5.244  11.947  0.0221 -0.2097 -0.6950
17180TIP3    H172955   1.931   5.152  11.971  0.0662  0.5440  2.7374
17180TIP3    H272956   1.977   5.292  12.006 -1.8461  2.1394 -0.5884
17181TIP3   OH272957   5.539   5.033   3.224  0.0944  0.5483  0.1162
17181TIP3    H172958   5.542   5.012   3.131 -0.0939  1.5153 -0.1117
17181TIP3    H272959   5.571   5.123   3.230 -1.7091  1.1906  0.7485
17182TIP3   OH272960   2.905   0.699   4.598 -0.2790 -0.4721 -0.1623
17182TIP3    H172961   2.894   0.790   4.623 -0.6755 -0.7844  0.8297
17182TIP3    H272962   2.946   0.657   4.674  1.3931 -0.8042 -1.1822
17183TIP3   OH272963   1.514   5.264   1.862 -0.1917  0.2542 -0.1503
17183TIP3    H172964   1.502   5.357   1.878  0.4726  0.0610  1.7219
17183TIP3    H272965   1.493   5.222   1.946 -2.9490 -1.5448 -1.5830
17184TIP3   OH272966   4.552   5.742   0.183  0.2130  0.1768  0.1205
17184TIP3    H172967   4.479   5.776   0.234  0.2316 -1.5669  1.4203
17184TIP3    H272968   4.537   5.648   0.179  1.8947 -0.1089 -0.3821
17185TIP3   OH272969   3.578   0.397   4.410 -0.1666  0.2210 -0.0199
17185TIP3    H172970   3.541   0.376   4.495  1.5995  2.4839  1.4237
17185TIP3    H272971   3.505   0.384   4.349 -1.9689  0.0732  2.0299
17186TIP3   OH272972   4.790   2.851  13.258  0.6589 -0.0779  0.4969
17186TIP3    H172973   4.748   2.915  13.201  0.1525 -0.3662  0.5332
17186TIP3    H272974   4.785   2.889  13.346  1.2487  0.2708  0.3883
17187TIP3   OH272975   5.608   0.727   0.072  0.5162 -0.6515  0.1027
17187TIP3    H172976   5.530   0.695   0.115  0.8983 -0.3464  1.0481
17187TIP3    H272977   5.579   0.751  -0.016 -0.6578  0.3222  0.7298
17188TIP3   OH272978   6.096   3.581  16.268 -0.0154  0.5381 -0.0801
17188TIP3    H172979   6.003   3.590  16.288  0.2076  1.4873  0.5952
17188TIP3    H272980   6.103   3.495  16.226 -1.2363  0.6074 -0.4615
17189TIP3   OH272981   5.521   0.264   3.423  0.1104 -0.5451 -0.4139
17189TIP3    H172982   5.426   0.262   3.408 -0.0604  0.8013  0.3802
17189TIP3    H272983   5.532   0.232   3.512  0.5069 -1.5101 -0.7862
17190TIP3   OH272984   5.469   5.018  15.162 -0.2999  0.0803 -0.0312
17190TIP3    H172985   5.528   4.969  15.105 -1.4051 -0.3122 -0.8700
17190TIP3    H272986   5.508   5.105  15.169  1.1001 -0.5744  0.5709
17191TIP3   OH272987   0.848   3.307   2.976 -0.3172  0.3212 -0.3421
17191TIP3    H172988   0.795   3.343   2.905 -1.2968 -1.0788 -0.3433
17191TIP3    H272989   0.798   3.326   3.056  0.0999  0.6514 -0.1540
17192TIP3   OH272990   2.656   3.666  11.336 -0.1434 -0.1540 -0.5049
17192TIP3    H172991   2.733   3.695  11.385  0.1970 -0.9922 -0.5405
17192TIP3    H272992   2.691   3.625  11.257 -0.6869  1.0252 -1.3989
17193TIP3   OH272993   4.529   5.797   6.415  0.4611 -0.6349  0.1445
17193TIP3    H172994   4.624   5.801   6.409  0.3550 -0.1606 -1.7694
17193TIP3    H272995   4.500   5.887   6.403 -0.2364 -0.6038  1.6801
17194TIP3   OH272996   4.243   4.386   3.148 -0.8739  0.3486 -0.7224
17194TIP3    H172997   4.174   4.320   3.151 -0.2750 -0.2724 -0.2707
17194TIP3    H272998   4.324   4.335   3.147 -0.4036  1.0779 -0.1794
17195TIP3   OH272999   3.502   1.264  12.122 -0.3874 -0.2439 -0.3716
17195TIP3    H173000   3.560   1.191  12.103  0.5474  0.4203 -0.1349
17195TIP3    H273001   3.427   1.252  12.063 -0.2093 -1.3305 -0.3860
17196TIP3   OH273002   4.010   5.831  14.938 -0.0103  0.2488  0.3116
17196TIP3    H173003   4.045   5.810  15.025  0.8251 -0.0869 -0.0915
17196TIP3    H273004   4.086   5.825  14.880 -0.6163  0.1970 -0.4898
17197TIP3   OH273005   2.654   2.484   6.532  0.0125 -0.2100  0.0203
17197TIP3    H173006   2.643   2.470   6.626  1.8030  0.7397  0.4143
17197TIP3    H273007   2.591   2.552   6.510 -0.1752 -0.1891  0.6085
17198TIP3   OH273008   2.701   5.789   0.022  0.3833 -0.7349 -0.3011
17198TIP3    H173009   2.792   5.795   0.050 -0.4148 -1.4682  2.8325
17198TIP3    H273010   2.663   5.722   0.078 -2.3719  0.4102 -0.6274
17199TIP3   OH273011   5.357   0.116   0.510  0.1035 -0.0169 -0.1114
17199TIP3    H173012   5.338   0.210   0.503 -0.3199  0.0247  1.2979
17199TIP3    H273013   5.300   0.085   0.581 -1.9691 -1.9820 -2.4617
17200TIP3   OH273014   6.447   6.273   0.014 -0.4724 -0.0027  0.1934
17200TIP3    H173015   6.441   6.319   0.098 -0.5594 -0.0153  0.1949
17200TIP3    H273016   6.395   6.193   0.027 -0.1211 -0.2204  0.2694
17201TIP3   OH273017   0.677   4.122  14.710 -0.3453  0.1342 -0.0431
17201TIP3    H173018   0.670   4.170  14.628  1.3399  1.9060  0.7669
17201TIP3    H273019   0.758   4.153  14.749 -0.5546 -1.4505  1.8105
17202TIP3   OH273020   2.480   3.094  11.627 -1.0342  0.0318  0.1911
17202TIP3    H173021   2.418   3.110  11.556  2.6479  3.0536 -2.8010
17202TIP3    H273022   2.529   3.016  11.600  2.9573  3.2249 -3.2088
17203TIP3   OH273023   1.015   2.169  16.259  0.5271 -0.4182 -0.1497
17203TIP3    H173024   0.958   2.092  16.254  0.7791 -0.7368  1.3982
17203TIP3    H273025   1.064   2.168  16.177 -0.5269 -1.0514 -0.8013
17204TIP3   OH273026   2.014   6.245   4.108 -0.3158  0.0933  0.7226
17204TIP3    H173027   2.069   6.323   4.098 -1.0336  0.3913 -1.1723
17204TIP3    H273028   2.072   6.172   4.083  0.3196 -0.0089  2.3830
17205TIP3   OH273029   5.669   6.411  14.490  0.1091  0.4391 -0.3981
17205TIP3    H173030   5.622   6.389  14.409  1.7257 -0.8905 -1.0376
17205TIP3    H273031   5.683   6.327  14.533  2.2274  0.7075 -0.4601
17206TIP3   OH273032   3.788   1.503  12.868 -0.0779  0.0563  0.0026
17206TIP3    H173033   3.721   1.567  12.843  0.0660 -0.1854 -1.0905
17206TIP3    H273034   3.777   1.492  12.962 -1.6849 -0.0909 -0.1718
17207TIP3   OH273035   5.786   3.385   5.039  0.4707 -0.2110 -0.2767
17207TIP3    H173036   5.709   3.351   5.085 -0.6592  0.5924 -1.4787
17207TIP3    H273037   5.854   3.389   5.106 -0.4946 -1.0530  0.8020
17208TIP3   OH273038   0.778   3.992  13.138 -0.2629  0.2555  0.5823
17208TIP3    H173039   0.692   3.965  13.105 -0.1955 -0.7649  1.2025
17208TIP3    H273040   0.820   3.910  13.165  1.3432  0.6087 -0.6902
17209TIP3   OH273041   3.482   2.249  12.851 -0.1283  0.1919 -0.4641
17209TIP3    H173042   3.483   2.219  12.941 -0.3590 -0.1068 -0.5599
17209TIP3    H273043   3.569   2.227  12.818  0.1646  0.8423 -0.1440
17210TIP3   OH273044   6.308   1.766  10.832  0.2772 -0.0515 -1.3112
17210TIP3    H173045   6.276   1.855  10.816  1.9385  0.8789  0.2272
17210TIP3    H273046   6.350   1.741  10.750  2.0966  1.6593 -0.9635
17211TIP3   OH273047   1.237   2.778  12.828 -0.1603 -0.0270 -0.4367
17211TIP3    H173048   1.175   2.736  12.769 -1.3777  2.7998 -1.3324
17211TIP3    H273049   1.259   2.860  12.786  0.4607  1.2301  2.1111
17212TIP3   OH273050   6.095   2.135   2.047 -0.5081 -0.1077 -0.0374
17212TIP3    H173051   6.164   2.121   2.112 -0.5375 -0.0791 -0.0001
17212TIP3    H273052   6.033   2.194   2.090  0.0794  0.8950 -0.5125
17213TIP3   OH273053   1.195   4.316   0.233  0.2061 -0.5538  0.1167
17213TIP3    H173054   1.147   4.346   0.310  1.0268  0.0116  0.4264
17213TIP3    H273055   1.138   4.251   0.193  0.1833 -1.5918  1.7509
17214TIP3   OH273056   3.998   5.192  13.003  0.1780  0.0803 -0.2684
17214TIP3    H173057   4.048   5.250  13.060 -0.0462  1.0467 -1.0224
17214TIP3    H273058   3.908   5.198  13.035  0.1721  0.0562 -0.2799
17215TIP3   OH273059   5.986   5.828   6.487 -0.4571  0.7183 -0.1799
17215TIP3    H173060   5.972   5.858   6.397  1.1744 -2.3020 -1.5819
17215TIP3    H273061   5.929   5.752   6.497 -0.2395  0.6954  1.1594
17216TIP3   OH273062   4.552   4.584   2.066  0.1389  0.3596  0.3177
17216TIP3    H173063   4.541   4.679   2.075  0.6219  0.4082  0.4513
17216TIP3    H273064   4.644   4.574   2.040 -0.3564  0.0413 -1.4801
17217TIP3   OH273065   3.946   5.670  15.618  0.1353 -0.2090  0.4481
17217TIP3    H173066   3.912   5.682  15.706 -0.1473  0.2889  0.2766
17217TIP3    H273067   4.029   5.718  15.617 -0.2432  0.4478  0.2159
17218TIP3   OH273068   0.625   4.870   3.205 -0.4404 -0.4009 -0.2811
17218TIP3    H173069   0.592   4.792   3.161  1.3398 -0.1719 -2.1450
17218TIP3    H273070   0.554   4.933   3.200 -1.4091 -1.4389  0.0451
17219TIP3   OH273071   1.689   2.223   4.132 -0.3268 -0.0184 -0.5440
17219TIP3    H173072   1.767   2.247   4.083  0.1410 -1.6238 -0.6440
17219TIP3    H273073   1.618   2.227   4.068  0.1859 -1.5281 -1.2526
17220TIP3   OH273074   4.487   1.280  17.079 -0.1951 -0.0739  0.5310
17220TIP3    H173075   4.501   1.353  17.139  2.7633  0.8973 -1.1264
17220TIP3    H273076   4.414   1.308  17.024 -0.9999  0.3081  1.7566
17221TIP3   OH273077   1.085   1.693  12.323 -0.3635 -0.6092 -0.0603
17221TIP3    H173078   1.058   1.782  12.298  1.0634 -0.6452 -1.9475
17221TIP3    H273079   1.054   1.638  12.251  2.2409 -1.0184 -0.9667
17222TIP3   OH273080   2.349   2.275   5.642  0.0956 -0.1215  0.1361
17222TIP3    H173081   2.278   2.246   5.584 -0.2642 -0.3199  0.6747
17222TIP3    H273082   2.307   2.292   5.726  0.8848 -1.5774  0.8794
17223TIP3   OH273083   0.234   2.545   6.484 -0.0733 -0.0692 -0.2376
17223TIP3    H173084   0.319   2.584   6.502  0.3051 -0.9267 -0.1351
17223TIP3    H273085   0.236   2.524   6.390  0.2635 -1.0946 -0.0144
17224TIP3   OH273086   4.303   5.836   5.267 -0.2658 -0.3509  0.8468
17224TIP3    H173087   4.288   5.902   5.335 -0.0802 -0.0097  0.5606
17224TIP3    H273088   4.224   5.838   5.213  0.6803  1.3669 -0.5941
17225TIP3   OH273089   5.629   6.556  16.446 -0.0757  0.1932 -0.2566
17225TIP3    H173090   5.643   6.650  16.438 -2.7742  0.7893  0.7947
17225TIP3    H273091   5.599   6.544  16.536 -2.0599 -1.2504 -1.0165
17226TIP3   OH273092   1.423   4.691  14.951 -0.9790 -0.2803  0.2757
17226TIP3    H173093   1.479   4.615  14.936  0.6115  0.6168  1.3033
17226TIP3    H273094   1.395   4.718  14.864  1.0259 -0.1954 -0.3860
17227TIP3   OH273095   5.622   4.012  16.115 -0.6782  0.3546 -0.1014
17227TIP3    H173096   5.618   4.001  16.210 -1.3143  0.7664 -0.0681
17227TIP3    H273097   5.571   3.939  16.081  0.0305 -0.1155 -0.1518
17228TIP3   OH273098   2.303   0.842   4.164  0.1163  0.8029  0.1443
17228TIP3    H173099   2.294   0.762   4.112  0.2525  1.3268 -0.7051
17228TIP3    H273100   2.232   0.837   4.228  0.0956  0.0258  0.0789
17229TIP3   OH273101   2.480   0.641   3.565 -0.0050  0.1784  0.7807
17229TIP3    H173102   2.509   0.550   3.553 -0.2772  0.0148  1.2913
17229TIP3    H273103   2.441   0.665   3.481  0.6189  0.0339  0.4460
17230TIP3   OH273104   4.122   6.366   3.041 -0.0083  0.1421  0.3760
17230TIP3    H173105   4.139   6.437   2.980 -0.0594  0.2188  0.4521
17230TIP3    H273106   4.032   6.380   3.071  0.1620  0.3474  0.7935
17231TIP3   OH273107   3.632   5.297   2.095  0.2158 -0.2054  0.0359
17231TIP3    H173108   3.674   5.261   2.173  3.5740 -0.0906 -1.5298
17231TIP3    H273109   3.616   5.221   2.039 -0.1676 -0.0696 -0.0423
17232TIP3   OH273110   6.607   0.005   0.592  0.0770 -0.9714  0.1762
17232TIP3    H173111   6.697   0.023   0.566  0.4895  0.0804  2.1835
17232TIP3    H273112   6.615  -0.045   0.673 -1.1250  0.4704  1.2232
17233TIP3   OH273113   5.968   4.460  16.606  0.4582  0.6639 -0.1429
17233TIP3    H173114   6.029   4.523  16.644  1.0536 -0.7787  1.3901
17233TIP3    H273115   5.882   4.500  16.616  0.8474  1.3336  0.6124
17234TIP3   OH273116   0.739   3.080  15.370  0.6054  0.5953  0.2378
17234TIP3    H173117   0.660   3.037  15.335  0.4025  0.5878  0.6945
17234TIP3    H273118   0.807   3.013  15.361  0.9630  1.1450 -1.6657
17235TIP3   OH273119   5.181   4.901  16.339 -0.4518 -0.1831 -0.0291
17235TIP3    H173120   5.143   4.983  16.308 -0.9842 -0.4728 -0.1503
17235TIP3    H273121   5.150   4.834  16.278  0.1163 -0.4520 -0.0316
17236TIP3   OH273122   1.758   6.111   5.527 -0.4855 -0.4436 -0.4769
17236TIP3    H173123   1.809   6.146   5.599 -1.6210 -1.8829  1.0939
17236TIP3    H273124   1.709   6.186   5.493  2.2144  0.8912 -1.7691
17237TIP3   OH273125   4.773   2.581  16.628 -0.2038 -0.7126  0.2037
17237TIP3    H173126   4.843   2.525  16.595 -0.4465 -1.4378  0.8895
17237TIP3    H273127   4.770   2.564  16.722 -1.8247 -1.3240  0.0887
17238TIP3   OH273128   1.533   4.719   6.156  0.0130 -0.4622 -0.0601
17238TIP3    H173129   1.527   4.656   6.228 -0.4872 -2.6822 -1.9292
17238TIP3    H273130   1.443   4.748   6.142  0.3153  1.2309  1.1823
17239TIP3   OH273131   0.387   3.227   3.460  0.7359  0.8476 -0.2211
17239TIP3    H173132   0.410   3.259   3.547  0.1679 -1.1228  0.7058
17239TIP3    H273133   0.428   3.289   3.400  2.3603  1.4520  1.4219
17240TIP3   OH273134   1.231   4.337   2.950 -0.2425  0.2956 -0.7699
17240TIP3    H173135   1.135   4.335   2.947 -0.2484 -0.0507 -0.4499
17240TIP3    H273136   1.258   4.301   2.865 -0.4019 -1.5756 -0.0838
17241TIP3   OH273137   3.485   2.815   2.916 -0.5573  0.2533  0.9974
17241TIP3    H173138   3.412   2.863   2.956  0.9030  2.8618  0.7717
17241TIP3    H273139   3.531   2.881   2.864  1.0822 -1.6596 -0.1284
17242TIP3   OH273140   5.114   1.304  15.931  0.0276  0.6381 -0.1912
17242TIP3    H173141   5.106   1.303  16.026  0.1413 -0.2249 -0.1785
17242TIP3    H273142   5.167   1.227  15.911 -1.9053 -0.5380 -1.0986
17243TIP3   OH273143   3.328   2.467   2.872 -0.1449 -0.0606 -0.3354
17243TIP3    H173144   3.336   2.372   2.862 -0.2051 -0.0477 -0.5033
17243TIP3    H273145   3.417   2.500   2.865 -0.2962  0.0576 -1.9018
17244TIP3   OH273146   4.389   0.510  15.574  0.0700 -0.5499 -0.5675
17244TIP3    H173147   4.460   0.540  15.630 -2.4206  1.9474  1.5800
17244TIP3    H273148   4.405   0.552  15.489  1.6264 -0.8958 -0.4770
17245TIP3   OH273149   3.450   1.485   2.421 -0.1176  0.2098 -0.2670
17245TIP3    H173150   3.470   1.514   2.332  1.8678 -1.0081 -0.2723
17245TIP3    H273151   3.459   1.564   2.474  1.4582  0.4180 -0.7947
17246TIP3   OH273152   6.208   5.546  13.249 -0.5222  0.4428 -0.7063
17246TIP3    H173153   6.141   5.584  13.193  0.9936  0.0524 -2.9391
17246TIP3    H273154   6.242   5.472  13.199  3.3760  2.1810 -1.0086
17247TIP3   OH273155   1.893   6.713  13.120 -0.5213  0.0615  0.0776
17247TIP3    H173156   1.927   6.792  13.163 -1.4536 -0.3244  1.6188
17247TIP3    H273157   1.969   6.675  13.076  0.5165  0.4763  1.4257
17248TIP3   OH273158   0.121   2.788  14.617  0.2710 -0.3084 -0.9321
17248TIP3    H173159   0.092   2.873  14.648  0.7144 -0.3515 -0.3798
17248TIP3    H273160   0.073   2.774  14.536  0.5718  0.6975 -1.2997
17249TIP3   OH273161   5.016   6.323   4.622  0.2095  0.0730  0.0096
17249TIP3    H173162   5.101   6.337   4.580  1.0081 -1.5450  0.9847
17249TIP3    H273163   5.037   6.272   4.701 -1.7192 -0.7382  0.0425
17250TIP3   OH273164   0.538   5.069  15.066 -0.9077  0.3514 -0.3557
17250TIP3    H173165   0.483   5.128  15.119  0.1490 -1.3269  2.8147
17250TIP3    H273166   0.510   4.981  15.092 -0.1754 -0.5806 -2.5361
17251TIP3   OH273167   5.770   0.247   5.849 -0.0269 -0.0019  0.4764
17251TIP3    H173168   5.746   0.176   5.909  1.5352 -1.4903 -0.5712
17251TIP3    H273169   5.865   0.257   5.860  0.3374 -0.4517 -1.8348
17252TIP3   OH273170   4.712   1.240  11.414 -0.0093  0.3153  0.2944
17252TIP3    H173171   4.618   1.254  11.406 -0.1095 -0.1462  0.5989
17252TIP3    H273172   4.748   1.259  11.328 -0.2214  1.7336  0.5042
17253TIP3   OH273173   5.057   3.731  11.139  0.5393  0.0031  0.4046
17253TIP3    H173174   5.151   3.713  11.136  0.0580 -2.7876 -1.6164
17253TIP3    H273175   5.041   3.782  11.059  0.4049  1.1818  1.1577
17254TIP3   OH273176   2.078   0.309  15.756  0.1781  0.6806 -0.2983
17254TIP3    H173177   2.099   0.378  15.693  0.6769  0.4723 -0.3637
17254TIP3    H273178   2.031   0.355  15.826 -1.5048  0.7216 -1.3881
17255TIP3   OH273179   4.783   1.273   1.549  0.0577  0.1570  0.0839
17255TIP3    H173180   4.739   1.245   1.469  1.9393  0.1478 -1.0254
17255TIP3    H273181   4.876   1.277   1.524  0.5176  1.6511  1.8360
17256TIP3   OH273182   0.107   4.732   5.743  0.4416 -0.1422  0.3216
17256TIP3    H173183   0.084   4.648   5.782 -3.2577  0.5640  0.0658
17256TIP3    H273184   0.071   4.797   5.804  0.5188  1.1576 -0.9581
17257TIP3   OH273185   4.446   4.007   3.655 -0.0308 -0.3595 -0.4032
17257TIP3    H173186   4.536   4.010   3.689  0.7608 -1.3534 -2.2393
17257TIP3    H273187   4.405   3.934   3.702  1.1399 -1.9090 -1.6304
17258TIP3   OH273188   2.578   2.018  10.907 -0.3626  0.4428 -0.2819
17258TIP3    H173189   2.618   1.961  10.972  1.8613 -0.1119 -2.0219
17258TIP3    H273190   2.498   1.973  10.881  1.0384 -1.6412 -1.1822
17259TIP3   OH273191   2.409   0.416   0.891 -0.0633 -0.1441 -0.1169
17259TIP3    H173192   2.403   0.395   0.985  3.1906  0.1707  0.2817
17259TIP3    H273193   2.438   0.507   0.888 -1.9705  0.4775 -1.5439
17260TIP3   OH273194   5.666   2.821   4.148 -0.1999 -0.4098 -0.2077
17260TIP3    H173195   5.607   2.746   4.149 -0.6675 -0.0889 -1.4128
17260TIP3    H273196   5.630   2.882   4.212 -0.2449 -0.8844  0.2273
17261TIP3   OH273197   5.653   1.529  12.256  0.1243 -0.0268 -0.2291
17261TIP3    H173198   5.717   1.548  12.187  0.0893  0.0156 -0.2498
17261TIP3    H273199   5.671   1.593  12.324 -2.0478  2.2393 -1.6103
17262TIP3   OH273200   0.902   1.063   5.686 -0.3974  0.4457 -0.5233
17262TIP3    H173201   0.851   1.132   5.728 -0.5775 -0.1372  0.2438
17262TIP3    H273202   0.990   1.100   5.675  0.1960  0.0030  2.1236
17263TIP3   OH273203   4.675   5.871  16.563 -0.1490 -0.1591  0.6551
17263TIP3    H173204   4.741   5.935  16.589  0.4258 -0.2232 -0.5674
17263TIP3    H273205   4.673   5.808  16.635 -1.8119  1.9657  2.6195
17264TIP3   OH273206   4.753   3.841  15.403  0.8665  0.2942  0.0145
17264TIP3    H173207   4.674   3.805  15.445  0.2757  2.9125  1.4011
17264TIP3    H273208   4.821   3.831  15.469  1.1224  0.1387 -0.2743
17265TIP3   OH273209   2.147   0.675  14.594  0.5428  1.0886  0.4193
17265TIP3    H173210   2.098   0.723  14.526  0.3030 -0.9122 -0.9037
17265TIP3    H273211   2.217   0.632  14.546  0.4960 -0.2152  1.4773
17266TIP3   OH273212   5.083   4.600  15.101 -0.3283 -0.1400 -0.3492
17266TIP3    H173213   5.056   4.692  15.098 -0.7293 -0.1310  1.8588
17266TIP3    H273214   5.040   4.565  15.179  0.0427 -2.1497 -0.9895
17267TIP3   OH273215   3.631   1.972  10.769  0.4274 -1.1030 -0.0718
17267TIP3    H173216   3.551   1.941  10.727 -0.5315  1.7886 -0.6277
17267TIP3    H273217   3.697   1.967  10.700 -0.0743 -0.5009 -0.6099
17268TIP3   OH273218   0.856   6.153   6.515 -0.0173  0.4105  0.3401
17268TIP3    H173219   0.802   6.089   6.468 -1.3739  1.1637  0.8173
17268TIP3    H273220   0.795   6.224   6.536  1.2404  1.4157  0.6721
17269TIP3   OH273221   4.461   1.615   5.042  0.2774  0.4805 -0.1600
17269TIP3    H173222   4.453   1.534   5.092 -2.3906  1.3019  0.8811
17269TIP3    H273223   4.499   1.678   5.103  0.1168  0.6297 -0.2136
17270TIP3   OH273224   2.150   3.078   5.232  0.1141  0.0455 -0.0079
17270TIP3    H173225   2.063   3.076   5.192 -0.0321 -1.0282  0.3482
17270TIP3    H273226   2.145   3.150   5.295 -0.2616  0.4932 -0.5374
17271TIP3   OH273227   6.675   2.242  16.544  0.1827 -0.3376 -0.2168
17271TIP3    H173228   6.680   2.227  16.450 -1.0168 -1.7419 -0.0940
17271TIP3    H273229   6.648   2.157  16.581 -3.9127  1.1849  0.8976
17272TIP3   OH273230   0.759   1.732  13.524 -0.0701  0.0068 -0.2558
17272TIP3    H173231   0.796   1.658  13.476  1.1480 -0.8166  1.8185
17272TIP3    H273232   0.760   1.805  13.461  2.6334 -0.6508 -1.1167
17273TIP3   OH273233   5.969   1.713  14.206 -0.0166 -0.4610 -0.3584
17273TIP3    H173234   5.993   1.675  14.121 -3.9884 -0.9370 -1.4519
17273TIP3    H273235   5.993   1.645  14.269  2.2406 -0.4499 -1.1102
17274TIP3   OH273236   3.645   6.181   0.810 -0.3305 -0.3709  0.3056
17274TIP3    H173237   3.615   6.240   0.879 -0.2313  1.1924 -0.9232
17274TIP3    H273238   3.727   6.144   0.843 -0.4299  0.1340  1.1317
17275TIP3   OH273239   0.530   3.914  12.802 -0.7858 -0.5934 -0.0706
17275TIP3    H173240   0.560   3.896  12.891  0.4316 -0.1421 -0.3593
17275TIP3    H273241   0.457   3.855  12.789 -1.2314 -0.4136  1.3590
17276TIP3   OH273242   3.377   2.019  15.193 -0.1218  0.6006 -0.4880
17276TIP3    H173243   3.290   1.979  15.194  0.4986 -0.8409 -0.9179
17276TIP3    H273244   3.433   1.954  15.149  1.2050  1.4102 -0.0714
17277TIP3   OH273245   3.728   0.695   0.583  0.5447 -0.4280 -0.2330
17277TIP3    H173246   3.659   0.734   0.529  0.3174  0.4465  0.6653
17277TIP3    H273247   3.803   0.686   0.523 -0.5629 -2.1435 -1.4394
17278TIP3   OH273248   4.671   3.730  16.655 -0.5834  0.5301 -0.2194
17278TIP3    H173249   4.752   3.745  16.606  1.0285 -3.9431  0.6706
17278TIP3    H273250   4.696   3.742  16.747 -0.4029 -2.3065  0.1682
17279TIP3   OH273251   5.671   3.847   2.143  0.0053 -0.4605 -0.1283
17279TIP3    H173252   5.727   3.835   2.220 -1.3557 -1.3924  0.7671
17279TIP3    H273253   5.619   3.767   2.139 -2.6129  1.0815  0.2539
17280TIP3   OH273254   5.992   2.709  11.234  0.0593  0.6301 -0.4816
17280TIP3    H173255   5.944   2.777  11.188 -1.3124 -0.2122 -0.3572
17280TIP3    H273256   6.004   2.640  11.170 -1.3945 -0.3268  0.2286
17281TIP3   OH273257   1.912   2.689   5.630 -0.2869  0.9896  0.2014
17281TIP3    H173258   1.836   2.665   5.684 -0.1165  0.8257  0.3696
17281TIP3    H273259   1.971   2.614   5.636 -0.5383  0.7027 -0.7265
17282TIP3   OH273260   6.145   0.769  15.463 -0.3261  0.0360 -0.1593
17282TIP3    H173261   6.128   0.863  15.449 -0.4903 -0.0993 -0.9288
17282TIP3    H273262   6.090   0.746  15.538  0.2689  0.7127  0.5105
17283TIP3   OH273263   2.763   1.780   4.466  0.6109 -0.7075 -0.2271
17283TIP3    H173264   2.754   1.867   4.425  1.6244 -0.8406 -0.7608
17283TIP3    H273265   2.776   1.799   4.559  1.1901 -0.2676 -0.3914
17284TIP3   OH273266   2.155   6.474  16.642 -0.0697  0.1107 -0.2835
17284TIP3    H173267   2.235   6.471  16.695 -0.9355  0.6001  1.1149
17284TIP3    H273268   2.154   6.391  16.595  0.8292 -0.2604  0.3221
17285TIP3   OH273269   0.469   2.277  16.204 -0.4532 -0.1628  0.0116
17285TIP3    H173270   0.375   2.281  16.221 -0.4105  0.2072  0.1641
17285TIP3    H273271   0.490   2.184  16.207 -0.8311 -0.2557 -0.1155
17286TIP3   OH273272   0.794   0.847  14.803 -0.0427  0.4847 -0.0771
17286TIP3    H173273   0.833   0.779  14.859  1.6138  0.4426 -1.2027
17286TIP3    H273274   0.785   0.806  14.718 -0.7662  1.1290 -0.3253
17287TIP3   OH273275   2.293   2.201   4.279  0.3182 -0.2590  0.1636
17287TIP3    H173276   2.353   2.186   4.205  0.5057  1.3643 -0.0442
17287TIP3    H273277   2.351   2.224   4.352  0.0051  0.2665  0.2448
17288TIP3   OH273278   2.173   5.550   4.963 -0.0805  0.5034 -0.7538
17288TIP3    H173279   2.135   5.594   4.888 -1.3630 -0.9972 -1.0496
17288TIP3    H273280   2.137   5.461   4.959  1.5544 -0.2623  0.3912
17289TIP3   OH273281   3.669   5.045   5.802 -0.0771 -0.0907  0.6657
17289TIP3    H173282   3.657   5.138   5.782 -1.0674 -0.3774 -0.1445
17289TIP3    H273283   3.764   5.032   5.800  0.1193  1.0587  1.5657
17290TIP3   OH273284   3.269   3.612  13.463 -0.2761 -0.1139  0.2441
17290TIP3    H173285   3.279   3.586  13.555 -1.0273 -0.8655  0.1275
17290TIP3    H273286   3.196   3.559  13.431 -0.3737  0.5336 -0.6450
17291TIP3   OH273287   1.386   1.989  13.665  0.0110  0.0843  0.3192
17291TIP3    H173288   1.412   1.901  13.692 -0.0663  0.7684  2.8555
17291TIP3    H273289   1.469   2.032  13.642  0.4190  0.1585  1.7919
17292TIP3   OH273290   1.041   1.059  10.206  0.4282 -0.4189  0.3728
17292TIP3    H173291   0.984   0.993  10.245 -1.1725  1.7407  1.8781
17292TIP3    H273292   1.001   1.078  10.121 -0.4959  0.2754  0.9459
17293TIP3   OH273293   1.743   3.704   0.615 -0.4963 -0.2033  0.3108
17293TIP3    H173294   1.839   3.713   0.612 -0.5777  0.6127 -1.5718
17293TIP3    H273295   1.714   3.777   0.670 -0.0570 -0.2038  0.5499
17294TIP3   OH273296   3.934   6.094  12.894  0.0897 -0.0884  0.0491
17294TIP3    H173297   3.892   6.175  12.922  0.4826  0.2224 -0.2547
17294TIP3    H273298   3.946   6.104  12.800  0.9364 -0.1201  0.1384
17295TIP3   OH273299   0.861   2.546  16.589 -0.9871 -0.2173  0.2786
17295TIP3    H173300   0.805   2.582  16.657 -2.9396  0.7097 -1.7072
17295TIP3    H273301   0.937   2.510  16.637 -2.5589 -0.2541  2.9455
17296TIP3   OH273302   0.935   6.619  16.130 -0.1188 -0.4434 -0.2375
17296TIP3    H173303   0.963   6.595  16.042 -0.7118 -1.4961 -0.1687
17296TIP3    H273304   0.893   6.704  16.120  1.2655  0.2117 -0.6725
17297TIP3   OH273305   1.086   6.778   3.276 -0.1157  0.6458 -0.1392
17297TIP3    H173306   1.028   6.845   3.239  0.9123  1.2521 -0.7206
17297TIP3    H273307   1.112   6.814   3.361 -0.0160  0.7266 -0.2028
17298TIP3   OH273308   3.727   0.893  15.632 -0.6160 -0.0490  0.2079
17298TIP3    H173309   3.645   0.942  15.629 -0.1582  0.6845 -0.5527
17298TIP3    H273310   3.782   0.933  15.566  0.2699 -0.7156  0.5164
17299TIP3   OH273311   5.319   6.450  16.525 -0.3674 -0.2458 -0.0453
17299TIP3    H173312   5.396   6.496  16.558 -1.0614  1.6994 -0.9559
17299TIP3    H273313   5.317   6.471  16.432 -0.9532 -1.8453 -0.4153
17300TIP3   OH273314   5.411   1.178   5.700  0.0953  0.7649 -0.1886
17300TIP3    H173315   5.369   1.142   5.622 -0.3341  0.7774  0.0374
17300TIP3    H273316   5.364   1.138   5.773  2.0103 -1.1356  0.1303
17301TIP3   OH273317   1.256   2.899   5.299 -0.0297  0.3981 -0.0672
17301TIP3    H173318   1.269   2.965   5.367  0.0673  1.3107 -0.9510
17301TIP3    H273319   1.246   2.949   5.218  1.2934 -0.6901 -0.9664
17302TIP3   OH273320   2.831   0.649  16.398 -0.2464 -0.5269  0.3458
17302TIP3    H173321   2.881   0.659  16.479  0.0523  0.4235  0.0611
17302TIP3    H273322   2.742   0.628  16.428  0.0060 -0.8401  0.8947
17303TIP3   OH273323   1.053   6.586   5.384  0.3076 -0.0876  0.1541
17303TIP3    H173324   1.053   6.494   5.359 -2.0286 -0.3909  1.0060
17303TIP3    H273325   1.087   6.632   5.307 -0.3698 -1.5043 -1.0451
17304TIP3   OH273326   3.208   3.684   4.211 -0.2901 -0.1682 -0.3045
17304TIP3    H173327   3.119   3.718   4.209 -0.2597  0.2536  2.2094
17304TIP3    H273328   3.262   3.757   4.178 -0.8776 -0.8162 -2.9411
17305TIP3   OH273329   0.324   0.904   0.859 -0.8060 -0.4223 -0.7948
17305TIP3    H173330   0.406   0.916   0.812 -0.4952 -0.6534 -0.3169
17305TIP3    H273331   0.339   0.826   0.913 -0.4912  0.9314  1.1364
17306TIP3   OH273332   2.377   1.755   4.703 -0.2123  0.5704  0.2719
17306TIP3    H173333   2.282   1.760   4.699 -0.3426 -0.6007  1.2842
17306TIP3    H273334   2.403   1.826   4.761 -0.3969  1.3638 -0.6013
17307TIP3   OH273335   2.068   5.749  13.445  0.4805 -0.5636  0.6190
17307TIP3    H173336   2.083   5.688  13.372  2.8346  0.1776  0.4047
17307TIP3    H273337   2.027   5.825  13.404 -1.5232 -1.5072  0.7230
17308TIP3   OH273338   2.184   1.822   4.952 -1.1309  0.4250  0.4815
17308TIP3    H173339   2.184   1.830   5.047 -1.1847  0.4114  0.4833
17308TIP3    H273340   2.093   1.801   4.930 -0.6740 -2.0486  0.6480
17309TIP3   OH273341   4.022   4.031  14.321  0.2214  0.4401  0.1522
17309TIP3    H173342   4.079   3.955  14.309 -1.5049 -0.8421 -0.3768
17309TIP3    H273343   4.081   4.106  14.321  1.8729 -0.8061 -0.5632
17310TIP3   OH273344   5.824   1.035  12.676 -0.0946  0.0305 -0.2682
17310TIP3    H173345   5.912   1.046  12.638  0.3385 -0.0916  0.6634
17310TIP3    H273346   5.823   0.944  12.707 -0.9066 -0.2711 -1.1122
17311TIP3   OH273347   1.361   1.646  12.830  0.0604  0.1216  0.0008
17311TIP3    H173348   1.404   1.656  12.745 -0.5965  0.5551 -0.2893
17311TIP3    H273349   1.322   1.732  12.847  0.8182  0.2626  1.0941
17312TIP3   OH273350   4.818   4.486   5.668  0.1008 -0.1147  0.1686
17312TIP3    H173351   4.744   4.429   5.691  0.2074  0.5107  2.2864
17312TIP3    H273352   4.777   4.567   5.637 -0.0980 -0.1027  0.4564
17313TIP3   OH273353   0.362   4.505  12.737 -0.1612  0.1043 -0.3204
17313TIP3    H173354   0.359   4.598  12.761  0.4137  0.2773 -0.9123
17313TIP3    H273355   0.407   4.463  12.810 -2.1761 -0.0512  0.9332
17314TIP3   OH273356   1.430   0.982  10.459 -0.3579  0.2288  0.1810
17314TIP3    H173357   1.388   1.007  10.377 -0.6552  2.6203  0.9709
17314TIP3    H273358   1.431   1.063  10.511  1.9649 -0.6083  1.6142
17315TIP3   OH273359   4.791   4.392  11.690 -0.4164  0.1533  0.1908
17315TIP3    H173360   4.846   4.351  11.757  1.7872  0.0697 -1.5491
17315TIP3    H273361   4.715   4.335  11.683  0.5070 -1.2181  0.8712
17316TIP3   OH273362   0.156   4.714  15.637 -0.6910 -0.0075 -0.1865
17316TIP3    H173363   0.077   4.689  15.589 -0.4584  0.1486 -0.6635
17316TIP3    H273364   0.165   4.808  15.622 -0.5266  0.0148  0.0335
17317TIP3   OH273365   3.266   2.595  14.367  0.1689 -0.4077 -0.2639
17317TIP3    H173366   3.210   2.654  14.316  1.4808  0.6257 -0.5766
17317TIP3    H273367   3.317   2.547  14.301  0.4826 -0.4871  0.0309
17318TIP3   OH273368   3.480   1.138   5.951  0.1793 -0.2659 -0.1917
17318TIP3    H173369   3.550   1.074   5.939  0.2884 -0.0543 -0.7151
17318TIP3    H273370   3.410   1.109   5.892 -0.2090 -0.5156  0.3792
17319TIP3   OH273371   0.354   1.186   5.456  0.8397  0.4741 -0.3942
17319TIP3    H173372   0.432   1.145   5.420  0.4264 -0.6819 -0.0186
17319TIP3    H273373   0.319   1.121   5.518 -1.1425  0.3678 -1.5406
17320TIP3   OH273374   1.408   2.812  13.351  0.5624  0.7349  0.1254
17320TIP3    H173375   1.421   2.720  13.331 -1.0885  0.2565  1.1082
17320TIP3    H273376   1.351   2.844  13.281  2.1907  1.4080 -0.9809
17321TIP3   OH273377   2.543   4.409   4.253  0.5232  0.5647  0.2305
17321TIP3    H173378   2.461   4.404   4.203  0.5903  1.0790  0.0595
17321TIP3    H273379   2.519   4.383   4.342 -0.1101  1.9542  0.4973
17322TIP3   OH273380   0.948   4.013   3.556  0.1186  0.6626 -0.1215
17322TIP3    H173381   0.886   4.086   3.555 -1.0916 -0.2646  1.6276
17322TIP3    H273382   0.896   3.939   3.588  1.9151 -0.3634  0.5318
17323TIP3   OH273383   3.255   6.732   2.311  0.2838 -0.1358  0.9777
17323TIP3    H173384   3.217   6.784   2.382 -1.5780 -2.1297  1.5441
17323TIP3    H273385   3.218   6.644   2.323  2.5126 -1.3832 -0.5040
17324TIP3   OH273386   5.603   6.792  11.684  0.1296 -0.4455 -0.2723
17324TIP3    H173387   5.567   6.776  11.596 -1.2843 -1.9747  0.5267
17324TIP3    H273388   5.679   6.734  11.689  0.4661 -0.0460 -0.6105
17325TIP3   OH273389   3.345   6.596  15.577  0.7923 -0.8762 -0.0718
17325TIP3    H173390   3.270   6.609  15.636 -0.6489 -2.2490 -1.4904
17325TIP3    H273391   3.369   6.684  15.550 -1.7374 -0.4404 -1.2212
17326TIP3   OH273392   2.511   6.542  12.440 -0.2819  0.3298 -0.9801
17326TIP3    H173393   2.558   6.619  12.407 -1.6065  0.5968 -2.3841
17326TIP3    H273394   2.513   6.480  12.367 -1.2497 -0.0224 -0.7268
17327TIP3   OH273395   6.782   4.875   0.528  0.0045 -0.2891  0.4520
17327TIP3    H173396   6.823   4.802   0.575 -0.6773  0.2086  1.8901
17327TIP3    H273397   6.690   4.872   0.555 -0.0976  0.8977  0.2864
17328TIP3   OH273398   2.734   2.447  14.267  0.0572 -0.0292 -0.3727
17328TIP3    H173399   2.771   2.367  14.231 -1.6483 -0.2672 -1.7474
17328TIP3    H273400   2.687   2.419  14.345 -0.9694 -0.5089 -1.1320
17329TIP3   OH273401   4.712   5.363  11.875 -0.5000  0.4409  0.0489
17329TIP3    H173402   4.712   5.370  11.780 -3.0157  0.9364  0.0243
17329TIP3    H273403   4.752   5.445  11.905  1.4762 -0.2502 -0.5211
17330TIP3   OH273404   1.649   0.864  14.817 -0.0866 -0.0338  0.1621
17330TIP3    H173405   1.646   0.958  14.835  0.3913  0.2816 -1.2742
17330TIP3    H273406   1.710   0.855  14.744  0.9480 -1.6296  1.1454
17331TIP3   OH273407   4.736   2.667  12.705  0.2272  0.2210 -0.0544
17331TIP3    H173408   4.749   2.664  12.800  0.3395 -0.3162 -0.0791
17331TIP3    H273409   4.820   2.696  12.670  0.9724 -1.7979 -0.1173
17332TIP3   OH273410   0.716   2.128  13.427  0.1284  1.1700  0.5756
17332TIP3    H173411   0.764   2.104  13.506  0.6093 -0.3166 -0.1296
17332TIP3    H273412   0.767   2.199  13.389  0.6143  1.0165  0.9311
17333TIP3   OH273413   4.513   3.205   4.335 -0.2971  0.3943 -0.0033
17333TIP3    H173414   4.589   3.231   4.388  0.1532  0.7842 -0.8365
17333TIP3    H273415   4.526   3.248   4.251  0.1045 -1.9250 -1.1935
17334TIP3   OH273416   2.247   0.010  12.700 -0.1863 -0.4904 -0.4138
17334TIP3    H173417   2.207   0.094  12.676 -0.1881 -1.1702 -3.1457
17334TIP3    H273418   2.179  -0.036  12.749 -1.1752  0.0805 -1.2156
17335TIP3   OH273419   6.099   3.694  13.206 -0.4254 -0.0749 -0.4413
17335TIP3    H173420   6.155   3.616  13.201  0.6098  0.4117  1.8855
17335TIP3    H273421   6.045   3.680  13.284 -1.7802  0.6122 -1.2108
17336TIP3   OH273422   4.378   4.698   0.414 -0.4846  0.2304  1.1346
17336TIP3    H173423   4.338   4.649   0.486  1.7660 -1.5618  1.2674
17336TIP3    H273424   4.421   4.772   0.456 -1.3136  0.6415  1.2884
17337TIP3   OH273425   3.153   6.629   0.890  0.2626  0.0255 -0.1727
17337TIP3    H173426   3.168   6.643   0.796 -1.9026  2.8012 -0.2268
17337TIP3    H273427   3.239   6.645   0.930  0.8408  0.5213 -1.5483
17338TIP3   OH273428   4.517   3.298  15.853 -0.2442 -0.2676 -0.0538
17338TIP3    H173429   4.507   3.250  15.936 -0.0692 -0.4490 -0.1366
17338TIP3    H273430   4.608   3.325  15.852  0.3003 -1.9499 -1.0806
17339TIP3   OH273431   1.478   6.555  14.327  0.4449 -0.1912 -0.2214
17339TIP3    H173432   1.522   6.624  14.277  0.0142  0.0553 -0.2645
17339TIP3    H273433   1.416   6.602  14.383 -0.0752 -0.5601 -0.4833
17340TIP3   OH273434   5.414   1.492   0.328  0.2076 -0.0044 -0.3461
17340TIP3    H173435   5.424   1.587   0.335  0.6055 -0.0735  0.0999
17340TIP3    H273436   5.383   1.477   0.239 -3.7238  0.8521  0.6491
17341TIP3   OH273437   0.342   0.851  14.916 -0.2004  0.3882  0.1413
17341TIP3    H173438   0.308   0.765  14.939 -0.0443  0.7442  1.8302
17341TIP3    H273439   0.413   0.833  14.855 -0.7246 -0.6106 -0.1952
17342TIP3   OH273440   0.023   5.272  16.876  0.2569  0.1866  0.6849
17342TIP3    H173441  -0.047   5.216  16.909  0.9519 -0.4130  1.1865
17342TIP3    H273442   0.081   5.284  16.952  1.6996 -0.9096 -0.2007
17343TIP3   OH273443   2.527   2.984   4.864 -0.1777 -0.1908  0.5263
17343TIP3    H173444   2.576   3.066   4.853 -3.5532  2.5449  3.2663
17343TIP3    H273445   2.592   2.920   4.890  2.5967  1.6498 -1.3298
17344TIP3   OH273446   3.640   0.107  15.868 -0.1121 -0.5180 -0.8765
17344TIP3    H173447   3.605   0.195  15.851 -1.4977 -0.8565  0.0801
17344TIP3    H273448   3.592   0.050  15.809 -0.8177 -0.9141  0.0583
17345TIP3   OH273449   5.055   0.719  14.363 -0.6419  0.4375 -0.5334
17345TIP3    H173450   5.046   0.690  14.272 -0.7872  1.2260 -0.7733
17345TIP3    H273451   5.003   0.655  14.413 -1.6010  0.7159 -1.1374
17346TIP3   OH273452   3.548   4.569   5.621  0.2101  0.2276 -0.0206
17346TIP3    H173453   3.615   4.633   5.594 -0.1819  0.4054 -0.5941
17346TIP3    H273454   3.571   4.490   5.572 -1.2146  0.9050 -1.9048
17347TIP3   OH273455   3.823   5.839   2.110 -0.0675  0.2775 -0.2988
17347TIP3    H173456   3.868   5.869   2.189  2.0769 -2.6068 -0.3026
17347TIP3    H273457   3.893   5.817   2.049 -1.6018 -0.4900 -1.8667
17348TIP3   OH273458   5.913   2.042   3.823 -0.5844 -0.1588 -0.2598
17348TIP3    H173459   5.857   2.119   3.826  0.1217  0.3853 -0.9428
17348TIP3    H273460   5.997   2.073   3.791 -0.1033 -1.1071  0.0196
17349TIP3   OH273461   5.192   0.970  15.634  0.4099 -0.3607 -0.0106
17349TIP3    H173462   5.117   0.946  15.580  1.6381 -2.9147 -0.7074
17349TIP3    H273463   5.179   0.923  15.716 -0.6114  2.2291  1.4326
17350TIP3   OH273464   2.677   6.248   0.626  0.6403 -0.0789 -0.7258
17350TIP3    H173465   2.626   6.306   0.569  0.0468 -0.1373 -0.2521
17350TIP3    H273466   2.760   6.295   0.637 -0.3664  1.4540  0.8821
17351TIP3   OH273467   5.489   6.369   5.566  0.2077  0.2705  0.2280
17351TIP3    H173468   5.446   6.441   5.614  0.2122  0.1665  0.3874
17351TIP3    H273469   5.489   6.296   5.627  0.6453  0.2784  0.2402
17352TIP3   OH273470   2.488   3.608   5.166 -0.8687  0.5555 -0.0317
17352TIP3    H173471   2.430   3.544   5.125  2.1065 -1.8344 -0.7992
17352TIP3    H273472   2.514   3.666   5.094 -1.0781  0.6506 -0.0304
17353TIP3   OH273473   0.473   5.309  12.535 -0.1106  0.7062 -0.1532
17353TIP3    H173474   0.436   5.221  12.527  1.7459 -0.0533 -0.7954
17353TIP3    H273475   0.439   5.356  12.458 -1.8639  0.9078  0.6753
17354TIP3   OH273476   0.617   1.248  13.209 -0.3906  0.4316  0.4053
17354TIP3    H173477   0.659   1.332  13.225  0.3063  0.6573 -2.1882
17354TIP3    H273478   0.534   1.271  13.166 -0.9547 -0.1673  1.1521
17355TIP3   OH273479   0.318   1.189   1.178  0.7949 -0.5304  0.1983
17355TIP3    H173480   0.232   1.168   1.214  0.7110  0.2938  0.4898
17355TIP3    H273481   0.380   1.161   1.247  0.7733 -1.2492 -0.0697
17356TIP3   OH273482   6.648   4.468   2.818 -1.0081 -0.4384 -0.2199
17356TIP3    H173483   6.598   4.429   2.889  0.4223 -2.0623 -0.0395
17356TIP3    H273484   6.724   4.508   2.861  0.4272 -2.3548 -0.8476
17357TIP3   OH273485   5.919   2.575   2.280  0.1828  0.2550  0.0737
17357TIP3    H173486   5.883   2.589   2.368  1.6218 -2.3520  1.1760
17357TIP3    H273487   5.980   2.648   2.267  0.6540  0.1874  1.6619
17358TIP3   OH273488   5.080   5.908   3.950 -0.3810 -0.1957  0.1889
17358TIP3    H173489   5.082   5.979   4.015 -0.1730 -1.6063  1.7812
17358TIP3    H273490   5.021   5.843   3.988  1.1415 -1.8432 -0.1684
17359TIP3   OH273491   0.211   5.134   2.978  0.6531 -0.3079  0.1686
17359TIP3    H173492   0.228   5.211   2.923  1.0053 -0.6053 -0.1422
17359TIP3    H273493   0.152   5.080   2.926  1.8285 -1.0989 -0.3967
17360TIP3   OH273494   4.271   4.461   0.061 -0.2451 -0.1840  0.1016
17360TIP3    H173495   4.287   4.420  -0.024 -0.2667 -0.5616  0.2757
17360TIP3    H273496   4.240   4.389   0.117 -0.7907  0.1767  0.2693
17361TIP3   OH273497   0.946   5.417   4.023 -0.1315 -0.1561 -0.1227
17361TIP3    H173498   0.864   5.370   4.004  0.1399 -0.9732  0.6775
17361TIP3    H273499   0.929   5.461   4.106 -0.1828  0.7067 -0.5841
17362TIP3   OH273500   2.106   3.360  14.779 -0.1590  0.3225  0.1906
17362TIP3    H173501   2.159   3.426  14.823  1.0045 -0.5578  0.1611
17362TIP3    H273502   2.169   3.307  14.729 -0.9746 -1.1081  0.6091
17363TIP3   OH273503   2.476   6.582   4.198  0.4212 -0.5412  0.4201
17363TIP3    H173504   2.548   6.526   4.169  0.5018 -0.6171  0.7607
17363TIP3    H273505   2.406   6.521   4.219 -0.4035 -0.3896 -1.6516
17364TIP3   OH273506   2.635   1.722  13.498  0.0684 -0.3193 -0.3162
17364TIP3    H173507   2.688   1.768  13.433 -0.2984 -1.1597 -1.2336
17364TIP3    H273508   2.662   1.759  13.582  0.5138  0.8237 -0.9452
17365TIP3   OH273509   4.756   5.813  12.463 -0.4360 -0.2049  0.0999
17365TIP3    H173510   4.810   5.822  12.541 -1.8572 -0.3007  1.1241
17365TIP3    H273511   4.734   5.903  12.439  0.1340 -0.1657 -0.3181
17366TIP3   OH273512   0.735   5.354   5.870 -0.5842  0.6147 -0.5143
17366TIP3    H173513   0.822   5.384   5.845  1.3052 -1.9505  2.3453
17366TIP3    H273514   0.698   5.427   5.920  0.9943  0.8470  0.3618
17367TIP3   OH273515   2.516   5.857   4.372  0.1924  0.3970 -0.0728
17367TIP3    H173516   2.506   5.933   4.315 -1.3874 -0.1709 -0.6124
17367TIP3    H273517   2.486   5.887   4.458  0.8258  0.7383  0.0343
17368TIP3   OH273518   0.668   5.295  16.984  0.3485  0.3561  0.2549
17368TIP3    H173519   0.749   5.299  17.035  0.6436 -0.0720 -0.1661
17368TIP3    H273520   0.698   5.277  16.895 -0.0984  1.8543 -0.2282
17369TIP3   OH273521   3.720   0.920  15.162 -0.3447 -0.8267 -0.0853
17369TIP3    H173522   3.714   0.939  15.068 -0.2142 -2.3398 -0.4372
17369TIP3    H273523   3.813   0.906  15.178 -0.5380 -2.5376 -0.2049
17370TIP3   OH273524   5.726   4.619   3.779 -0.2609 -0.3643  0.0228
17370TIP3    H173525   5.734   4.692   3.717 -2.5217  0.1423  0.2180
17370TIP3    H273526   5.631   4.611   3.793 -0.0460 -2.9363  0.5024
17371TIP3   OH273527   1.914   5.116  12.255 -0.4422  0.2130 -0.0098
17371TIP3    H173528   1.826   5.116  12.292 -0.3695  0.6079  0.1687
17371TIP3    H273529   1.960   5.186  12.302  0.1164 -0.3247  0.2475
17372TIP3   OH273530   5.437   2.506   0.685  0.6782 -0.3220  0.1538
17372TIP3    H173531   5.480   2.507   0.600 -0.0812 -0.4221 -0.2420
17372TIP3    H273532   5.474   2.430   0.730 -0.3103 -1.4320 -0.8458
17373TIP3   OH273533   5.623   6.627  14.227 -0.0671 -0.0893 -1.0894
17373TIP3    H173534   5.716   6.612  14.213 -0.4361 -3.9819 -0.3192
17373TIP3    H273535   5.581   6.595  14.148 -0.8448  0.5580 -0.9554
17374TIP3   OH273536   4.537   3.380   4.805 -0.2669 -0.1676  0.4976
17374TIP3    H173537   4.478   3.454   4.794 -0.1292 -0.3513 -1.8113
17374TIP3    H273538   4.538   3.365   4.900  0.4511  3.3540  1.1751
17375TIP3   OH273539   2.833   1.512  12.011  0.0634  0.5011  0.1252
17375TIP3    H173540   2.882   1.499  12.092 -0.3693 -0.5762  0.2266
17375TIP3    H273541   2.748   1.546  12.039 -0.3801 -0.6351  0.2015
17376TIP3   OH273542   1.562   1.418  10.844  0.2315 -0.9005 -0.0951
17376TIP3    H173543   1.588   1.382  10.759  0.5540  1.1602 -0.9220
17376TIP3    H273544   1.629   1.483  10.865 -0.7828 -0.1362  0.9001
17377TIP3   OH273545   6.003   6.699   0.973 -0.0479  0.6757 -0.0416
17377TIP3    H173546   5.969   6.778   0.932 -1.0026  0.6248  0.6228
17377TIP3    H273547   6.094   6.694   0.944 -0.6682  0.6489 -2.1270
17378TIP3   OH273548   5.931   2.241  15.262 -0.0431  0.2176 -0.0283
17378TIP3    H173549   5.968   2.207  15.181  0.3476  0.6136 -0.0195
17378TIP3    H273550   5.891   2.165  15.304  1.3782 -0.3714  0.3065
17379TIP3   OH273551   4.743   6.465  12.578 -0.6316 -0.6133 -0.0384
17379TIP3    H173552   4.834   6.450  12.551 -1.3838 -3.2279 -1.3676
17379TIP3    H273553   4.728   6.402  12.648 -1.5866 -0.5733 -0.1972
17380TIP3   OH273554   4.228   6.740  15.236 -0.0941 -0.5899 -0.2475
17380TIP3    H173555   4.237   6.659  15.286 -0.6564 -0.9652 -0.7329
17380TIP3    H273556   4.264   6.719  15.150 -2.0865 -0.9662 -1.0249
17381TIP3   OH273557   5.037   0.484   1.365 -0.3000 -0.5687  0.2254
17381TIP3    H173558   5.086   0.557   1.402 -1.5675  0.6034 -0.3144
17381TIP3    H273559   4.948   0.497   1.398  0.0143 -3.8111  2.9544
17382TIP3   OH273560   3.630   0.577   4.132  0.2513  0.3153 -0.2223
17382TIP3    H173561   3.623   0.545   4.042  1.5618  1.9924 -0.9541
17382TIP3    H273562   3.721   0.603   4.142  0.0554  0.4847  1.5098
17383TIP3   OH273563   2.396   5.022  14.618 -0.0496 -0.8578  0.3969
17383TIP3    H173564   2.360   5.095  14.669 -0.6952 -1.1489  0.3678
17383TIP3    H273565   2.374   5.044  14.527 -1.2948 -1.6471  0.4814
17384TIP3   OH273566   5.479   1.793  14.935  0.2532 -0.1303 -0.4954
17384TIP3    H173567   5.412   1.744  14.983 -0.6202 -0.8754 -2.3991
17384TIP3    H273568   5.534   1.830  15.004 -0.6800 -1.4988  1.0797
17385TIP3   OH273569   6.253   2.713  12.570  0.3234  0.0733 -0.4383
17385TIP3    H173570   6.160   2.693  12.563  0.3311 -0.1513  0.0259
17385TIP3    H273571   6.263   2.797  12.527 -0.2110  0.4094  0.0752
17386TIP3   OH273572   1.338   6.107   5.954 -0.2196  0.2881 -0.2316
17386TIP3    H173573   1.405   6.122   5.887 -0.3327 -3.9139 -1.5779
17386TIP3    H273574   1.385   6.063   6.024 -0.9144  0.7670  0.5446
17387TIP3   OH273575   5.413   2.863   2.669 -0.4006 -0.5578 -0.1019
17387TIP3    H173576   5.485   2.925   2.656  1.8838 -2.9644  0.2752
17387TIP3    H273577   5.364   2.866   2.587  1.5827 -0.5631 -1.3514
17388TIP3   OH273578   2.976   4.286  16.694 -0.5284  0.4299  0.2941
17388TIP3    H173579   3.061   4.242  16.696 -0.5745  0.2965 -0.5718
17388TIP3    H273580   2.982   4.346  16.621 -1.4812 -0.2017 -0.3193
17389TIP3   OH273581   0.507   4.155  13.563 -0.6342  0.2556 -1.2554
17389TIP3    H173582   0.433   4.164  13.624  0.3296 -0.1815  0.0278
17389TIP3    H273583   0.569   4.222  13.591 -0.1325 -0.0177 -1.7137
17390TIP3   OH273584   0.978   3.284  14.204 -0.5876 -0.0038  0.5464
17390TIP3    H173585   0.913   3.266  14.136  0.6700 -0.7488 -0.4846
17390TIP3    H273586   1.045   3.217  14.193 -0.0140  0.2539  2.1169
17391TIP3   OH273587   3.176   4.623  12.888 -0.5049  0.4971  0.2533
17391TIP3    H173588   3.260   4.657  12.858  0.4197 -0.6998  1.3228
17391TIP3    H273589   3.168   4.537  12.846 -0.0318 -0.4216  1.9418
17392TIP3   OH273590   3.523   2.383   1.593 -0.0026  0.3382 -0.0000
17392TIP3    H173591   3.475   2.311   1.552  2.9482 -1.6993 -0.2329
17392TIP3    H273592   3.592   2.404   1.529 -0.4162  3.0149  0.3471
17393TIP3   OH273593   4.492   0.263  12.572 -0.3961  1.0739 -0.3835
17393TIP3    H173594   4.432   0.273  12.646 -0.5962  2.2292 -0.6735
17393TIP3    H273595   4.524   0.173  12.578 -2.4582  0.2892 -0.4536
17394TIP3   OH273596   6.468   1.066  16.142 -0.2059 -0.2447 -0.2512
17394TIP3    H173597   6.530   1.119  16.191 -1.3899  0.0292  0.9943
17394TIP3    H273598   6.447   0.993  16.200 -0.9922 -0.3750 -0.6798
17395TIP3   OH273599   6.666   5.474  11.530 -0.2528 -0.1964  0.4620
17395TIP3    H173600   6.612   5.550  11.511 -0.2760 -0.6474 -1.5387
17395TIP3    H273601   6.608   5.399  11.520  0.9443 -0.8286 -3.5621
17396TIP3   OH273602   2.479   5.951  10.643  0.1858  0.5047  0.8006
17396TIP3    H173603   2.522   5.891  10.705  1.0635  0.6129  0.3161
17396TIP3    H273604   2.528   5.940  10.562 -1.3391 -0.0902 -0.0806
17397TIP3   OH273605   3.200   6.148   4.202  0.5465 -0.3255 -0.2902
17397TIP3    H173606   3.249   6.230   4.192 -0.5677  0.4009  0.1050
17397TIP3    H273607   3.241   6.105   4.277 -0.3659  0.9953  1.0040
17398TIP3   OH273608   1.194   0.413   5.350 -0.4222  0.1028 -0.0594
17398TIP3    H173609   1.214   0.460   5.269 -3.3548  0.6160 -0.5821
17398TIP3    H273610   1.198   0.480   5.418  0.9357 -0.1117  0.1147
17399TIP3   OH273611   6.395   2.755  16.880  0.0774 -0.0410  0.0395
17399TIP3    H173612   6.435   2.828  16.928 -1.5539 -0.8054  2.7989
17399TIP3    H273613   6.308   2.787  16.856  0.3932 -0.1422 -1.3276
17400TIP3   OH273614   4.240   0.335   1.890 -0.3899 -0.1423 -0.5584
17400TIP3    H173615   4.240   0.319   1.984  0.8261 -1.4680 -0.7348
17400TIP3    H273616   4.214   0.426   1.880 -0.3621  0.0636  1.0677
17401TIP3   OH273617   4.946   2.702   3.968 -0.4244 -0.0247  0.6068
17401TIP3    H173618   4.928   2.720   3.876  0.5939 -2.4809 -0.1666
17401TIP3    H273619   4.957   2.788   4.008 -1.3558  1.1179 -1.4501
17402TIP3   OH273620   4.776   2.346  16.781  0.5612  0.1647  0.3148
17402TIP3    H173621   4.732   2.290  16.845  1.2922  0.4000  1.0420
17402TIP3    H273622   4.817   2.285  16.719 -0.6136 -0.0588 -0.2766
17403TIP3   OH273623   5.049   3.877   0.320  0.5034  0.2506 -0.2398
17403TIP3    H173624   5.088   3.936   0.385  0.2268 -0.0252  0.1810
17403TIP3    H273625   5.114   3.872   0.250  0.1394  1.8208 -0.7408
17404TIP3   OH273626   5.074   3.720   2.892  0.2923 -0.1447  0.0758
17404TIP3    H173627   4.994   3.703   2.842  0.3401 -0.6874  0.1724
17404TIP3    H273628   5.056   3.682   2.979  0.4994  0.0962  0.2248
17405TIP3   OH273629   5.121   5.764  16.058 -0.4867  0.0003 -0.3346
17405TIP3    H173630   5.149   5.676  16.085  2.0946  0.9171  0.3365
17405TIP3    H273631   5.073   5.798  16.134 -3.4544 -1.5074 -1.3875
17406TIP3   OH273632   2.111   3.334   5.342  0.6987 -0.0365  0.2074
17406TIP3    H173633   2.153   3.336   5.429 -0.1325  0.9203  0.6011
17406TIP3    H273634   2.046   3.404   5.345  1.1890  0.5364 -1.4792
17407TIP3   OH273635   5.008   0.628  13.098  0.6797  0.0078 -0.0634
17407TIP3    H173636   5.073   0.646  13.031  0.8539  0.8216  0.3103
17407TIP3    H273637   5.041   0.672  13.177 -0.9328  1.6207 -0.1960
17408TIP3   OH273638   2.555   4.146  10.676  0.3749  0.0117 -0.3910
17408TIP3    H173639   2.589   4.127  10.588  0.5145  0.2709 -0.3936
17408TIP3    H273640   2.543   4.060  10.716 -0.2930 -0.1336 -0.8869
17409TIP3   OH273641   0.891   5.330   0.002 -0.8315  0.0035  0.2737
17409TIP3    H173642   0.819   5.320   0.064  0.3316  0.4229  1.7727
17409TIP3    H273643   0.934   5.244   0.001 -1.4406 -0.3030 -0.7617
17410TIP3   OH273644   6.309   0.959  12.780  0.3834 -0.1977 -0.4839
17410TIP3    H173645   6.342   1.020  12.714 -1.0809  1.3228  0.1105
17410TIP3    H273646   6.217   0.982  12.790 -0.4791 -3.1031 -0.8175
17411TIP3   OH273647   2.695   2.860   3.360  0.5145 -0.3752  0.1771
17411TIP3    H173648   2.654   2.875   3.445  1.4012  1.6018  0.3027
17411TIP3    H273649   2.653   2.922   3.301  0.1233 -1.5256 -0.7823
17412TIP3   OH273650   1.506   2.848   0.056 -0.3712 -0.3119  0.6935
17412TIP3    H173651   1.587   2.833   0.105 -0.4938 -2.3040  0.3816
17412TIP3    H273652   1.527   2.824  -0.034 -1.0991 -0.1139  0.4596
17413TIP3   OH273653   1.211   6.774  12.323  0.8410 -0.0379 -0.8043
17413TIP3    H173654   1.119   6.783  12.301  0.4604 -1.2855  0.1593
17413TIP3    H273655   1.212   6.722  12.403  2.2011  3.2011  1.5020
17414TIP3   OH273656   2.020   5.408  16.760 -0.3774 -0.0440 -0.1865
17414TIP3    H173657   2.064   5.485  16.796 -1.4256  0.8072 -0.6754
17414TIP3    H273658   1.967   5.375  16.832  1.9745 -1.8720  0.8332
17415TIP3   OH273659   1.032   0.362  15.200 -0.0786 -0.4196  0.4040
17415TIP3    H173660   1.004   0.384  15.111 -1.6820 -2.6354  0.2649
17415TIP3    H273661   0.955   0.379  15.254  1.6675  3.6301  2.0239
17416TIP3   OH273662   6.156   6.196  12.461  0.0623 -0.6032 -0.1070
17416TIP3    H173663   6.236   6.212  12.410 -1.0928  3.0895 -1.1195
17416TIP3    H273664   6.176   6.230  12.548 -0.6692  1.5331 -0.7067
17417TIP3   OH273665   4.548   5.694   5.478  0.0636 -0.2275 -0.6855
17417TIP3    H173666   4.472   5.750   5.493 -0.7081 -1.3830 -0.0676
17417TIP3    H273667   4.622   5.754   5.474 -0.8727  0.9263 -1.2820
17418TIP3   OH273668   4.257   3.843  14.707  0.2538  0.4091  0.6488
17418TIP3    H173669   4.199   3.767  14.716  1.4675 -0.9760 -1.8573
17418TIP3    H273670   4.200   3.914  14.678 -0.5527 -0.2809  0.5263
17419TIP3   OH273671   5.817   5.790  11.531  0.2925 -0.7079 -0.4421
17419TIP3    H173672   5.736   5.768  11.485 -0.3659 -2.1725  1.2953
17419TIP3    H273673   5.808   5.883  11.552 -0.1339 -0.4323 -1.7266
17420TIP3   OH273674   6.365   2.345   1.252  0.2218 -0.0633  0.1319
17420TIP3    H173675   6.348   2.354   1.345  0.2511 -0.5346  0.1825
17420TIP3    H273676   6.443   2.290   1.246 -0.4609 -1.0334 -0.1901
17421TIP3   OH273677   5.827   2.390   0.782  0.4450  0.1063 -0.3082
17421TIP3    H173678   5.883   2.316   0.806 -0.6757 -0.5564  0.3548
17421TIP3    H273679   5.849   2.458   0.845  1.1985  0.2191 -0.6739
17422TIP3   OH273680   4.731   2.307  13.526  0.8756 -0.3282  0.2789
17422TIP3    H173681   4.821   2.330  13.503  0.8158  0.3280  0.6760
17422TIP3    H273682   4.738   2.266  13.612  0.8082 -0.4006  0.2505
17423TIP3   OH273683   1.118   1.734   0.817  0.2888  0.2142 -0.0184
17423TIP3    H173684   1.173   1.788   0.760  0.2573  1.5896  1.1951
17423TIP3    H273685   1.169   1.725   0.898 -1.0538  1.1601  0.9817
17424TIP3   OH273686   1.236   1.691  14.700  0.0068 -0.1665  0.5538
17424TIP3    H173687   1.231   1.595  14.695  2.6195 -0.3207 -0.4031
17424TIP3    H273688   1.220   1.720  14.611  0.5464  0.1941  0.5736
17425TIP3   OH273689   4.456   5.311   2.050 -0.2830  0.2221 -0.2065
17425TIP3    H173690   4.468   5.315   1.955  0.6213 -0.7068 -0.1447
17425TIP3    H273691   4.477   5.399   2.080  1.8366 -0.0815 -0.6331
17426TIP3   OH273692   3.587   6.363  11.702 -0.2797  0.3470  0.3072
17426TIP3    H173693   3.595   6.268  11.700 -1.8253  0.1904  0.2882
17426TIP3    H273694   3.493   6.379  11.699 -0.2099  1.8058  2.9195
17427TIP3   OH273695   4.806   4.981   1.833  0.2807 -0.2131 -0.3460
17427TIP3    H173696   4.831   5.045   1.767 -0.4235  1.2488  0.7521
17427TIP3    H273697   4.887   4.963   1.882  0.3492  0.3211 -0.2621
17428TIP3   OH273698   1.205   4.632  11.642  0.0348 -0.3260  0.1063
17428TIP3    H173699   1.116   4.644  11.609 -0.9406 -1.4756  2.1606
17428TIP3    H273700   1.254   4.598  11.567 -1.0454  0.9508 -1.2466
17429TIP3   OH273701   4.575   2.476   3.214 -0.3290 -0.2275 -0.2983
17429TIP3    H173702   4.545   2.457   3.303  1.5822 -0.5312  0.3152
17429TIP3    H273703   4.611   2.393   3.183 -1.0168 -0.1280 -1.3773
17430TIP3   OH273704   2.569   5.854  13.188 -0.0515  0.8332 -0.5433
17430TIP3    H173705   2.604   5.840  13.100  1.7063  1.5774  0.0041
17430TIP3    H273706   2.571   5.949  13.200  2.0001  0.6497  1.1401
17431TIP3   OH273707   4.722   4.068  16.934 -0.1556  0.1571  0.1315
17431TIP3    H173708   4.689   4.097  17.019 -2.1381 -2.0500  0.2233
17431TIP3    H273709   4.788   4.002  16.955  1.1368  1.3484 -0.0796
17432TIP3   OH273710   3.596   5.210  13.372 -0.3637 -0.1462 -0.0275
17432TIP3    H173711   3.528   5.182  13.433 -0.5948  0.7271  0.1330
17432TIP3    H273712   3.678   5.198  13.421 -0.5380  0.4146  0.4222
17433TIP3   OH273713   6.229   4.168  16.424  0.6562 -0.3836 -0.2266
17433TIP3    H173714   6.184   4.185  16.507  0.4839  1.5695 -0.6820
17433TIP3    H273715   6.322   4.180  16.444  0.5463  1.0493 -0.5103
17434TIP3   OH273716   4.904   1.220  12.436  0.5421  0.1310  0.2982
17434TIP3    H173717   4.950   1.280  12.376 -0.5661 -0.5601 -1.2932
17434TIP3    H273718   4.860   1.158  12.379 -0.2986 -0.7660  1.8650
17435TIP3   OH273719   1.270   5.860  11.968  0.0078  0.8299  0.3522
17435TIP3    H173720   1.261   5.789  11.904 -0.2893  1.5021 -0.3682
17435TIP3    H273721   1.212   5.835  12.040 -1.1562  0.9944 -0.4953
17436TIP3   OH273722   0.771   1.867   2.989  0.3597 -0.1111 -0.2218
17436TIP3    H173723   0.724   1.866   2.906 -0.7077 -0.7301  0.3622
17436TIP3    H273724   0.702   1.864   3.056  1.2206 -1.5403  0.6646
17437TIP3   OH273725   3.515   6.265   1.886  0.4793 -0.0879  0.1101
17437TIP3    H173726   3.515   6.354   1.922  0.1033 -0.4567  1.0435
17437TIP3    H273727   3.485   6.210   1.958  1.0509 -1.0212 -0.3519
17438TIP3   OH273728   0.853   5.638   0.661  0.3063  0.0930  0.2717
17438TIP3    H173729   0.909   5.675   0.729 -0.1337  0.4568  0.4420
17438TIP3    H273730   0.817   5.558   0.700  1.6364 -0.8219 -0.2679
17439TIP3   OH273731   5.641   3.283   2.595 -0.0855  0.4964  0.3615
17439TIP3    H173732   5.713   3.238   2.639 -0.9160 -0.7815  0.4672
17439TIP3    H273733   5.635   3.368   2.639  2.0407  1.1085 -0.3825
17440TIP3   OH273734   6.710   3.986   5.222 -0.0060 -0.1570  0.0792
17440TIP3    H173735   6.801   3.979   5.251 -0.5806 -0.9142  1.8192
17440TIP3    H273736   6.680   4.070   5.256 -0.5600 -0.8590  1.3781
17441TIP3   OH273737   2.984   4.638   4.704 -0.5918 -0.7408  0.1561
17441TIP3    H173738   2.973   4.617   4.612 -0.0943 -1.3073  0.2238
17441TIP3    H273739   3.078   4.653   4.716 -0.7194 -0.1084  0.4594
17442TIP3   OH273740   5.907   1.426   0.766 -0.0947 -0.0798 -0.1003
17442TIP3    H173741   5.984   1.426   0.823  2.2633  3.4908 -2.8544
17442TIP3    H273742   5.925   1.358   0.701  0.6001  0.4430 -0.4739
17443TIP3   OH273743   0.566   5.652  14.173 -0.4912 -0.7852  0.1084
17443TIP3    H173744   0.620   5.640  14.095 -1.3395 -0.2484 -0.5896
17443TIP3    H273745   0.561   5.747  14.184 -0.1267 -0.8556  1.0182
17444TIP3   OH273746   0.827   4.318   2.469  0.0636 -0.5518 -0.0351
17444TIP3    H173747   0.770   4.383   2.509 -1.5272 -2.2709  0.6214
17444TIP3    H273748   0.862   4.268   2.542  3.8213  1.3848 -0.2529
17445TIP3   OH273749   3.515   3.307   1.617  0.2520 -0.1732 -0.3483
17445TIP3    H173750   3.598   3.314   1.571  1.0270  0.6933  1.0939
17445TIP3    H273751   3.462   3.378   1.581  0.6609  0.1708 -0.2816
17446TIP3   OH273752   2.928   5.988   5.643 -0.1671  0.2632 -0.0371
17446TIP3    H173753   2.881   6.053   5.590  0.4112  0.5308 -0.2274
17446TIP3    H273754   3.014   6.026   5.657  0.4427 -0.7873 -0.7868
17447TIP3   OH273755   6.741   6.137   0.452 -0.5485  0.1600 -0.2089
17447TIP3    H173756   6.715   6.225   0.477 -0.2975  0.5059 -1.1236
17447TIP3    H273757   6.830   6.147   0.418 -0.4543 -0.4772 -0.1688
17448TIP3   OH273758   2.772   5.107  15.207 -0.0849 -0.6080 -0.7703
17448TIP3    H173759   2.696   5.160  15.180 -0.9025 -0.1934  2.0604
17448TIP3    H273760   2.834   5.171  15.242 -0.6448 -1.3119  1.7071
17449TIP3   OH273761   3.825   3.808   2.393 -0.0885 -0.1130  0.2995
17449TIP3    H173762   3.862   3.736   2.444 -0.4533 -0.1764  0.4739
17449TIP3    H273763   3.898   3.837   2.338  0.8259  1.0464  2.0199
17450TIP3   OH273764   5.677   1.341  14.727  0.5317  0.1204 -0.1118
17450TIP3    H173765   5.640   1.292  14.801 -2.1894  0.2308 -1.2671
17450TIP3    H273766   5.662   1.433  14.748  1.4037  0.2505 -0.0208
17451TIP3   OH273767   2.929   3.814   3.529 -0.2157 -0.4412  0.0853
17451TIP3    H173768   2.837   3.808   3.502 -0.3191 -0.1942  0.3684
17451TIP3    H273769   2.966   3.883   3.473 -0.6534  0.6984  1.1363
17452TIP3   OH273770   3.981   2.822  11.810  0.6777 -0.1582  0.2097
17452TIP3    H173771   4.010   2.744  11.764 -1.0597 -0.7763  0.0877
17452TIP3    H273772   4.061   2.859  11.849  1.2152 -3.6108  2.8165
17453TIP3   OH273773   5.461   4.170   1.831  0.3461 -0.4527  0.0503
17453TIP3    H173774   5.524   4.242   1.829  1.3651 -1.3302 -0.7155
17453TIP3    H273775   5.475   4.128   1.916  0.6980 -0.5518 -0.0544
17454TIP3   OH273776   1.136   5.141   4.028  0.7694 -0.3306 -0.2198
17454TIP3    H173777   1.199   5.195   4.075  1.6934 -0.3300 -1.4243
17454TIP3    H273778   1.151   5.159   3.936 -0.3048 -1.1062 -0.5828
17455TIP3   OH273779   5.982   2.569   3.185  0.2660 -0.8482 -0.5050
17455TIP3    H173780   5.972   2.475   3.175 -0.7463 -1.1333  2.3587
17455TIP3    H273781   5.906   2.596   3.237  0.9222  1.4232 -0.6002
17456TIP3   OH273782   3.846   1.449  14.230  0.3821 -0.1385  0.4964
17456TIP3    H173783   3.864   1.480  14.141 -0.8610 -1.1060 -0.1371
17456TIP3    H273784   3.759   1.409  14.224 -0.0401  0.3867  2.3195
17457TIP3   OH273785   4.043   2.452  15.118 -0.0908 -0.2222 -0.2178
17457TIP3    H173786   3.966   2.504  15.096  0.5636  1.8337  2.0272
17457TIP3    H273787   4.011   2.385  15.178 -0.7827 -2.0564 -2.4870
17458TIP3   OH273788   6.468   2.305  14.970  0.1826 -0.3014  0.0185
17458TIP3    H173789   6.498   2.230  15.021  0.2265 -0.1309  0.2418
17458TIP3    H273790   6.388   2.274  14.926 -2.4798  0.8279  3.5939
17459TIP3   OH273791   6.374   5.235   2.305 -0.1083 -0.3964 -0.0847
17459TIP3    H173792   6.356   5.164   2.243  1.3328 -2.0671  1.3024
17459TIP3    H273793   6.297   5.238   2.362 -0.0313 -1.1182  0.0687
17460TIP3   OH273794   5.135   4.264   3.297 -0.0094 -0.1545 -0.0176
17460TIP3    H173795   5.198   4.294   3.232  0.6410  0.8425  1.0359
17460TIP3    H273796   5.159   4.310   3.377 -1.3430 -0.6732  0.7177
17461TIP3   OH273797   1.455   3.922   5.739 -0.0489  0.7956  0.4262
17461TIP3    H173798   1.377   3.975   5.753  0.3606  1.1323  1.4940
17461TIP3    H273799   1.470   3.878   5.823  1.8003  1.9610  0.7668
17462TIP3   OH273800   0.964   4.914  11.804  0.1280 -0.5262 -0.4347
17462TIP3    H173801   1.040   4.961  11.771  1.0319 -0.6312  1.3341
17462TIP3    H273802   0.997   4.826  11.822  0.2949  0.0323  2.5189
17463TIP3   OH273803   0.702   5.220   0.184  0.1838  0.3286 -1.3111
17463TIP3    H173804   0.759   5.149   0.216 -0.9833  0.0538  0.2829
17463TIP3    H273805   0.653   5.181   0.112  1.2178  0.2404 -1.9842
17464TIP3   OH273806   0.438   2.713  12.391 -0.5710 -0.4736 -0.1024
17464TIP3    H173807   0.480   2.655  12.453 -0.0681 -0.6427 -0.5973
17464TIP3    H273808   0.392   2.777  12.446 -0.4325 -0.8314  0.4390
17465TIP3   OH273809   0.297   3.789  12.716 -0.3642  0.1155 -0.1848
17465TIP3    H173810   0.299   3.704  12.674  1.7899  0.3226 -0.6220
17465TIP3    H273811   0.274   3.850  12.646  0.7686  0.1732 -0.5282
17466TIP3   OH273812   2.278   6.148   5.604  0.3146  0.0844 -0.8291
17466TIP3    H173813   2.241   6.065   5.573 -0.8526  1.4716 -3.5293
17466TIP3    H273814   2.202   6.204   5.620  1.0837  0.6977  0.9086
17467TIP3   OH273815   4.341   6.025  12.865 -0.1493 -0.2611 -0.5655
17467TIP3    H173816   4.253   6.061  12.874 -0.4564 -1.4275  1.6503
17467TIP3    H273817   4.329   5.945  12.813 -0.2950 -0.1274 -0.7404
17468TIP3   OH273818   4.753   4.704   1.798 -0.0242 -0.2511 -0.0835
17468TIP3    H173819   4.792   4.789   1.821 -0.0542 -0.1256 -0.4910
17468TIP3    H273820   4.828   4.649   1.777  0.1230 -0.8109  1.6914
17469TIP3   OH273821   4.974   5.121   5.489  0.3397 -0.0236 -0.4224
17469TIP3    H173822   4.947   5.204   5.528 -2.5754 -1.1020  0.1766
17469TIP3    H273823   4.891   5.075   5.474  1.8532 -3.3126  0.4398
17470TIP3   OH273824   6.644   5.722   0.531  0.1563 -0.2264 -0.0595
17470TIP3    H173825   6.635   5.763   0.445 -0.9780  0.5444  0.3939
17470TIP3    H273826   6.730   5.680   0.530  1.0707  1.5706 -0.8199
17471TIP3   OH273827   1.380   0.916   1.550  0.4022  0.1418 -0.0532
17471TIP3    H173828   1.472   0.896   1.533 -0.2310 -1.2842 -2.2007
17471TIP3    H273829   1.350   0.960   1.470 -1.3547 -1.6314 -0.4463
17472TIP3   OH273830   3.442   3.466   4.380 -0.2431  0.2909 -0.3069
17472TIP3    H173831   3.497   3.398   4.419 -1.2565  0.2445  1.1556
17472TIP3    H273832   3.357   3.424   4.367 -0.5164  0.9118 -0.5739
17473TIP3   OH273833   4.094   4.286   1.709 -0.3098  0.2168  0.1703
17473TIP3    H173834   4.092   4.219   1.640  1.5936 -2.2607  2.3556
17473TIP3    H273835   4.186   4.295   1.732 -0.5212  3.4116  0.2894
17474TIP3   OH273836   4.849   2.160   3.102  0.3731 -0.0417  0.2794
17474TIP3    H173837   4.906   2.234   3.123 -0.1097  0.9934 -1.8233
17474TIP3    H273838   4.764   2.199   3.082  0.2242 -1.0895 -1.3340
17475TIP3   OH273839   0.546   2.136  11.552 -0.1056 -0.5150 -0.4910
17475TIP3    H173840   0.495   2.204  11.511 -1.0004 -1.2858 -0.6919
17475TIP3    H273841   0.607   2.106  11.484 -0.2442 -0.4549 -0.6400
17476TIP3   OH273842   5.875   4.763   2.483  0.0359 -0.1631 -0.2721
17476TIP3    H173843   5.875   4.817   2.562 -1.3547 -0.9534  0.3148
17476TIP3    H273844   5.965   4.733   2.474  0.7394  1.8562 -0.3597
17477TIP3   OH273845   3.750   5.199  13.095 -0.1423 -0.2144  0.4898
17477TIP3    H173846   3.691   5.255  13.045  0.8761 -0.3282 -0.8856
17477TIP3    H273847   3.692   5.147  13.151 -1.6615 -2.3153 -2.7390
17478TIP3   OH273848   3.286   4.433  11.237  0.2311  0.0871  0.1533
17478TIP3    H173849   3.278   4.513  11.185 -0.2112 -1.1181 -1.7420
17478TIP3    H273850   3.375   4.437  11.274  0.0042  1.6996  0.5823
17479TIP3   OH273851   0.442   4.395  11.710  0.4279 -0.6041  0.3987
17479TIP3    H173852   0.361   4.448  11.709  1.2396  0.6781  0.5857
17479TIP3    H273853   0.449   4.363  11.799 -0.0890 -1.0659  0.2775
17480TIP3   OH273854   0.810   0.376   5.506  0.1622 -0.2770 -0.0012
17480TIP3    H173855   0.811   0.293   5.460 -0.6079  0.1377 -0.8145
17480TIP3    H273856   0.756   0.360   5.584 -0.4972 -0.3796 -0.4764
17481TIP3   OH273857   4.257   2.464   0.319  0.1944  0.9254 -0.2629
17481TIP3    H173858   4.206   2.511   0.385  0.1086  1.0931 -0.4482
17481TIP3    H273859   4.277   2.530   0.252  1.3374  1.0602  0.1878
17482TIP3   OH273860   4.694   5.538  12.187 -0.0737  0.4938 -0.0746
17482TIP3    H173861   4.706   5.552  12.093 -0.2136  0.0821 -0.1591
17482TIP3    H273862   4.707   5.624  12.226 -1.2211  0.9284 -0.5910
17483TIP3   OH273863   0.879   0.890   3.613  0.2197 -0.3279  0.2142
17483TIP3    H173864   0.857   0.979   3.641 -0.0275  0.4035 -2.0913
17483TIP3    H273865   0.799   0.856   3.573  1.0870 -0.4420 -1.5417
17484TIP3   OH273866   5.245   5.502  14.283  0.0762  0.5366 -1.1420
17484TIP3    H173867   5.161   5.457  14.282  0.2681  0.1382 -2.6225
17484TIP3    H273868   5.302   5.445  14.334 -0.0958 -0.1156 -1.6648
17485TIP3   OH273869   3.458   5.523   2.089  0.6671 -0.3805 -0.2369
17485TIP3    H173870   3.528   5.581   2.118  1.3419 -0.4127 -1.6963
17485TIP3    H273871   3.503   5.444   2.058  0.1938  0.1814 -2.6108
17486TIP3   OH273872   1.477   5.675  14.992  0.2846  0.2647 -0.4711
17486TIP3    H173873   1.562   5.656  15.033 -0.0734  0.0501  0.1867
17486TIP3    H273874   1.454   5.594  14.946 -0.5796 -0.4648  1.1688
17487TIP3   OH273875   1.395   6.561  15.006  0.1509  0.5969 -0.7567
17487TIP3    H173876   1.378   6.512  15.086  0.8003  0.7810 -0.5062
17487TIP3    H273877   1.352   6.510  14.937  0.5503 -0.1570 -0.4575
17488TIP3   OH273878   2.538   3.798  10.503 -0.4328 -0.2885  0.3457
17488TIP3    H173879   2.527   3.711  10.466  0.7464 -0.2499 -0.1304
17488TIP3    H273880   2.529   3.786  10.597 -1.6579 -0.6787  0.2008
17489TIP3   OH273881   2.264   0.831   3.809  0.0907  0.4817 -0.1874
17489TIP3    H173882   2.288   0.785   3.890  0.5274  0.6840 -0.1988
17489TIP3    H273883   2.238   0.762   3.748  2.3378  0.0759 -0.7643
17490TIP3   OH273884   3.512   0.817   1.458 -0.2483 -1.1089  0.1423
17490TIP3    H173885   3.459   0.891   1.428  0.0747 -1.4758 -1.3906
17490TIP3    H273886   3.454   0.769   1.517 -0.3845  0.4822  1.3837
17491TIP3   OH273887   5.774   3.890   1.662 -0.5172 -0.4954 -0.4456
17491TIP3    H173888   5.807   3.813   1.708  1.8685 -0.0946 -1.3581
17491TIP3    H273889   5.721   3.855   1.591 -0.4253 -1.2655 -0.1458
17492TIP3   OH273890   1.685   3.459   5.163 -0.6536  0.2464  0.1277
17492TIP3    H173891   1.681   3.542   5.115 -0.2215  1.2183  1.6977
17492TIP3    H273892   1.738   3.402   5.107 -0.4283  1.2299 -0.6994
17493TIP3   OH273893   1.665   2.169   3.467  0.8584  0.5397  0.3131
17493TIP3    H173894   1.649   2.182   3.561 -0.1836 -0.2217  0.2612
17493TIP3    H273895   1.739   2.109   3.464  0.7736  0.4109  0.6544
17494TIP3   OH273896   0.693   6.684  16.930 -0.6602 -0.3825  0.2385
17494TIP3    H173897   0.714   6.749  16.863  0.8589 -1.3945 -0.3223
17494TIP3    H273898   0.679   6.736  17.009 -1.1584  0.7391 -0.5530
17495TIP3   OH273899   1.960   1.645   1.529 -0.2875  0.5830 -0.0721
17495TIP3    H173900   1.908   1.717   1.494  0.5367  0.1580 -2.3560
17495TIP3    H273901   1.898   1.572   1.533 -0.3746  0.6011 -0.8539
17496TIP3   OH273902   5.504   4.496   1.219 -0.2133  0.4993 -0.2129
17496TIP3    H173903   5.560   4.456   1.285 -1.4872  0.4678  0.8837
17496TIP3    H273904   5.423   4.518   1.265 -1.5618 -0.4584 -1.9627
17497TIP3   OH273905   6.537   4.854  15.715 -0.7366 -0.0707  1.1108
17497TIP3    H173906   6.589   4.918  15.763  1.1875 -0.3300 -0.5035
17497TIP3    H273907   6.469   4.827  15.777  0.3181  1.1793  2.8953
17498TIP3   OH273908   4.891   1.724   2.699  0.1409 -0.0616  0.2947
17498TIP3    H173909   4.933   1.668   2.764  0.2175  1.3360  1.5021
17498TIP3    H273910   4.843   1.789   2.751 -0.6681  0.4684 -1.0550
17499TIP3   OH273911   0.922   1.330  14.969 -0.2553 -0.3186  0.3045
17499TIP3    H173912   0.926   1.251  14.915 -0.6251  0.6130 -1.1414
17499TIP3    H273913   0.888   1.299  15.053 -3.1646 -1.3488 -1.0811
17500TIP3   OH273914   4.845   3.532  13.030  0.2400 -0.6751 -0.6048
17500TIP3    H173915   4.798   3.600  12.981  0.6582 -0.6526 -0.9764
17500TIP3    H273916   4.830   3.554  13.122  0.0952 -0.2708 -0.7244
17501TIP3   OH273917   0.731   6.001   1.630  0.5906  0.2141  0.3189
17501TIP3    H173918   0.652   6.042   1.595 -0.1806  0.3925  2.1246
17501TIP3    H273919   0.770   6.069   1.685  1.9397  0.0729 -0.4225
17502TIP3   OH273920   6.670   5.564   1.047 -0.2474 -0.3739  0.2650
17502TIP3    H173921   6.685   5.637   0.986  0.3067 -2.0285 -1.6888
17502TIP3    H273922   6.745   5.506   1.033 -0.0318 -0.7671  2.6784
17503TIP3   OH273923   3.636   4.380   0.949 -0.2185  0.3353  0.0141
17503TIP3    H173924   3.723   4.417   0.937 -0.1460  0.2624  0.2963
17503TIP3    H273925   3.644   4.290   0.918 -0.2801  0.4259 -0.2654
17504TIP3   OH273926   3.863   1.480  11.335  0.7464  0.8349 -0.1650
17504TIP3    H173927   3.889   1.430  11.259  1.1255  1.1681 -0.2567
17504TIP3    H273928   3.833   1.415  11.398 -2.0013  0.6728 -1.4919
17505TIP3   OH273929   1.089   5.881   0.233 -0.7764 -0.5259 -0.5756
17505TIP3    H173930   1.118   5.968   0.206 -1.8245  0.1434  0.3352
17505TIP3    H273931   1.143   5.820   0.183  0.6786  0.6448 -0.4779
17506TIP3   OH273932   5.139   5.392  12.375 -0.0913  0.5421 -0.2750
17506TIP3    H173933   5.120   5.308  12.333 -1.2114  0.7294 -0.1546
17506TIP3    H273934   5.062   5.446  12.357  0.6114  1.5514 -0.3470
17507TIP3   OH273935   6.627   2.572   1.387  0.5458  0.6652  0.0681
17507TIP3    H173936   6.534   2.586   1.404  0.6255  1.8612 -0.3959
17507TIP3    H273937   6.645   2.486   1.424 -0.8813  0.1468 -0.3911
17508TIP3   OH273938   6.632   4.255   3.029 -0.2484 -0.2264  0.1636
17508TIP3    H173939   6.726   4.253   3.046 -0.1681 -1.6045 -0.2538
17508TIP3    H273940   6.592   4.281   3.112  0.5602  1.8096 -0.0504
17509TIP3   OH273941   4.965   3.455   0.531 -0.3701 -0.2802 -0.1721
17509TIP3    H173942   5.038   3.510   0.561  0.5923 -1.8380  0.4504
17509TIP3    H273943   4.953   3.391   0.601 -0.4730 -1.7647 -1.4954
17510TIP3   OH273944   5.982   3.042   5.227 -0.4806  0.2886 -0.2926
17510TIP3    H173945   5.948   3.089   5.151 -1.5070 -0.7771 -0.5295
17510TIP3    H273946   5.936   3.080   5.301 -0.6288  0.2919 -0.3853
17511TIP3   OH273947   4.903   1.229   5.104 -0.3862  0.2678 -0.1419
17511TIP3    H173948   4.976   1.171   5.126 -0.2383  0.5946  0.2359
17511TIP3    H273949   4.840   1.217   5.175 -0.9734 -0.4600 -0.7720
17512TIP3   OH273950   3.970   1.557   5.898 -0.6515  0.1140  0.2024
17512TIP3    H173951   3.924   1.473   5.888 -0.4846 -0.1868  1.7105
17512TIP3    H273952   4.056   1.542   5.860 -0.7147 -0.3183  0.2215
17513TIP3   OH273953   6.032   2.862  11.951 -0.1390 -0.1087 -0.2352
17513TIP3    H173954   5.960   2.872  11.889  0.3236 -1.3601 -1.0330
17513TIP3    H273955   6.065   2.950  11.966 -1.6620  0.4461 -0.0501
17514TIP3   OH273956   5.350   2.927  13.656 -0.3689 -0.1532 -0.2259
17514TIP3    H173957   5.311   2.985  13.590  0.9564  0.7062 -0.2915
17514TIP3    H273958   5.351   2.841  13.614  1.6942  0.6146 -1.9515
17515TIP3   OH273959   6.513   3.939   5.870  0.0418  0.0799  0.3825
17515TIP3    H173960   6.554   3.869   5.922  0.9399  1.0752  1.0636
17515TIP3    H273961   6.473   3.996   5.934  0.5333  0.9383 -0.0544
17516TIP3   OH273962   3.391   3.173   1.085 -0.5639 -0.4516 -0.4310
17516TIP3    H173963   3.362   3.096   1.133 -1.2504  0.3172  0.4086
17516TIP3    H273964   3.438   3.137   1.009 -0.1409 -1.6780  0.3830
17517TIP3   OH273965   2.941   6.165  10.964 -0.0323 -0.6284 -0.0906
17517TIP3    H173966   2.907   6.081  10.931 -0.2258 -1.0210  1.0717
17517TIP3    H273967   2.885   6.230  10.922 -0.0601 -1.0952 -0.7982
17518TIP3   OH273968   2.126   1.006  17.032  0.4478  0.0900  0.5724
17518TIP3    H173969   2.165   1.050  17.108  0.3682  0.4121  0.4331
17518TIP3    H273970   2.037   1.042  17.027  0.6247  0.4695  0.0176
17519TIP3   OH273971   2.859   1.003  14.422 -0.1296 -0.7163  0.1464
17519TIP3    H173972   2.846   1.083  14.372  0.7496 -0.3339  0.5063
17519TIP3    H273973   2.926   0.955  14.373 -0.3453 -1.0383  0.1627
17520TIP3   OH273974   3.838   0.896  13.701 -1.2058 -0.5113  0.1368
17520TIP3    H173975   3.770   0.874  13.637 -1.8146  1.8523 -0.1243
17520TIP3    H273976   3.790   0.928  13.778 -0.4704  1.4442 -0.1448
17521TIP3   OH273977   5.403   0.596  13.410 -0.0249  0.4528 -0.0266
17521TIP3    H173978   5.442   0.620  13.326 -0.6135 -0.0242 -0.4551
17521TIP3    H273979   5.389   0.679  13.455 -3.2147  1.1769 -1.9836
17522TIP3   OH273980   6.349   1.257  16.358 -0.5338  0.1106  0.1921
17522TIP3    H173981   6.309   1.217  16.435  1.0906 -0.8527  0.5832
17522TIP3    H273982   6.277   1.265  16.295 -1.5665 -0.4971  1.2581
17523TIP3   OH273983   3.048   6.408   5.062 -0.1530  0.1727  0.0837
17523TIP3    H173984   3.039   6.326   5.014  0.3598 -0.2860  0.7521
17523TIP3    H273985   3.104   6.462   5.008 -1.8865  0.7686 -1.2092
17524TIP3   OH273986   4.293   5.804  13.677  0.0459  0.3447  0.3769
17524TIP3    H173987   4.203   5.808  13.709  0.0057  1.0333  0.2012
17524TIP3    H273988   4.310   5.711  13.664  0.2776 -0.0467  2.9765
17525TIP3   OH273989   3.336   1.378   2.813  0.1342  0.3346 -1.0542
17525TIP3    H173990   3.273   1.306   2.821  0.4367  0.2636  1.3532
17525TIP3    H273991   3.282   1.455   2.795 -0.8683  0.4705  2.0250
17526TIP3   OH273992   3.321   3.429  13.705  0.1592 -0.3383  0.0914
17526TIP3    H173993   3.396   3.472  13.748  0.8326  2.0259 -3.0659
17526TIP3    H273994   3.358   3.350  13.666  1.2506  1.0278 -1.8072
17527TIP3   OH273995   1.626   6.203  15.165  0.3139  0.3598  0.2713
17527TIP3    H173996   1.721   6.193  15.167  0.4517  1.4948  2.4359
17527TIP3    H273997   1.611   6.288  15.123  0.1465 -0.3914 -1.2528
17528TIP3   OH273998   4.753   1.307  13.705  0.5274 -0.2619 -0.7971
17528TIP3    H173999   4.754   1.239  13.772  0.4373  1.1133  0.6354
17528TIP3    H274000   4.661   1.322  13.687  0.4312  1.1756  0.7024
17529TIP3   OH274001   1.101   3.017   2.337 -0.1628  0.0883  0.0707
17529TIP3    H174002   1.042   3.082   2.374 -1.8760 -1.3169 -0.0833
17529TIP3    H274003   1.075   3.010   2.245 -0.7904 -1.5906  0.3401
17530TIP3   OH274004   4.877   1.937  14.607 -0.5081 -0.3431  0.3053
17530TIP3    H174005   4.874   1.843  14.625 -1.9063 -0.4880 -0.5011
17530TIP3    H274006   4.862   1.944  14.512  1.3595  0.6297  0.0121
17531TIP3   OH274007   6.324   3.039  13.697  0.0476 -0.2408 -0.3531
17531TIP3    H174008   6.386   3.102  13.661  0.4175 -0.0827  0.5372
17531TIP3    H274009   6.264   3.092  13.750 -0.2155 -0.5205 -0.3664
17532TIP3   OH274010   4.173   3.894  13.146  0.1034 -0.1398 -0.1521
17532TIP3    H174011   4.262   3.870  13.123 -0.2832  0.1351 -2.0778
17532TIP3    H274012   4.121   3.872  13.069 -1.4975 -0.2111  0.8884
17533TIP3   OH274013   2.719   5.900  11.752 -1.2290  0.2022 -0.3581
17533TIP3    H174014   2.770   5.834  11.798 -0.0482  0.9734 -0.5348
17533TIP3    H274015   2.766   5.915  11.670 -1.1277  1.6745 -0.0699
17534TIP3   OH274016   3.888   0.888  12.573 -0.1873  0.2555  0.1849
17534TIP3    H174017   3.975   0.917  12.602  0.0006 -0.3948  0.2879
17534TIP3    H274018   3.904   0.843  12.490 -0.4870  0.5131 -0.0147
17535TIP3   OH274019   0.799   3.701  13.216  0.4036  0.5522 -0.4686
17535TIP3    H174020   0.875   3.721  13.162  0.5763 -0.5476 -0.6469
17535TIP3    H274021   0.825   3.626  13.269 -1.0478 -0.8831 -1.6698
17536TIP3   OH274022   4.229   0.912  13.452  0.3633 -0.4144  0.4670
17536TIP3    H174023   4.166   0.843  13.471  0.0839 -0.3519 -0.2250
17536TIP3    H274024   4.175   0.991  13.442  0.6411 -0.1764  0.8103
17537TIP3   OH274025   2.880   6.686  14.333 -0.7014  0.1160 -0.6785
17537TIP3    H174026   2.818   6.653  14.397 -0.7419  1.6072  0.0961
17537TIP3    H274027   2.861   6.780  14.327  1.4209  0.6293 -0.4461
17538TIP3   OH274028   4.868   2.558  14.112  0.2974  0.5972 -0.0821
17538TIP3    H174029   4.950   2.511  14.125 -0.3116 -1.2186 -2.2216
17538TIP3    H274030   4.801   2.504  14.155 -0.0272  1.0462 -0.0128
17539TIP3   OH274031   1.868   3.915  13.162  0.1108 -0.2026  0.0110
17539TIP3    H174032   1.788   3.913  13.110  0.6302  2.7386 -1.0949
17539TIP3    H274033   1.936   3.881  13.104  0.5244  2.2121 -1.0046
17540TIP3   OH274034   3.432   2.946   3.907 -0.1474  0.2740 -0.1729
17540TIP3    H174035   3.433   2.882   3.837  1.3354  1.1817 -1.0429
17540TIP3    H274036   3.343   2.944   3.941 -0.5940 -0.9592 -1.3495
17541TIP3   OH274037   4.807   6.515   3.638 -0.4640  0.2254  0.1820
17541TIP3    H174038   4.886   6.529   3.586  0.1007 -0.6430  0.7828
17541TIP3    H274039   4.760   6.444   3.594  0.9487 -1.8375  1.8139
17542TIP3   OH274040   3.702   5.771   3.316 -0.3804  0.6470 -0.1573
17542TIP3    H174041   3.643   5.796   3.387  0.6214  0.1199  0.9084
17542TIP3    H274042   3.750   5.851   3.295 -1.0662  0.9399 -0.6425
17543TIP3   OH274043   6.029   1.775   4.265  0.2681 -0.3109 -0.1723
17543TIP3    H174044   6.016   1.869   4.276 -1.2239 -0.4862 -0.1981
17543TIP3    H274045   5.981   1.754   4.185  0.4448 -1.1254 -0.0683
17544TIP3   OH274046   5.430   6.334  11.314 -0.3771  0.2305  0.1027
17544TIP3    H174047   5.343   6.360  11.283 -0.0361  1.2790 -0.0024
17544TIP3    H274048   5.490   6.361  11.245 -0.0169 -1.1090 -0.1361
17545TIP3   OH274049   4.202   3.612  16.220  0.6895 -0.0511 -0.1170
17545TIP3    H174050   4.231   3.552  16.289 -0.8253 -0.4264  0.2493
17545TIP3    H274051   4.110   3.587  16.205  0.6166  0.8929 -1.3515
17546TIP3   OH274052   6.780   4.747  14.083  0.1586 -0.1185 -0.4007
17546TIP3    H174053   6.821   4.828  14.114 -2.3204  1.1781 -0.2930
17546TIP3    H274054   6.728   4.715  14.157 -1.5507  0.0745 -1.4569
17547TIP3   OH274055   2.236   3.067  15.963  0.1314 -0.5886  0.2209
17547TIP3    H174056   2.235   2.977  15.931 -0.5792 -0.0967 -1.2437
17547TIP3    H274057   2.238   3.121  15.884 -0.4320  0.6888  1.0361
17548TIP3   OH274058   4.625   0.924  16.538 -0.7329 -0.1022 -0.0531
17548TIP3    H174059   4.571   1.001  16.555 -2.3937 -0.8094 -1.7250
17548TIP3    H274060   4.685   0.952  16.469 -0.2896  0.1073  0.4090
17549TIP3   OH274061   6.293   6.389   4.670 -0.1223 -0.1359 -0.1823
17549TIP3    H174062   6.350   6.312   4.663  0.5296  0.1067  1.8485
17549TIP3    H274063   6.275   6.397   4.764 -0.7130  1.8142 -0.4258
17550TIP3   OH274064   4.567   2.499   0.903 -0.1163 -0.0035  0.2285
17550TIP3    H174065   4.557   2.404   0.907  0.0908 -0.0850 -0.8186
17550TIP3    H274066   4.648   2.517   0.952 -0.7450 -0.2310  1.3836
17551TIP3   OH274067   4.849   0.810  12.214  0.2476 -0.7836 -0.1219
17551TIP3    H174068   4.794   0.889  12.218  2.0432  0.4953  2.6391
17551TIP3    H274069   4.807   0.749  12.275 -0.9526 -1.9328 -2.0062
17552TIP3   OH274070   3.510   0.094   3.265 -0.1752 -0.0571 -0.3086
17552TIP3    H174071   3.435   0.130   3.313  1.4181  2.3780  0.5672
17552TIP3    H274072   3.517   0.004   3.297 -1.0575  0.5228  1.6970
17553TIP3   OH274073   1.095   3.557  16.285 -0.3579  0.0492 -0.4881
17553TIP3    H174074   1.176   3.574  16.237 -0.4659  1.4786 -0.2064
17553TIP3    H274075   1.074   3.465  16.265  3.3497 -1.7293  2.4240
17554TIP3   OH274076   5.336   3.960   2.624  0.3821  0.4104 -0.2142
17554TIP3    H174077   5.317   4.010   2.545 -0.2055  0.7642  0.1415
17554TIP3    H274078   5.384   4.022   2.680  1.8004 -0.1826 -0.7242
17555TIP3   OH274079   5.578   4.958   2.741  0.2946 -0.1625 -0.0194
17555TIP3    H174080   5.498   4.904   2.743  0.0567  0.1836 -0.0269
17555TIP3    H274081   5.572   5.006   2.659 -0.3110  1.0690  0.7045
17556TIP3   OH274082   1.345   4.394  15.453  0.3559  0.3008 -0.2223
17556TIP3    H174083   1.401   4.452  15.402  0.7177 -0.2455 -0.4570
17556TIP3    H274084   1.382   4.306  15.439 -1.2538 -0.2567 -1.3521
17557TIP3   OH274085   0.476   0.276   4.623 -0.5221  0.6361 -0.3261
17557TIP3    H174086   0.528   0.202   4.653  0.4802  0.9711 -1.1614
17557TIP3    H274087   0.484   0.273   4.527 -1.5311  1.0673 -0.4335
17558TIP3   OH274088   5.048   5.603   4.023  0.6195 -0.5225  0.1267
17558TIP3    H174089   5.027   5.549   3.947  1.4580 -0.2618 -0.3050
17558TIP3    H274090   5.045   5.543   4.097  2.5698 -1.4172 -0.4716
17559TIP3   OH274091   2.353   5.457   0.480  0.7270  0.2586 -0.1703
17559TIP3    H174092   2.280   5.431   0.422  1.7187  0.3231 -1.4963
17559TIP3    H274093   2.387   5.374   0.513  0.8258  0.1560 -0.5255
17560TIP3   OH274094   4.408   0.736  11.669  0.2064 -0.3616 -0.4196
17560TIP3    H174095   4.460   0.793  11.725  1.2854 -1.7628  0.0590
17560TIP3    H274096   4.431   0.647  11.697 -1.8655 -1.0580 -0.7140
17561TIP3   OH274097   4.761   0.189  14.318  0.4184  0.5567  0.0941
17561TIP3    H174098   4.718   0.195  14.403  1.6458 -0.0825  0.7872
17561TIP3    H274099   4.761   0.096  14.297 -0.6639  0.7895 -1.0507
17562TIP3   OH274100   2.946   3.972  15.868  0.0621  0.2188 -0.6166
17562TIP3    H174101   2.886   3.998  15.937 -0.5995  0.3797 -1.2389
17562TIP3    H274102   2.997   3.900  15.905 -1.6887 -1.0912 -0.6504
17563TIP3   OH274103   1.464   2.736   0.653 -0.2475  0.4478 -0.4969
17563TIP3    H174104   1.418   2.798   0.597  0.7275  1.6785 -0.0108
17563TIP3    H274105   1.538   2.706   0.600 -0.9186 -0.6047 -0.8593
17564TIP3   OH274106   3.272   2.082   2.852  0.3760 -0.2197 -0.3196
17564TIP3    H174107   3.244   2.019   2.919  0.5673  1.2099  1.1516
17564TIP3    H274108   3.197   2.090   2.794 -0.3960 -0.2797  0.6444
17565TIP3   OH274109   2.562   1.616  15.073  0.2482 -0.7451 -0.6471
17565TIP3    H174110   2.472   1.631  15.046  0.1915 -0.3183 -0.2315
17565TIP3    H274111   2.558   1.544  15.135 -0.1552  0.9282  1.3657
17566TIP3   OH274112   3.273   3.725  12.363  0.2244 -0.1321  0.0835
17566TIP3    H174113   3.330   3.765  12.297 -0.0147  2.3001  1.2313
17566TIP3    H274114   3.329   3.716  12.440  0.1049 -1.5768  0.0268
17567TIP3   OH274115   2.042   2.100   4.590 -0.3264 -0.0600  0.3371
17567TIP3    H174116   2.043   2.105   4.494  2.1712  1.6329  0.3736
17567TIP3    H274117   2.017   2.187   4.619 -1.9522 -0.7941  1.3004
17568TIP3   OH274118   5.413   1.856  14.009  0.0339 -1.1049  0.6927
17568TIP3    H174119   5.413   1.856  14.105  1.1024  1.4927  0.7596
17568TIP3    H274120   5.506   1.852  13.986  0.0433  1.8913 -0.0994
17569TIP3   OH274121   5.816   1.238  17.069  0.2531  0.1181 -0.5240
17569TIP3    H174122   5.743   1.256  17.129  1.0394 -0.1979  0.5730
17569TIP3    H274123   5.894   1.257  17.121  1.0576 -2.8053 -0.4572
17570TIP3   OH274124   0.836   3.152   2.572 -0.1304 -0.6854  0.0140
17570TIP3    H174125   0.758   3.202   2.597  0.5881  0.4124  0.1700
17570TIP3    H274126   0.879   3.131   2.655  2.4640  3.3000 -0.0038
17571TIP3   OH274127   0.137   5.365  17.135 -0.0924  0.0642  0.2414
17571TIP3    H174128   0.084   5.321  17.201  0.0692 -1.4113 -0.5552
17571TIP3    H274129   0.227   5.335  17.152  0.0563  0.2458 -0.1956
17572TIP3   OH274130   3.829   5.687  15.384  0.0223  0.2812  0.1488
17572TIP3    H174131   3.856   5.694  15.475 -2.4148 -0.0251  0.9635
17572TIP3    H274132   3.760   5.752  15.374 -0.1028 -0.0384 -1.3453
17573TIP3   OH274133   3.282   4.437  16.929 -0.6619 -0.0256  0.4816
17573TIP3    H174134   3.366   4.482  16.937 -0.2859 -0.3052 -1.4130
17573TIP3    H274135   3.231   4.493  16.871 -0.6891 -1.2927 -0.7763
17574TIP3   OH274136   1.509   5.796   5.867  0.4943  0.0522  0.1128
17574TIP3    H174137   1.571   5.725   5.883  0.7594  0.1269 -0.5215
17574TIP3    H274138   1.512   5.850   5.946  1.3470  0.1264  0.0418
17575TIP3   OH274139   6.495   4.031   0.962  0.2134  0.0949  0.1807
17575TIP3    H174140   6.541   4.113   0.972  1.1492 -0.3208 -0.5927
17575TIP3    H274141   6.404   4.051   0.986  0.4887  1.2643  0.2826
17576TIP3   OH274142   3.673   3.627   2.078  0.1577  0.4023 -0.8574
17576TIP3    H174143   3.653   3.606   1.987  0.3709  1.2061 -1.0929
17576TIP3    H274144   3.750   3.683   2.074 -0.3125  1.1178 -0.2394
17577TIP3   OH274145   6.485   3.664   4.043 -0.1349  0.4763  0.1613
17577TIP3    H174146   6.435   3.655   3.963  2.0885  0.9955 -1.4019
17577TIP3    H274147   6.494   3.759   4.055  1.3769  0.4094 -0.2541
17578TIP3   OH274148   5.669   4.164  12.292 -0.1201  0.1807 -0.1156
17578TIP3    H174149   5.757   4.183  12.326  0.1099 -1.0045 -0.0244
17578TIP3    H274150   5.627   4.112  12.360  0.7114 -3.1445 -1.9175
17579TIP3   OH274151   0.298   5.007  13.615 -0.4914  0.0795  0.4821
17579TIP3    H174152   0.256   4.937  13.566 -5.3602  2.2759  0.8721
17579TIP3    H274153   0.296   5.082  13.555  1.7947  0.6919  1.0896
17580TIP3   OH274154   1.414   1.340   6.427  0.2583  0.0547  0.0701
17580TIP3    H174155   1.345   1.386   6.380 -0.2478  0.1400  0.8771
17580TIP3    H274156   1.490   1.345   6.369 -0.7427 -1.1606 -1.3994
17581TIP3   OH274157   4.726   6.719   5.259  0.2290  0.0470 -0.1323
17581TIP3    H174158   4.742   6.720   5.165  0.7209  0.6797 -0.0441
17581TIP3    H274159   4.678   6.800   5.276  1.3203  0.6114  0.3574
17582TIP3   OH274160   1.240   3.761  12.814  0.1208 -0.7429  0.4823
17582TIP3    H174161   1.153   3.792  12.789  0.4980 -0.5136 -0.5921
17582TIP3    H274162   1.297   3.836  12.798  0.5243 -0.9050  1.1520
17583TIP3   OH274163   1.631   2.421   1.437  0.3558 -0.0489  0.3360
17583TIP3    H174164   1.715   2.452   1.472  1.0504 -0.4947 -0.8553
17583TIP3    H274165   1.571   2.494   1.453  0.3302 -0.6186  3.3253
17584TIP3   OH274166   4.773   6.567  11.744 -0.6208  0.0319  0.7053
17584TIP3    H174167   4.855   6.601  11.708 -0.3627  1.2145  2.3011
17584TIP3    H274168   4.796   6.483  11.782 -0.1195  0.3686  1.1692
17585TIP3   OH274169   5.260   0.260   3.168  0.1587  0.0649  0.0464
17585TIP3    H174170   5.237   0.266   3.261 -0.0690  1.6494 -0.0762
17585TIP3    H274171   5.356   0.268   3.167  0.0763  1.2147  0.0921
17586TIP3   OH274172   3.437   6.093  12.249 -0.2449  0.1296 -0.5230
17586TIP3    H174173   3.346   6.122  12.243 -0.3726 -0.3308 -0.8905
17586TIP3    H274174   3.452   6.045  12.168 -0.5869 -2.2872  0.7285
17587TIP3   OH274175   3.880   4.572  15.877  0.7094  0.4575 -0.5651
17587TIP3    H174176   3.961   4.590  15.925 -0.4406  0.9627  1.3036
17587TIP3    H274177   3.819   4.638  15.908 -1.4185 -1.9492  0.7869
17588TIP3   OH274178   0.336   4.771  12.872 -0.1077  0.2136  0.0575
17588TIP3    H174179   0.291   4.767  12.956 -1.3231 -0.8008 -0.5908
17588TIP3    H274180   0.276   4.820  12.815  0.6359  0.7729 -0.2582
17589TIP3   OH274181   1.500   1.857   2.414  0.2706 -0.3227 -0.2665
17589TIP3    H174182   1.573   1.906   2.451 -0.3525  1.1529 -0.9210
17589TIP3    H274183   1.497   1.776   2.465  1.4517  0.2222  0.7125
17590TIP3   OH274184   1.547   6.365   1.163  0.6345 -0.1291 -0.2195
17590TIP3    H174185   1.613   6.396   1.225  0.9722  0.5952 -0.9281
17590TIP3    H274186   1.511   6.286   1.205  1.5083 -0.1940  0.4607
17591TIP3   OH274187   3.553   6.165  14.782 -0.0011  0.0058 -0.2780
17591TIP3    H174188   3.644   6.165  14.812  0.2780 -0.8066 -1.0701
17591TIP3    H274189   3.539   6.254  14.749  0.0788  0.5218  1.0523
17592TIP3   OH274190   6.031   6.133  11.122  0.4239 -0.5772  0.0265
17592TIP3    H174191   5.941   6.114  11.146  0.5667 -0.1162  0.9766
17592TIP3    H274192   6.063   6.052  11.082  0.0405 -1.2594  1.0395
17593TIP3   OH274193   0.759   5.515  11.303  0.2940  0.0175  0.2819
17593TIP3    H174194   0.774   5.516  11.208  1.1647 -0.7423  0.3999
17593TIP3    H274195   0.669   5.484  11.312  0.1096  0.3563 -0.3027
17594TIP3   OH274196   0.234   3.043  16.479 -0.0111 -0.1515  0.1063
17594TIP3    H174197   0.152   2.996  16.495  0.4295 -0.9983 -0.0608
17594TIP3    H274198   0.231   3.064  16.385  0.1038 -0.4586  0.0335
17595TIP3   OH274199   4.232   0.540   1.632 -0.0626  0.7329 -0.5528
17595TIP3    H174200   4.298   0.471   1.635 -0.3219  0.5078  0.2847
17595TIP3    H274201   4.237   0.582   1.718 -1.3600  0.3643 -0.2780
17596TIP3   OH274202   1.639   0.892   5.283 -0.1152  0.6359 -0.8920
17596TIP3    H174203   1.713   0.951   5.272  0.3642  0.4435  1.0348
17596TIP3    H274204   1.677   0.812   5.319 -1.1419  0.2057 -0.7300
17597TIP3   OH274205   5.027   2.455   5.904  0.2541  0.2552  0.0118
17597TIP3    H174206   4.963   2.503   5.851 -0.8394  0.9545  1.8781
17597TIP3    H274207   5.108   2.505   5.893 -0.4776  1.6384  0.6595
17598TIP3   OH274208   1.113   0.552   3.353 -0.6080  0.5829 -0.0659
17598TIP3    H174209   1.057   0.591   3.286 -2.3702  1.0987  1.6360
17598TIP3    H274210   1.062   0.555   3.433  1.7473  0.7588  1.5434
17599TIP3   OH274211   4.695   0.472  14.829  0.2786 -0.2644  0.3217
17599TIP3    H174212   4.762   0.540  14.825 -0.4448  0.6477  2.3538
17599TIP3    H274213   4.630   0.506  14.891 -1.0177 -2.0347  0.0082
17600TIP3   OH274214   6.061   6.753  12.973  0.1990 -0.4818  0.1416
17600TIP3    H174215   6.075   6.842  13.004 -2.7176  1.0214 -2.2473
17600TIP3    H274216   6.002   6.713  13.037  0.7332 -0.3673  0.7097
17601TIP3   OH274217   3.214   0.351   1.549  0.5501 -0.1208 -0.0313
17601TIP3    H174218   3.199   0.309   1.634  1.3041  0.3877  0.3670
17601TIP3    H274219   3.177   0.290   1.485 -0.0327 -0.5097  0.6576
17602TIP3   OH274220   4.462   0.296   1.133  0.2291  0.6110  0.1880
17602TIP3    H174221   4.431   0.219   1.086 -1.0452  1.4601 -0.4183
17602TIP3    H274222   4.407   0.302   1.211  0.6107  0.6787  0.4592
17603TIP3   OH274223   3.528   6.242   4.659  0.1539 -0.4014 -0.0109
17603TIP3    H174224   3.570   6.306   4.602 -0.5630  0.7907  0.7262
17603TIP3    H274225   3.460   6.293   4.705  0.5713 -1.3334  1.7309
17604TIP3   OH274226   3.145   6.493   3.519 -0.6780  0.2099  0.0062
17604TIP3    H174227   3.132   6.585   3.542 -1.1242  0.3273 -0.6890
17604TIP3    H274228   3.237   6.476   3.539 -0.5463  0.8543 -0.0315
17605TIP3   OH274229   2.028   2.401  10.551  0.4445 -0.4772  0.6479
17605TIP3    H174230   2.003   2.456  10.477  1.3061  1.3112  1.6236
17605TIP3    H274231   2.067   2.461  10.614  2.5331 -2.3811  1.3088
17606TIP3   OH274232   1.873   0.239  16.159  0.1884  0.1893 -0.0994
17606TIP3    H174233   1.848   0.308  16.221 -0.6567  0.0030 -0.2268
17606TIP3    H274234   1.805   0.240  16.093  0.2091 -0.7239 -0.1435
17607TIP3   OH274235   1.064   3.465   2.201 -0.4061  0.3865 -0.1967
17607TIP3    H174236   1.013   3.425   2.270  0.2844 -0.6595 -0.2703
17607TIP3    H274237   1.007   3.463   2.124 -0.4628 -0.2730 -0.1436
17608TIP3   OH274238   5.002   4.236  15.178 -0.0884 -0.3669 -0.2719
17608TIP3    H174239   5.044   4.166  15.128 -0.1484  0.0584 -0.9395
17608TIP3    H274240   4.913   4.204  15.194 -0.1843 -0.3601 -0.7634
17609TIP3   OH274241   3.104   0.413   6.513 -0.5858 -0.0570 -0.1584
17609TIP3    H174242   3.079   0.373   6.596  0.0511  2.5075  1.3893
17609TIP3    H274243   3.169   0.479   6.537  0.6671 -0.1653 -2.9013
17610TIP3   OH274244   5.294   2.495  12.346 -0.2889  0.1458 -0.0902
17610TIP3    H174245   5.221   2.557  12.338  0.4018  0.8239 -1.3307
17610TIP3    H274246   5.273   2.425  12.285  0.0214  0.2771 -0.3512
17611TIP3   OH274247   0.834   5.764  17.063  0.0628 -0.2956 -0.1483
17611TIP3    H174248   0.851   5.671  17.051  3.3144  0.3129 -1.1868
17611TIP3    H274249   0.861   5.804  16.981  1.1759  1.7966  1.1525
17612TIP3   OH274250   4.586   2.623  14.738  0.2316  0.3847  0.5296
17612TIP3    H174251   4.532   2.623  14.659 -0.5533 -1.4295  1.0114
17612TIP3    H274252   4.571   2.709  14.777 -0.2407  0.8890 -0.7054
17613TIP3   OH274253   5.733   2.322   6.372  0.3299  0.2588  0.4247
17613TIP3    H174254   5.707   2.257   6.306 -3.0507  1.4542  0.3829
17613TIP3    H274255   5.706   2.283   6.455  0.5343  0.6033  0.6506
17614TIP3   OH274256   2.560   4.737  14.059  0.2692  0.6055  0.0051
17614TIP3    H174257   2.526   4.651  14.034 -1.5084  1.1833  0.2564
17614TIP3    H274258   2.541   4.744  14.152  0.1730  1.3635 -0.0644
17615TIP3   OH274259   3.565   0.710   6.415 -0.1425 -0.0470 -1.0393
17615TIP3    H174260   3.643   0.660   6.391  0.4819  0.4010 -0.0309
17615TIP3    H274261   3.574   0.793   6.367  0.6876  0.5248  0.0648
17616TIP3   OH274262   1.950   6.182  11.738  0.0259  0.3342  0.3814
17616TIP3    H174263   1.868   6.213  11.700 -0.6831  0.0380  1.6306
17616TIP3    H274264   2.010   6.256  11.728 -0.6147  0.8351  0.1325
17617TIP3   OH274265   0.218   4.979  11.607 -0.8790  0.3048 -0.1044
17617TIP3    H174266   0.223   4.939  11.694  2.7945 -0.3597 -0.4541
17617TIP3    H274267   0.233   5.072  11.623 -3.1522  0.6846  0.1428
17618TIP3   OH274268   2.341   4.580   6.394 -0.3654 -0.0962  0.1812
17618TIP3    H174269   2.392   4.648   6.350 -3.0699  0.8418 -1.7816
17618TIP3    H274270   2.386   4.498   6.371  0.0292  0.6328 -1.8657
17619TIP3   OH274271   3.982   6.737   4.440  0.0972 -0.0973  0.1343
17619TIP3    H174272   3.895   6.778   4.444 -0.6732 -1.7123  1.5816
17619TIP3    H274273   4.027   6.768   4.518  0.5044  0.0529 -0.1573
17620TIP3   OH274274   0.896   2.639  14.805 -0.1981  0.3752  0.3260
17620TIP3    H174275   0.827   2.700  14.780  0.1784 -0.3664 -3.1215
17620TIP3    H274276   0.977   2.680  14.774  0.7375  0.3200  2.5006
17621TIP3   OH274277   1.544   6.376  15.422  0.0022  0.4475 -0.4100
17621TIP3    H174278   1.567   6.443  15.358  1.5662  0.7991  0.4694
17621TIP3    H274279   1.505   6.425  15.495 -1.8065  0.0473 -1.0513
17622TIP3   OH274280   0.476   4.861   4.300 -0.0551 -0.1227 -0.3828
17622TIP3    H174281   0.454   4.953   4.316  3.7490  0.8638  0.0785
17622TIP3    H274282   0.446   4.845   4.211 -0.3616  1.7107 -0.6674
17623TIP3   OH274283   6.084   2.133   5.960 -0.0788  0.1974 -0.0276
17623TIP3    H174284   6.020   2.199   5.988 -0.2783 -0.2153  0.5003
17623TIP3    H274285   6.156   2.141   6.024 -0.5473 -0.7661  0.6432
17624TIP3   OH274286   5.335   4.148  12.698 -0.1672  0.3153  0.1068
17624TIP3    H174287   5.244   4.171  12.713  0.4034  3.1206 -0.1768
17624TIP3    H274288   5.370   4.128  12.785 -0.1662  3.1567  0.8705
17625TIP3   OH274289   1.384   1.617  14.283  0.1283  0.3085 -0.2220
17625TIP3    H174290   1.348   1.546  14.335 -1.6063  0.5533 -1.0292
17625TIP3    H274291   1.400   1.687  14.346  1.6411 -0.6629  0.5403
17626TIP3   OH274292   3.816   2.462   1.626 -0.3136 -0.3609  0.2562
17626TIP3    H174293   3.764   2.504   1.694 -0.3542  0.5781 -0.3361
17626TIP3    H274294   3.893   2.428   1.671  0.0247  0.9016  0.6633
17627TIP3   OH274295   1.287   1.782  15.939  0.7081 -0.5898  0.3143
17627TIP3    H174296   1.261   1.765  15.848 -1.3339  2.2829  0.2416
17627TIP3    H274297   1.381   1.797  15.935  0.3433  1.8331 -1.8290
17628TIP3   OH274298   3.717   0.745  15.965  0.0468  0.0800 -0.7076
17628TIP3    H174299   3.752   0.742  15.876  1.1833  1.1430 -0.3067
17628TIP3    H274300   3.659   0.821  15.965 -3.0262 -2.0580 -1.5803
17629TIP3   OH274301   5.253   3.383  13.988 -0.1324 -0.4484  0.5466
17629TIP3    H174302   5.250   3.410  13.896  1.0183 -0.7061  0.4146
17629TIP3    H274303   5.162   3.365  14.011 -0.3722 -0.9032 -0.6949
17630TIP3   OH274304   2.063   3.849   0.922 -0.1114 -0.0064 -0.0396
17630TIP3    H174305   2.114   3.924   0.952 -1.3774  0.8397  0.1062
17630TIP3    H274306   1.994   3.839   0.988  0.7298 -2.0979  0.6099
17631TIP3   OH274307   5.536   4.306  17.029 -0.0542  0.2587 -0.6062
17631TIP3    H174308   5.588   4.226  17.038  0.5326  0.6466 -0.5005
17631TIP3    H274309   5.555   4.356  17.108 -0.9978  0.1791 -0.3172
17632TIP3   OH274310   5.433   2.488  13.650  0.5760  0.4434  0.3191
17632TIP3    H174311   5.453   2.395  13.659  0.2292  0.3006 -0.3387
17632TIP3    H274312   5.432   2.521  13.740  3.5466  0.4392  0.4542
17633TIP3   OH274313   0.772   5.318   2.118  0.1491 -0.1757  0.4394
17633TIP3    H174314   0.745   5.409   2.135 -0.3912 -0.1366 -0.5667
17633TIP3    H274315   0.693   5.266   2.133 -0.6095 -0.0495 -2.5971
17634TIP3   OH274316   6.630   3.443   4.482  0.1102  0.6159  0.2925
17634TIP3    H174317   6.587   3.475   4.403  1.2731  2.7287  0.4345
17634TIP3    H274318   6.560   3.436   4.547 -0.8606 -1.1392 -0.8395
17635TIP3   OH274319   6.500   0.682   4.298 -0.4394 -0.1282  0.0177
17635TIP3    H174320   6.558   0.743   4.252  0.6811 -0.8359  0.4465
17635TIP3    H274321   6.437   0.739   4.342  0.3326  0.7249  0.0699
17636TIP3   OH274322   1.240   3.941  14.664  0.0034 -0.3319  0.5978
17636TIP3    H174323   1.177   3.870  14.653 -0.1356 -0.2575  0.9054
17636TIP3    H274324   1.253   3.975  14.575 -1.3552  0.4669  0.6762
17637TIP3   OH274325   3.144   0.480  15.322 -0.0383  0.5463  0.1839
17637TIP3    H174326   3.238   0.487  15.341  0.3118 -1.0287 -0.7527
17637TIP3    H274327   3.101   0.506  15.404  1.2604 -0.2175  1.1614
17638TIP3   OH274328   3.486   0.795  14.840 -0.1767 -0.1854  0.1057
17638TIP3    H174329   3.541   0.842  14.778 -1.5355 -0.7150 -1.5825
17638TIP3    H274330   3.447   0.863  14.895  0.2494  0.3888 -0.2907
17639TIP3   OH274331   5.766   6.168  11.172 -0.4340 -0.3306  0.0589
17639TIP3    H174332   5.756   6.179  11.267 -0.3549 -1.8959  0.2602
17639TIP3    H274333   5.710   6.237  11.135 -0.8385  0.0028  1.2347
17640TIP3   OH274334   6.337   4.378   3.958 -0.5718 -0.3839 -0.1595
17640TIP3    H174335   6.259   4.432   3.950 -0.8689 -1.0277 -2.0717
17640TIP3    H274336   6.357   4.350   3.869  1.2111 -1.1353  0.4221
17641TIP3   OH274337   6.156   3.093  15.247 -0.1620  0.3811 -0.2617
17641TIP3    H174338   6.165   3.056  15.335  2.1223  0.4419 -0.4213
17641TIP3    H274339   6.171   3.187  15.259  0.3093  0.3686 -0.7200
17642TIP3   OH274340   1.647   3.702  12.855 -0.3164  0.4977 -0.2386
17642TIP3    H174341   1.588   3.763  12.898 -0.8619 -0.3270  0.1997
17642TIP3    H274342   1.684   3.752  12.782 -1.3973  1.0847 -0.3975
17643TIP3   OH274343   0.600   6.534  14.760 -0.4425 -0.6017  0.1803
17643TIP3    H174344   0.583   6.498  14.673  1.5535 -1.5647  0.1105
17643TIP3    H274345   0.643   6.462  14.807 -0.9260  0.1009  1.7725
17644TIP3   OH274346   6.072   4.795  14.081  0.1660  0.1351 -0.4787
17644TIP3    H174347   6.082   4.707  14.045  0.9890  0.3435 -0.7914
17644TIP3    H274348   6.058   4.781  14.174 -2.1584 -0.4225 -0.8355
17645TIP3   OH274349   2.707   5.161  12.321  0.4197  0.3700 -0.3591
17645TIP3    H174350   2.728   5.253  12.339  1.5808  0.4299 -1.8178
17645TIP3    H274351   2.785   5.127  12.277 -0.6191 -0.8570 -1.3319
17646TIP3   OH274352   6.539   6.089  11.678 -0.0060  0.2127  0.0123
17646TIP3    H174353   6.572   6.129  11.597 -1.5221  2.2944  0.3231
17646TIP3    H274354   6.513   6.164  11.732 -0.6999 -1.1809  1.6983
17647TIP3   OH274355   0.950   1.936  11.056  0.0069 -0.0140 -0.4313
17647TIP3    H174356   0.898   2.014  11.037 -0.4783 -0.2240  0.0273
17647TIP3    H274357   1.010   1.928  10.981 -1.6518 -0.6298 -1.7531
17648TIP3   OH274358   1.272   6.447   4.806  0.1471 -0.0185  0.0528
17648TIP3    H174359   1.288   6.359   4.773 -1.3544 -0.3119  0.0421
17648TIP3    H274360   1.181   6.446   4.836 -0.6759  2.1757 -2.0485
17649TIP3   OH274361   5.359   6.540  14.641 -0.0396  0.7138  0.6611
17649TIP3    H174362   5.350   6.631  14.667 -1.4266  0.5806  0.7428
17649TIP3    H274363   5.316   6.535  14.556 -0.6407  0.0096  0.9890
17650TIP3   OH274364   6.615   5.886   1.692  0.0681  0.5697  0.3441
17650TIP3    H174365   6.679   5.854   1.755  0.4194 -0.5473 -0.5297
17650TIP3    H274366   6.662   5.886   1.608 -1.0864 -0.4241 -0.3460
17651TIP3   OH274367   4.702   0.097   0.300  0.1388  0.1305  0.4610
17651TIP3    H174368   4.683   0.155   0.226 -1.1296  0.2394  0.8513
17651TIP3    H274369   4.652   0.018   0.282  0.4444 -0.1510  0.8226
17652TIP3   OH274370   6.203   5.968   3.208 -0.4782  0.3525  0.3835
17652TIP3    H174371   6.107   5.972   3.213 -0.4230  2.0532  0.6765
17652TIP3    H274372   6.227   6.031   3.140  0.3524 -1.7995 -1.4320
17653TIP3   OH274373   2.919   5.884   2.521 -0.1693  0.3674  0.2728
17653TIP3    H174374   2.868   5.907   2.444  0.8219  0.8629 -0.2658
17653TIP3    H274375   2.997   5.939   2.515  0.6751 -0.7271  0.7775
17654TIP3   OH274376   0.362   1.405  13.236 -0.8253 -0.4771  0.4588
17654TIP3    H174377   0.323   1.367  13.315  0.2305 -1.9301  0.3189
17654TIP3    H274378   0.330   1.349  13.165  2.9637 -3.0926  0.5275
17655TIP3   OH274379   2.558   6.632   0.132 -0.2005 -0.0922  0.1495
17655TIP3    H174380   2.512   6.549   0.143 -0.0774 -0.2688 -0.6047
17655TIP3    H274381   2.517   6.691   0.196 -0.7139 -0.5564  0.2591
17656TIP3   OH274382   0.853   5.118   3.215 -0.0654 -0.4464  0.3265
17656TIP3    H174383   0.892   5.202   3.241 -0.8169  0.0069  0.0173
17656TIP3    H274384   0.874   5.059   3.287  0.2034  0.0856  0.6929
17657TIP3   OH274385   1.338   6.533  16.205 -0.6479  1.0520 -0.0827
17657TIP3    H174386   1.244   6.529  16.222 -0.5242 -0.6747  0.4404
17657TIP3    H274387   1.375   6.461  16.257  0.6839  0.3001 -1.9477
17658TIP3   OH274388   0.975   4.303   5.749 -0.2693  0.0601  0.4810
17658TIP3    H174389   1.037   4.323   5.679  0.2752  0.0760  0.9620
17658TIP3    H274390   1.027   4.305   5.829 -0.9657  0.4629  0.9398
17659TIP3   OH274391   6.743   4.504  15.442  0.4388  0.3263 -0.5445
17659TIP3    H174392   6.687   4.572  15.481 -1.8874 -1.3988 -0.6232
17659TIP3    H274393   6.743   4.433  15.506  1.7974 -0.1123 -0.9981
17660TIP3   OH274394   1.733   3.928  13.467 -0.0714  0.0639 -0.7043
17660TIP3    H174395   1.716   3.853  13.523 -0.2647  0.4903 -0.1914
17660TIP3    H274396   1.772   3.994  13.524 -1.4067  0.9641 -0.7822
17661TIP3   OH274397   0.769   4.528   3.001 -0.3391  0.4086  0.4094
17661TIP3    H174398   0.707   4.561   3.066 -1.6697  1.1929 -1.2039
17661TIP3    H274399   0.746   4.572   2.920  1.3568 -0.4518 -0.6112
17662TIP3   OH274400   5.924   5.743  14.019 -0.3090 -0.1216 -0.6489
17662TIP3    H174401   5.907   5.770  13.929 -1.1036 -0.5534 -0.6413
17662TIP3    H274402   5.968   5.818  14.059  0.1147  0.0476 -1.4080
17663TIP3   OH274403   4.577   1.916  12.836 -0.5001  0.2272  0.0157
17663TIP3    H174404   4.569   2.010  12.854 -1.0446 -0.0877  1.5162
17663TIP3    H274405   4.671   1.904  12.817 -0.5948  1.2192 -1.2554
17664TIP3   OH274406   0.775   6.401  16.363  0.1260 -0.3010  0.0556
17664TIP3    H174407   0.800   6.349  16.286  0.5380  0.6343 -0.4636
17664TIP3    H274408   0.830   6.369  16.433  1.7162  0.6745 -0.7009
17665TIP3   OH274409   5.997   4.135   2.385 -0.6810  0.0912 -0.6860
17665TIP3    H174410   6.084   4.115   2.351  1.7116  1.4961  3.7531
17665TIP3    H274411   5.966   4.051   2.421  0.7394  0.2850  1.1515
17666TIP3   OH274412   5.341   5.879   3.293  0.1309 -0.6371  0.3895
17666TIP3    H174413   5.352   5.940   3.365 -0.1772  0.2430 -0.2839
17666TIP3    H274414   5.368   5.794   3.328 -1.3834 -0.5160  1.9686
17667TIP3   OH274415   4.222   6.599  15.685 -0.3425 -0.4164  0.1877
17667TIP3    H174416   4.300   6.619  15.737 -1.0802  0.2956  1.0541
17667TIP3    H274417   4.156   6.576  15.749 -1.0792 -0.2246 -0.4909
17668TIP3   OH274418   6.521   1.338   1.666  0.0879 -0.5551 -0.3472
17668TIP3    H174419   6.559   1.426   1.662 -0.5643 -0.2353  0.3092
17668TIP3    H274420   6.455   1.337   1.597 -1.0114  0.0333  0.6418
17669TIP3   OH274421   4.920   1.749   5.263  0.0726 -0.0404  0.4328
17669TIP3    H174422   4.933   1.822   5.323 -0.8842  0.6853 -0.2148
17669TIP3    H274423   4.825   1.741   5.255  0.1689  0.1719 -1.3008
17670TIP3   OH274424   3.152   1.132  16.155 -0.1610  0.0425  0.1009
17670TIP3    H174425   3.121   1.161  16.241  1.0522  0.0391  0.5529
17670TIP3    H274426   3.221   1.069  16.174  1.0042  0.9727 -0.8608
17671TIP3   OH274427   6.465   3.731   2.257 -0.0703  0.2132 -0.0472
17671TIP3    H174428   6.510   3.763   2.179 -0.0625  0.0758 -0.0992
17671TIP3    H274429   6.500   3.642   2.270  0.7978  0.6617  0.7892
17672TIP3   OH274430   5.619   3.805   2.867  0.1270 -0.2180 -0.4391
17672TIP3    H174431   5.532   3.834   2.896 -0.1252 -0.3941 -0.9932
17672TIP3    H274432   5.668   3.790   2.948 -0.5505 -0.6843 -0.1070
17673TIP3   OH274433   2.073   0.829   0.207  0.0937  0.2997 -0.6902
17673TIP3    H174434   2.021   0.785   0.139 -0.2759  0.2691 -0.3876
17673TIP3    H274435   2.030   0.913   0.218 -0.9356 -0.3897  0.7875
17674TIP3   OH274436   0.150   0.420   3.403 -0.3767  0.1429  0.2653
17674TIP3    H174437   0.146   0.337   3.355 -0.3809 -0.5415  1.4377
17674TIP3    H274438   0.217   0.471   3.356  0.4739 -0.9711  0.2414
17675TIP3   OH274439   3.584   6.439   2.767  0.4891  0.2138  0.4461
17675TIP3    H174440   3.607   6.424   2.859  0.2650 -0.7439  0.3574
17675TIP3    H274441   3.541   6.358   2.739 -0.0459  0.7382 -0.3179
17676TIP3   OH274442   1.893   4.877   3.416 -0.1558  0.0932 -0.0796
17676TIP3    H174443   1.963   4.915   3.468 -1.4456  0.9550  1.1175
17676TIP3    H274444   1.865   4.947   3.357  0.8473 -0.6690 -1.5118
17677TIP3   OH274445   2.740   0.171  13.634  0.2572  0.1828 -0.8071
17677TIP3    H174446   2.817   0.213  13.596  0.5869  1.3307  1.0209
17677TIP3    H274447   2.775   0.099  13.685 -0.0986 -0.6665 -1.7201
17678TIP3   OH274448   4.941   5.206   0.215 -0.1318  0.0481 -0.4453
17678TIP3    H174449   4.944   5.284   0.270 -1.0024 -0.5951  0.5541
17678TIP3    H274450   5.028   5.202   0.175  0.0503  1.3161 -0.2375
17679TIP3   OH274451   4.722   4.192   2.005 -0.4301 -0.2889 -0.0885
17679TIP3    H174452   4.633   4.161   1.993 -0.1707 -0.2873 -2.4688
17679TIP3    H274453   4.775   4.112   2.008 -0.4168 -0.2630  0.3831
17680TIP3   OH274454   2.772   0.450   2.137  0.5606  0.1491  0.2244
17680TIP3    H174455   2.786   0.452   2.232 -0.9174  1.2646  0.4585
17680TIP3    H274456   2.744   0.360   2.119 -0.6017  0.3083  1.1036
17681TIP3   OH274457   2.402   5.187  15.919  0.4656  0.3319 -0.2191
17681TIP3    H174458   2.350   5.256  15.878 -0.4587  0.0219  0.4000
17681TIP3    H274459   2.385   5.109  15.865 -0.5373 -0.0110  0.5567
17682TIP3   OH274460   2.377   4.419   4.771  0.7043  0.2421 -0.3407
17682TIP3    H174461   2.316   4.401   4.842  0.2743  2.0374 -0.2103
17682TIP3    H274462   2.454   4.366   4.791  0.2862  0.1284  1.0328
17683TIP3   OH274463   2.237   2.503   5.053  1.0629  0.0396 -0.1945
17683TIP3    H174464   2.200   2.430   5.003 -0.0508  0.7838 -0.4827
17683TIP3    H274465   2.163   2.539   5.102  2.2567 -1.2153  2.7772
17684TIP3   OH274466   3.627   6.390   1.000 -0.1489  0.2504  0.4377
17684TIP3    H174467   3.605   6.360   1.088  0.6777  1.2617  1.0023
17684TIP3    H274468   3.711   6.434   1.009  0.3125 -0.2695 -1.0021
17685TIP3   OH274469   2.551   6.233  16.850 -0.0765  0.9756 -0.3258
17685TIP3    H174470   2.508   6.309  16.810  0.4112  2.4207  1.7123
17685TIP3    H274471   2.598   6.269  16.925  0.6767 -1.2816  0.3680
17686TIP3   OH274472   4.772   5.599   1.543 -0.2677 -0.3363  0.2215
17686TIP3    H174473   4.803   5.684   1.513 -0.3258 -1.1670 -2.4744
17686TIP3    H274474   4.738   5.615   1.631  2.0642  1.8572  0.8376
17687TIP3   OH274475   1.760   6.183   0.264  0.6005  0.0737  0.3214
17687TIP3    H174476   1.693   6.243   0.295  1.7402  0.6519  1.8058
17687TIP3    H274477   1.764   6.115   0.332  3.0923  1.3064  1.5219
17688TIP3   OH274478   3.885   0.577  10.621  0.9000  0.1014 -0.1230
17688TIP3    H174479   3.928   0.495  10.645  1.0372 -0.1152 -1.0748
17688TIP3    H274480   3.895   0.583  10.526 -1.1658  0.0473 -0.3851
17689TIP3   OH274481   2.805   3.745   1.394  0.0047 -0.0523  0.1555
17689TIP3    H174482   2.900   3.731   1.404 -0.0944 -1.2000 -0.3323
17689TIP3    H274483   2.788   3.725   1.302 -0.4070  2.1833 -0.3091
17690TIP3   OH274484   0.508   5.459   3.693  0.3298 -0.4953 -0.1718
17690TIP3    H174485   0.446   5.483   3.761  0.4120  0.6055 -0.4645
17690TIP3    H274486   0.587   5.434   3.741 -0.8998 -3.9426  0.3112
17691TIP3   OH274487   3.693   6.680   4.481  0.5942  0.2993  0.2804
17691TIP3    H174488   3.734   6.595   4.497  1.9680  1.1608  1.6747
17691TIP3    H274489   3.674   6.714   4.568 -0.4377  1.2030 -0.2736
17692TIP3   OH274490   1.513   2.073   4.775  0.1476  0.4665 -0.0864
17692TIP3    H174491   1.493   1.985   4.744  0.6672 -0.2795  1.5705
17692TIP3    H274492   1.588   2.100   4.723 -0.0078 -0.0701 -0.6040
17693TIP3   OH274493   2.248   3.285  11.708  0.7299  0.4866 -0.3360
17693TIP3    H174494   2.153   3.280  11.722  0.9417 -0.7702  0.8602
17693TIP3    H274495   2.277   3.194  11.709  2.2554  0.9436  1.6652
17694TIP3   OH274496   4.851   2.231  15.842  0.3817 -0.1390  0.1637
17694TIP3    H174497   4.879   2.209  15.931 -0.2411 -1.7238  0.0030
17694TIP3    H274498   4.764   2.192  15.834 -0.3187  1.4996 -0.5815
17695TIP3   OH274499   1.840   6.251   1.027 -0.9365 -0.3264 -0.0688
17695TIP3    H174500   1.891   6.266   1.107  1.6898  0.5133 -1.8018
17695TIP3    H274501   1.805   6.338   1.005  0.0253 -0.1446 -0.9025
17696TIP3   OH274502   6.146   5.502   2.742 -0.3700  0.3440  0.0147
17696TIP3    H174503   6.205   5.562   2.696 -0.5382 -0.0813 -0.7512
17696TIP3    H274504   6.204   5.437   2.782 -0.3325 -0.3811 -1.1767
17697TIP3   OH274505   2.703   3.186   4.779 -0.0098  0.4434 -0.1232
17697TIP3    H174506   2.773   3.245   4.806  2.1342 -1.4845 -1.1832
17697TIP3    H274507   2.723   3.164   4.688 -1.1346 -1.3522 -0.0002
17698TIP3   OH274508   0.029   1.313  14.150 -0.5035 -0.3033 -0.0764
17698TIP3    H174509   0.052   1.256  14.223 -0.5393 -1.6109 -1.0370
17698TIP3    H274510  -0.061   1.288  14.127  0.2254 -1.5210 -1.9185
17699TIP3   OH274511   1.904   0.380   2.224  0.3333  0.1835 -0.3633
17699TIP3    H174512   1.809   0.370   2.219  0.4900 -0.7492 -2.2550
17699TIP3    H274513   1.931   0.320   2.293 -0.3435 -0.4066 -0.6000
17700TIP3   OH274514   6.386   5.441   0.607  0.3019  0.3169  0.0844
17700TIP3    H174515   6.412   5.498   0.679 -1.4838  0.9149  0.2952
17700TIP3    H274516   6.345   5.499   0.543 -0.4407 -0.5441 -0.2475
17701TIP3   OH274517   0.167   6.442   2.209  0.2582 -0.6408  0.4490
17701TIP3    H174518   0.111   6.380   2.256 -1.6561  0.5315 -0.1832
17701TIP3    H274519   0.108   6.512   2.181  1.8675  0.1682 -1.1492
17702TIP3   OH274520   5.607   2.085  14.134 -0.2741 -0.2158 -0.9656
17702TIP3    H174521   5.697   2.064  14.108 -0.4658  0.2389 -2.0346
17702TIP3    H274522   5.573   2.140  14.063 -0.9933  0.6444  0.0163
17703TIP3   OH274523   5.829   1.721  14.865 -0.3283  0.1477  0.3850
17703TIP3    H174524   5.746   1.707  14.821  0.6333  0.1397 -1.5550
17703TIP3    H274525   5.820   1.805  14.910 -1.5263 -0.1031  0.6289
17704TIP3   OH274526   6.063   5.064  14.394 -0.7037 -0.4340  0.0587
17704TIP3    H174527   5.987   5.016  14.361 -0.9335  0.5141 -0.8388
17704TIP3    H274528   6.108   5.001  14.450 -0.7974 -1.8197 -1.3484
17705TIP3   OH274529   3.555   2.439   4.375 -0.1246 -0.6575  0.3396
17705TIP3    H174530   3.623   2.397   4.322  2.4867 -0.3348  3.1742
17705TIP3    H274531   3.515   2.367   4.423  2.8133 -0.4137  3.5014
17706TIP3   OH274532   0.406   3.220   4.915 -0.0448 -0.9504 -0.3611
17706TIP3    H174533   0.487   3.236   4.868 -0.2775 -1.4722 -0.9667
17706TIP3    H274534   0.359   3.303   4.913  0.1973 -0.8189 -0.5704
17707TIP3   OH274535   3.134   4.743   2.339  0.0045 -0.0439 -0.1409
17707TIP3    H174536   3.054   4.714   2.384  1.0236  0.6895  2.2595
17707TIP3    H274537   3.168   4.663   2.298 -0.4829 -0.9562  1.1765
17708TIP3   OH274538   6.312   1.406   1.502 -0.1943  0.5946  0.1070
17708TIP3    H174539   6.233   1.454   1.476 -0.4045  0.5995  0.7356
17708TIP3    H274540   6.282   1.316   1.514 -0.1582  0.6417  0.5743
17709TIP3   OH274541   0.018   6.743   5.961  0.2904 -0.3855 -0.1633
17709TIP3    H174542  -0.065   6.724   5.919  0.3168  1.2822 -1.0483
17709TIP3    H274543   0.014   6.837   5.981  1.8144 -0.3424  0.0615
17710TIP3   OH274544   0.650   6.763  11.041  0.3415  0.4267  0.3307
17710TIP3    H174545   0.721   6.827  11.034  0.3348  0.4208  0.1991
17710TIP3    H274546   0.570   6.816  11.047  0.1086  0.4552 -2.0479
17711TIP3   OH274547   1.862   1.147   2.211 -0.1041  0.1189 -0.2754
17711TIP3    H174548   1.880   1.211   2.281 -0.2629 -0.6301  0.4737
17711TIP3    H274549   1.925   1.076   2.227 -0.4537 -0.2712 -0.6167
17712TIP3   OH274550   6.797   5.200  14.036 -0.1468  0.3290  0.9891
17712TIP3    H174551   6.739   5.225  14.108 -0.9090 -0.1929  0.5753
17712TIP3    H274552   6.859   5.272  14.029  0.6484 -0.1077  2.8904
17713TIP3   OH274553   5.568   6.390  16.931 -0.0406  0.1206 -0.0039
17713TIP3    H174554   5.656   6.395  16.967  0.8301 -2.2609 -1.5621
17713TIP3    H274555   5.511   6.410  17.005  1.7464  3.1913  0.7076
17714TIP3   OH274556   0.104   4.501  14.765  0.2829  0.0705 -0.4166
17714TIP3    H174557   0.019   4.535  14.790  0.2584 -0.0948 -0.2736
17714TIP3    H274558   0.115   4.528  14.674  0.0614  0.0542 -0.4465
17715TIP3   OH274559   5.256   3.256  13.144 -0.0920 -0.0787 -0.2377
17715TIP3    H174560   5.214   3.316  13.082  0.5661  1.4950  0.7747
17715TIP3    H274561   5.217   3.171  13.124 -1.6895  0.8057 -1.1826
17716TIP3   OH274562   4.522   1.626  11.587 -0.2835  0.1023 -0.4945
17716TIP3    H174563   4.445   1.633  11.531 -1.0438  1.3792  0.6573
17716TIP3    H274564   4.595   1.648  11.530 -1.0694  1.6986 -0.9509
17717TIP3   OH274565   5.130   0.737  12.568  0.2289 -0.2559 -0.0147
17717TIP3    H174566   5.125   0.824  12.608 -0.3743 -0.4256  0.2996
17717TIP3    H274567   5.041   0.719  12.538 -0.0603 -1.4341  1.3881
17718TIP3   OH274568   1.955   2.278  16.938  0.5467  0.3169  0.7854
17718TIP3    H174569   2.004   2.261  16.858  0.6133 -0.7079  1.0278
17718TIP3    H274570   1.903   2.198  16.952  1.9825 -0.3460  2.7937
17719TIP3   OH274571   2.733   4.673  14.491 -0.1292  0.2253  0.3249
17719TIP3    H174572   2.712   4.722  14.411 -1.1334  0.6040  0.8055
17719TIP3    H274573   2.826   4.693  14.507 -0.2275  1.0756 -0.1115
17720TIP3   OH274574   6.096   0.215   5.898  0.0218 -0.0223 -0.2036
17720TIP3    H174575   6.060   0.247   5.981 -2.7350  0.6596 -1.5455
17720TIP3    H274576   6.056   0.129   5.886 -0.0563  0.1251 -1.0777
17721TIP3   OH274577   6.565   1.279  14.079  0.1982  0.0985  0.4611
17721TIP3    H174578   6.533   1.256  13.992 -0.5892  1.0839  0.4589
17721TIP3    H274579   6.485   1.291  14.131  0.5779  1.4255  0.7922
17722TIP3   OH274580   3.640   4.757   2.443 -0.9297  0.0599 -0.0187
17722TIP3    H174581   3.559   4.746   2.393  0.4427 -1.0300 -2.1727
17722TIP3    H274582   3.649   4.675   2.491 -1.4275  0.4687  0.8003
17723TIP3   OH274583   0.946   1.148  16.419 -0.0884 -0.5227 -0.0374
17723TIP3    H174584   1.021   1.171  16.474  0.3281 -0.9016 -0.4415
17723TIP3    H274585   0.975   1.071  16.369  0.2560  0.9689 -2.2574
17724TIP3   OH274586   0.441   5.071   4.573  0.2395 -0.0453  0.0141
17724TIP3    H174587   0.389   5.019   4.634  0.2387 -2.2740 -1.7483
17724TIP3    H274588   0.377   5.125   4.526  0.2552  1.8035  1.9537
17725TIP3   OH274589   3.714   3.964  13.374 -0.3470 -0.1158  0.5273
17725TIP3    H174590   3.691   3.880  13.335 -0.9831  0.1098  0.3912
17725TIP3    H274591   3.807   3.975  13.357 -0.3857 -0.5318  0.0440
17726TIP3   OH274592   1.011   2.457   1.143 -0.2457  0.3114  0.7679
17726TIP3    H174593   0.978   2.390   1.202  0.5530  0.3103  1.2368
17726TIP3    H274594   0.935   2.485   1.093 -0.4510 -1.4551  0.0405
17727TIP3   OH274595   6.241   2.916  11.758 -0.3532 -0.6545  0.6546
17727TIP3    H174596   6.147   2.900  11.755 -0.8087  1.7493 -1.4462
17727TIP3    H274597   6.280   2.835  11.727 -1.7451 -1.4995  1.0230
17728TIP3   OH274598   5.971   5.384   3.479  0.3969 -0.2863  0.4546
17728TIP3    H174599   6.006   5.461   3.435 -1.8020 -0.5135 -1.9170
17728TIP3    H274600   5.922   5.419   3.553 -0.0977  0.5920 -0.2638
17729TIP3   OH274601   1.859   1.964   3.545 -0.2647 -0.0990 -0.3139
17729TIP3    H174602   1.864   1.929   3.634 -2.1984 -0.9631 -0.4911
17729TIP3    H274603   1.945   1.945   3.507 -0.6991 -3.5377  0.0594
17730TIP3   OH274604   4.138   2.720   0.491  0.1463  0.4811  0.0885
17730TIP3    H174605   4.198   2.766   0.551 -1.5778  1.3441  1.2443
17730TIP3    H274606   4.137   2.774   0.412  0.3754  0.8268  0.3194
17731TIP3   OH274607   2.190   6.651   5.834  0.0477  0.2590  0.4676
17731TIP3    H174608   2.218   6.562   5.857 -0.9465 -0.6415 -1.5004
17731TIP3    H274609   2.260   6.708   5.865  1.8542 -1.4585 -0.2803
17732TIP3   OH274610   4.794   3.012  13.472  0.2446  0.5704  0.3546
17732TIP3    H174611   4.730   3.083  13.477  0.2247  0.5263  0.7251
17732TIP3    H274612   4.867   3.050  13.423  0.0312  0.6932  0.1269
17733TIP3   OH274613   0.928   0.571   1.074  0.1267  0.1619 -0.2012
17733TIP3    H174614   0.865   0.504   1.049  1.6204 -0.7267 -1.7716
17733TIP3    H274615   0.936   0.562   1.169 -1.8295  0.1176  0.0061
17734TIP3   OH274616   0.334   5.513   0.774  0.2034  0.0884  0.2711
17734TIP3    H174617   0.384   5.573   0.719  0.2592 -0.5549 -0.3809
17734TIP3    H274618   0.306   5.443   0.715  0.1700 -0.5543  1.0297
17735TIP3   OH274619   2.942   2.968   3.728  0.1369 -0.3189  0.3299
17735TIP3    H174620   2.866   2.918   3.757  0.8193 -1.5623  0.0169
17735TIP3    H274621   2.905   3.045   3.686 -1.0358 -1.9087 -1.6955
17736TIP3   OH274622   2.146   1.964  13.414  0.8555 -0.0565 -0.3461
17736TIP3    H174623   2.206   1.890  13.416  0.6565 -0.2067  0.5095
17736TIP3    H274624   2.131   1.986  13.506 -0.8033 -0.3615 -0.5115
17737TIP3   OH274625   0.967   4.762   5.197  0.8468 -0.2210 -0.3667
17737TIP3    H174626   1.012   4.810   5.266  1.4268  1.1004 -1.6325
17737TIP3    H274627   0.878   4.752   5.230  1.0055  0.7326  0.4090
17738TIP3   OH274628   0.079   0.360   1.611 -0.1355  0.2119  0.6064
17738TIP3    H174629   0.032   0.385   1.531 -0.1289  1.0258  0.8473
17738TIP3    H274630   0.169   0.348   1.583 -0.5359 -1.8277  0.0463
17739TIP3   OH274631   4.044   4.522   3.769  0.1056 -0.2822 -0.2359
17739TIP3    H174632   3.957   4.483   3.773 -0.5903  1.0570 -1.5237
17739TIP3    H274633   4.028   4.616   3.762  1.7063  0.1798  1.4792
17740TIP3   OH274634   4.309   3.339  16.870  0.5853 -0.4128  0.1548
17740TIP3    H174635   4.401   3.322  16.854  0.9497  1.6780 -0.1907
17740TIP3    H274636   4.307   3.402  16.942 -0.5116  0.3027 -0.4621
17741TIP3   OH274637   6.584   1.420   5.776 -0.2528 -0.1912  0.5134
17741TIP3    H174638   6.662   1.469   5.803 -0.4086  2.4202 -3.0151
17741TIP3    H274639   6.618   1.345   5.728  0.0817  0.1186  0.2629
17742TIP3   OH274640   0.145   2.238  11.140  0.6854 -0.2501 -0.5629
17742TIP3    H174641   0.098   2.293  11.077 -0.1285 -0.1754  0.1051
17742TIP3    H274642   0.085   2.167  11.159  1.3893 -0.9058 -0.7378
17743TIP3   OH274643   1.484   6.621  12.291 -0.4661 -0.4293  0.5518
17743TIP3    H174644   1.478   6.670  12.209  1.2247  0.5293  0.9475
17743TIP3    H274645   1.453   6.533  12.269  2.0996 -0.8908 -1.7665
17744TIP3   OH274646   1.014   4.836   3.785 -0.1902 -0.0371  0.3475
17744TIP3    H174647   0.969   4.758   3.752 -1.8164  0.5599  1.0292
17744TIP3    H274648   1.034   4.815   3.876 -1.0907  0.4943  0.6847
17745TIP3   OH274649   5.456   4.490  12.152  0.5358  0.4668 -0.6517
17745TIP3    H174650   5.502   4.514  12.233  0.2691  1.3843 -0.7558
17745TIP3    H274651   5.523   4.452  12.096  0.8378  0.3436 -0.2108
17746TIP3   OH274652   6.594   0.653   1.002  0.1915 -0.2957  0.2089
17746TIP3    H174653   6.620   0.564   1.026  2.6666  0.0951 -0.6910
17746TIP3    H274654   6.635   0.667   0.917 -0.8972  1.4249 -0.0725
17747TIP3   OH274655   2.299   2.003  14.333 -0.2667 -0.0361 -0.3152
17747TIP3    H174656   2.335   2.084  14.369 -1.9646  0.9386 -0.7319
17747TIP3    H274657   2.221   1.985  14.386 -0.4986 -0.8227 -0.9027
17748TIP3   OH274658   3.458   5.474   3.764 -0.2324 -0.2197 -0.3775
17748TIP3    H174659   3.533   5.532   3.753  0.1344 -0.1348  2.0052
17748TIP3    H274660   3.492   5.401   3.817 -1.6590 -0.5317  0.1440
17749TIP3   OH274661   6.686   5.479  15.666 -0.3334  0.7015  0.1983
17749TIP3    H174662   6.709   5.387  15.670  0.5120  0.9448  1.7110
17749TIP3    H274663   6.732   5.513  15.589 -0.1697  0.0022 -0.0158
17750TIP3   OH274664   0.730   3.894   1.726 -0.0014  0.1081  0.0705
17750TIP3    H174665   0.826   3.900   1.718  0.1697 -0.8969  1.1308
17750TIP3    H274666   0.712   3.918   1.817 -1.0997  3.3586 -0.8574
17751TIP3   OH274667   4.517   6.499   3.794  0.1025 -0.5015  0.3579
17751TIP3    H174668   4.454   6.522   3.862 -0.1918 -0.8827  0.2151
17751TIP3    H274669   4.478   6.530   3.712 -0.8718 -2.5189 -0.0052
17752TIP3   OH274670   5.429   1.766  13.182 -0.5261 -0.0886 -0.0339
17752TIP3    H174671   5.512   1.758  13.229 -0.8394  0.5068  0.6451
17752TIP3    H274672   5.455   1.787  13.092  0.0727 -0.8509 -0.0565
17753TIP3   OH274673   2.559   6.388  13.274  0.3717 -0.3129  0.3820
17753TIP3    H174674   2.648   6.409  13.302 -0.2510  1.3011  1.2700
17753TIP3    H274675   2.561   6.395  13.179  1.6316 -2.2079  0.2247
17754TIP3   OH274676   2.007   1.396  11.404  0.1803 -0.0836  0.0518
17754TIP3    H174677   1.962   1.325  11.359  1.2411 -0.4748 -0.4208
17754TIP3    H274678   1.954   1.412  11.483 -1.0973 -0.1188 -0.7648
17755TIP3   OH274679   2.399   0.865  17.036  0.8405  0.9783  0.0723
17755TIP3    H174680   2.384   0.833  17.125  0.8663 -0.0176 -0.2766
17755TIP3    H274681   2.326   0.925  17.019  0.0511  0.0738  0.2383
17756TIP3   OH274682   1.187   0.587   1.706 -0.4664 -0.3230  0.2614
17756TIP3    H174683   1.217   0.678   1.699 -1.1436  0.0072  1.3734
17756TIP3    H274684   1.221   0.545   1.627  0.2676  0.7747 -0.0440
17757TIP3   OH274685   0.056   1.196  12.728  0.3401  0.5578  0.1522
17757TIP3    H174686   0.022   1.199  12.818  0.6910  0.3116  0.2953
17757TIP3    H274687   0.057   1.287  12.699 -2.4324  0.4417 -0.6053
17758TIP3   OH274688   1.900   5.977   4.021 -1.0347 -0.6470 -0.2609
17758TIP3    H174689   1.990   5.947   4.033 -1.1632 -0.5178  1.2465
17758TIP3    H274690   1.908   6.067   3.991 -0.6717 -0.9307 -1.0479
17759TIP3   OH274691   2.073   1.012   2.505 -0.0854  0.1453  0.0427
17759TIP3    H174692   1.984   1.039   2.483 -1.1131 -1.6773  1.6858
17759TIP3    H274693   2.105   0.970   2.425 -0.6797  0.8249 -0.5677
17760TIP3   OH274694   0.422   6.083   3.202  0.1311  0.2146 -0.3403
17760TIP3    H174695   0.380   6.046   3.279  1.5000 -3.7221 -1.2471
17760TIP3    H274696   0.503   6.120   3.234  1.4243 -2.7222  0.1214
17761TIP3   OH274697   2.817   1.222   3.627 -0.4015  0.1737  0.2533
17761TIP3    H174698   2.823   1.168   3.548  0.7776 -1.0694  1.1577
17761TIP3    H274699   2.862   1.303   3.603 -2.8083  1.1442 -1.3575
17762TIP3   OH274700   4.203   3.903   0.408 -0.2456  0.5839  0.4622
17762TIP3    H174701   4.123   3.953   0.390 -0.8432 -0.0421  1.3075
17762TIP3    H274702   4.271   3.946   0.355 -1.5899 -0.2900 -2.1435
17763TIP3   OH274703   2.041   0.112  13.261  0.2532 -0.4562  0.0410
17763TIP3    H174704   2.085   0.193  13.235 -0.8254  0.8832  2.0917
17763TIP3    H274705   2.063   0.102  13.354 -0.9123 -1.6335  0.2179
17764TIP3   OH274706   2.893   0.384   3.125  1.0805 -0.3580  0.0088
17764TIP3    H174707   2.864   0.384   3.216  0.0307  0.2754 -0.3110
17764TIP3    H274708   2.915   0.292   3.108 -0.4523 -0.8339  0.3822
17765TIP3   OH274709   3.139   5.445   1.266 -0.0637  0.3578 -0.4557
17765TIP3    H174710   3.173   5.440   1.176 -0.0593 -0.3629 -0.4254
17765TIP3    H274711   3.109   5.356   1.284 -0.8064  0.6927 -0.0262
17766TIP3   OH274712   4.642   6.362   3.509  0.1413  0.1581  0.0948
17766TIP3    H174713   4.617   6.319   3.427 -0.9861  2.4439 -0.8734
17766TIP3    H274714   4.576   6.431   3.521  1.1769  0.8973  2.1065
17767TIP3   OH274715   0.631   6.337   5.628  0.3066 -0.7485 -0.0949
17767TIP3    H174716   0.570   6.408   5.648  1.7913  0.3169  0.9035
17767TIP3    H274717   0.576   6.258   5.626 -1.2155  0.2626 -0.1235
17768TIP3   OH274718   0.665   0.842  15.510  0.3233 -0.1768 -0.2858
17768TIP3    H174719   0.703   0.800  15.433 -1.0546 -2.0324 -0.0087
17768TIP3    H274720   0.622   0.771  15.558  0.6027  1.0322  1.8907
17769TIP3   OH274721   6.765   2.727  11.126  0.1508 -0.3211 -0.0331
17769TIP3    H174722   6.763   2.656  11.191  0.1268  0.5367  0.9394
17769TIP3    H274723   6.857   2.740  11.107  0.1104 -1.2215 -0.9310
17770TIP3   OH274724   0.344   1.615   1.469  0.1770  0.2057 -0.3044
17770TIP3    H174725   0.304   1.536   1.504  0.5245  0.9256  1.8896
17770TIP3    H274726   0.270   1.668   1.439 -0.1873 -0.1948 -0.1130
17771TIP3   OH274727   1.860   2.389   2.267 -0.4650 -0.1314  0.2440
17771TIP3    H174728   1.778   2.389   2.317 -0.0233  0.0681  0.9676
17771TIP3    H274729   1.927   2.360   2.329  0.1089  0.2406 -0.1913
17772TIP3   OH274730   0.163   0.303  16.159 -0.6277 -0.2981 -0.1613
17772TIP3    H174731   0.189   0.370  16.222  0.9459  1.0322 -2.0924
17772TIP3    H274732   0.214   0.323  16.081 -0.4410 -3.4991 -0.9957
17773TIP3   OH274733   2.886   1.623   2.093  0.0009  0.5070 -0.1361
17773TIP3    H174734   2.936   1.663   2.022  0.1284 -1.2650 -1.0972
17773TIP3    H274735   2.845   1.546   2.054 -1.0903  0.2698  1.3717
17774TIP3   OH274736   5.368   4.900  12.040 -0.1328 -0.1520  0.3386
17774TIP3    H174737   5.273   4.906  12.046 -0.1608 -0.8761  0.8239
17774TIP3    H274738   5.393   4.966  11.976 -0.8590  0.8202  1.0250
17775TIP3   OH274739   6.134   1.804  13.347 -0.5702  0.1962  0.0103
17775TIP3    H174740   6.089   1.882  13.379 -0.5094  1.1515 -2.0598
17775TIP3    H274741   6.076   1.768  13.280  0.9141  0.4542 -1.4724
17776TIP3   OH274742   2.342   4.193   5.450 -0.1441 -0.1166  0.2233
17776TIP3    H174743   2.384   4.240   5.522 -1.0336 -0.0793  0.7357
17776TIP3    H274744   2.254   4.173   5.482 -0.4136 -0.4833 -0.6930
17777TIP3   OH274745   3.391   5.723  15.180  0.2417 -0.0118  0.3460
17777TIP3    H174746   3.448   5.743  15.255  0.5123  0.0732  0.1213
17777TIP3    H274747   3.443   5.747  15.104  0.3262 -0.9770  0.0868
17778TIP3   OH274748   1.394   2.976  16.426  0.0389  0.2775  0.3438
17778TIP3    H174749   1.455   2.938  16.490 -1.5119 -1.1746  1.0624
17778TIP3    H274750   1.309   2.973  16.470 -0.6400  1.8610 -0.7754
17779TIP3   OH274751   1.343   1.991  14.232 -0.0189 -0.0001  0.4428
17779TIP3    H174752   1.356   1.985  14.138 -0.7258 -0.8446  0.3902
17779TIP3    H274753   1.405   2.058  14.261  0.8972 -0.4322 -0.4761
17780TIP3   OH274754   4.794   2.543   1.917 -0.2278 -0.3040  0.5066
17780TIP3    H174755   4.884   2.575   1.915 -0.2361 -0.3026  0.1051
17780TIP3    H274756   4.773   2.523   1.826 -0.3832 -1.0133  0.6919
17781TIP3   OH274757   5.525   3.225  16.401  0.4687  0.0487  0.1964
17781TIP3    H174758   5.457   3.205  16.464  1.9805 -2.4700  1.1568
17781TIP3    H274759   5.577   3.145  16.394  2.1001  1.1720 -2.0691
17782TIP3   OH274760   4.865   2.133  16.616 -0.1476 -0.2064 -0.3222
17782TIP3    H174761   4.932   2.075  16.652 -1.1025 -2.8571 -2.5250
17782TIP3    H274762   4.906   2.173  16.540 -0.4218 -0.2278 -0.4801
17783TIP3   OH274763   0.716   1.571   2.858 -0.4079 -0.2117 -0.3907
17783TIP3    H174764   0.756   1.656   2.873  1.6513 -1.6929  5.4570
17783TIP3    H274765   0.775   1.526   2.797  0.5134  1.3284 -0.6710
17784TIP3   OH274766   2.842   2.455   2.930  0.5064 -0.1601  0.0909
17784TIP3    H174767   2.819   2.448   2.837 -0.1898 -0.5888  0.2851
17784TIP3    H274768   2.893   2.536   2.936  0.7490 -0.2462 -0.6997
17785TIP3   OH274769   2.423   5.061   1.018 -0.8793 -0.9151 -0.1169
17785TIP3    H174770   2.354   4.996   1.003 -0.1191 -1.5444 -0.9879
17785TIP3    H274771   2.401   5.133   0.959 -0.9319 -1.0028 -0.2053
17786TIP3   OH274772   4.663   1.753   1.350 -0.1222  0.0114 -0.4206
17786TIP3    H174773   4.673   1.693   1.276  1.8800  0.3331 -0.4645
17786TIP3    H274774   4.696   1.704   1.425  2.0318  1.1496 -0.5427
17787TIP3   OH274775   4.418   0.400  10.789  0.0751  0.2687 -0.2181
17787TIP3    H174776   4.370   0.472  10.748 -0.6892 -1.5626 -2.8134
17787TIP3    H274777   4.358   0.326  10.786  1.3117 -0.8590  1.1295
17788TIP3   OH274778   3.352   6.380   2.936 -0.4149 -0.7312 -0.2130
17788TIP3    H174779   3.397   6.307   2.894 -1.8449 -0.8836 -1.5477
17788TIP3    H274780   3.315   6.342   3.016  0.7130 -0.8956  0.2563
17789TIP3   OH274781   4.612   1.546   0.023  0.2701 -0.3068  0.1194
17789TIP3    H174782   4.685   1.603  -0.005 -0.9884  1.8039  0.8752
17789TIP3    H274783   4.535   1.584  -0.020 -0.6400 -1.3838  0.7663
17790TIP3   OH274784   5.489   5.775  16.576 -0.1797 -0.3746  0.3604
17790TIP3    H174785   5.538   5.850  16.611  0.8438 -0.4007 -0.9727
17790TIP3    H274786   5.405   5.812  16.549  0.0304  0.1402  0.4037
17791TIP3   OH274787   2.797   6.159  15.802 -0.4481 -0.4399 -0.2586
17791TIP3    H174788   2.886   6.192  15.805 -0.5362  0.0289 -1.9512
17791TIP3    H274789   2.800   6.077  15.852  0.8595 -0.2973 -0.0795
17792TIP3   OH274790   4.403   3.608  13.769 -0.7450 -0.4050  0.3219
17792TIP3    H174791   4.326   3.557  13.794 -0.2106 -0.7862  1.2612
17792TIP3    H274792   4.374   3.662  13.695 -1.5573 -1.4637 -0.1608
17793TIP3   OH274793   0.183   3.114  11.229 -0.1214 -0.0660 -0.3960
17793TIP3    H174794   0.168   3.202  11.263 -2.1954 -0.5994  0.2276
17793TIP3    H274795   0.115   3.061  11.270  0.7476 -1.8678 -1.1666
17794TIP3   OH274796   2.872   1.930   6.118 -0.2494 -0.0508  0.0544
17794TIP3    H174797   2.929   1.858   6.144 -0.6509 -0.5323 -0.3702
17794TIP3    H274798   2.802   1.888   6.068 -0.3434  0.6641 -0.4342
17795TIP3   OH274799   3.904   2.243  15.284  0.4044 -0.2132  0.0666
17795TIP3    H174800   3.838   2.281  15.341  0.0291 -0.0680 -0.4604
17795TIP3    H274801   3.952   2.182  15.340 -0.7857 -1.0325  0.2164
17796TIP3   OH274802   2.409   0.441   5.642  0.7809  0.0726 -0.7517
17796TIP3    H174803   2.345   0.510   5.660  0.3021 -0.0722 -1.8050
17796TIP3    H274804   2.490   0.488   5.622  0.8648  0.2757  0.0446
17797TIP3   OH274805   2.699   1.882  10.582  0.3318  0.5018 -0.0406
17797TIP3    H174806   2.704   1.794  10.619 -2.4098  1.2025  2.4112
17797TIP3    H274807   2.615   1.884  10.536  1.0635  1.4297 -1.4095
17798TIP3   OH274808   6.036   3.052   6.607  0.1879  0.3651 -0.1487
17798TIP3    H174809   6.080   2.998   6.542 -0.8151 -1.7290  0.8200
17798TIP3    H274810   5.957   3.084   6.563 -0.8609 -1.6260  0.1758
17799TIP3   OH274811   3.063   5.222  11.454  0.0157 -0.1287 -0.3827
17799TIP3    H174812   3.138   5.277  11.431 -0.6617  1.1571  0.4184
17799TIP3    H274813   3.057   5.227  11.549  0.1325 -1.8838 -0.2508
17800TIP3   OH274814   6.419   4.393   0.492 -0.1626 -0.6607 -0.2239
17800TIP3    H174815   6.480   4.319   0.486 -1.1156 -1.4099 -1.2191
17800TIP3    H274816   6.338   4.354   0.524 -0.5981  0.0138 -0.4978
17801TIP3   OH274817   4.980   1.759   5.870 -0.6430  0.2350  0.0440
17801TIP3    H174818   4.913   1.805   5.819 -1.0554  0.6425  0.9307
17801TIP3    H274819   4.949   1.669   5.875  0.6078 -0.4206 -2.4684
17802TIP3   OH274820   0.312   3.288   0.374  0.0762  0.5466  0.3762
17802TIP3    H174821   0.375   3.347   0.336  1.9978 -1.3971  0.3512
17802TIP3    H274822   0.320   3.301   0.469  0.8097  0.0603  0.3884
17803TIP3   OH274823   3.783   4.446   3.669  0.4575  0.5528  0.4816
17803TIP3    H174824   3.786   4.534   3.632 -1.0223  0.3583 -0.1420
17803TIP3    H274825   3.806   4.388   3.596 -0.5097  0.3004  0.3702
17804TIP3   OH274826   6.413   5.801   0.263 -0.2914 -0.2497 -0.1006
17804TIP3    H174827   6.474   5.753   0.207 -1.9180 -2.0546 -0.4574
17804TIP3    H274828   6.469   5.848   0.325  1.4990  0.3976 -2.1077
17805TIP3   OH274829   2.251   6.536  13.116 -0.5776  0.4660  0.0583
17805TIP3    H174830   2.281   6.556  13.205  0.4805 -0.7026 -0.0160
17805TIP3    H274831   2.178   6.475  13.129 -0.9680  0.9521  0.1490
17806TIP3   OH274832   0.842   6.671   2.698  0.3844  0.0708  0.0678
17806TIP3    H174833   0.840   6.624   2.782  0.3893  1.6672  0.9985
17806TIP3    H274834   0.932   6.663   2.668  0.3884 -0.4943  0.2230
17807TIP3   OH274835   0.536   5.172   2.823  0.1735  0.2190  0.3601
17807TIP3    H174836   0.525   5.162   2.918 -1.2875  1.0858  0.3117
17807TIP3    H274837   0.568   5.262   2.812  0.1995  0.1691  0.0226
17808TIP3   OH274838   3.193   0.566  14.188  0.5199  0.2160  0.5011
17808TIP3    H174839   3.136   0.496  14.221  0.0593  0.4188  0.1610
17808TIP3    H274840   3.168   0.643  14.238  0.3570  0.3492  0.2187
17809TIP3   OH274841   0.878   4.962   6.374  0.2538 -0.2787 -0.0880
17809TIP3    H174842   0.912   5.037   6.423 -0.2534  0.6577 -1.1115
17809TIP3    H274843   0.955   4.919   6.338  0.4788  0.8960 -1.0730
17810TIP3   OH274844   2.892   0.141   0.495 -0.3726  0.2932  0.1213
17810TIP3    H174845   2.891   0.123   0.589 -1.6173 -0.4575 -0.0076
17810TIP3    H274846   2.874   0.235   0.489 -1.7401  0.0851  0.6097
17811TIP3   OH274847   5.922   4.563  16.120 -0.0606 -0.0780 -0.2932
17811TIP3    H174848   5.919   4.618  16.041 -0.1124  0.3648  0.0135
17811TIP3    H274849   5.986   4.495  16.099  1.3836  1.1435 -0.0315
17812TIP3   OH274850   0.669   2.871  13.137 -0.6533 -0.6900 -0.4735
17812TIP3    H174851   0.692   2.812  13.209 -0.8252  0.3143  0.4368
17812TIP3    H274852   0.691   2.822  13.058  0.0576 -1.6204  0.2707
17813TIP3   OH274853   2.850   2.906   0.865  0.2689 -0.0127  0.0309
17813TIP3    H174854   2.847   2.907   0.770  0.6850  0.6870  0.0146
17813TIP3    H274855   2.833   2.815   0.889  0.9936 -0.3620 -0.7416
17814TIP3   OH274856   2.741   4.425  14.994 -0.0633  0.7535 -0.4740
17814TIP3    H174857   2.709   4.465  14.913 -0.8955  1.5376  0.2221
17814TIP3    H274858   2.695   4.342  14.999  0.4846  0.3967 -1.1249
17815TIP3   OH274859   2.440   5.267   6.599  0.2046 -0.0769 -0.4112
17815TIP3    H174860   2.480   5.347   6.634  1.7867 -0.3965 -1.3878
17815TIP3    H274861   2.380   5.298   6.531 -0.8072  0.3774  0.6574
17816TIP3   OH274862   5.954   6.292  11.968 -0.2537 -0.2166 -0.6351
17816TIP3    H174863   5.967   6.197  11.972 -0.0089 -0.2100 -1.1890
17816TIP3    H274864   5.859   6.303  11.978 -0.2268 -0.4825 -0.0474
17817TIP3   OH274865   4.681   2.278   0.097 -0.3627 -0.0407 -0.2074
17817TIP3    H174866   4.588   2.259   0.108 -0.0981 -0.5168  1.5111
17817TIP3    H274867   4.713   2.208   0.040 -0.7963 -0.7055  0.3474
17818TIP3   OH274868   0.028   2.554  16.603  0.0241 -0.0847 -0.4347
17818TIP3    H174869  -0.064   2.534  16.620 -0.1790 -0.1802 -1.5690
17818TIP3    H274870   0.028   2.647  16.579  0.5052  0.4477  1.4642
17819TIP3   OH274871   3.040   0.229   1.384  0.0116 -0.3980  0.6900
17819TIP3    H174872   3.049   0.276   1.302  1.9500 -0.3640  0.8862
17819TIP3    H274873   2.957   0.181   1.376  0.0446 -0.1825 -1.1538
17820TIP3   OH274874   3.845   4.382  16.824 -0.2318  0.1595 -0.2707
17820TIP3    H174875   3.829   4.297  16.784  0.1388  0.8218 -1.9180
17820TIP3    H274876   3.803   4.377  16.910 -0.5043 -1.5536 -0.4784
17821TIP3   OH274877   4.305   2.211  13.804  0.1769 -0.0382 -0.8684
17821TIP3    H174878   4.376   2.150  13.823  0.3035  0.6323  0.9694
17821TIP3    H274879   4.248   2.163  13.744 -0.9786 -2.9379  2.2452
17822TIP3   OH274880   3.464   0.998  14.405 -0.2162  0.5965  0.7382
17822TIP3    H174881   3.529   0.985  14.475 -0.6926  0.9734  1.2636
17822TIP3    H274882   3.506   0.965  14.326  0.1802 -0.2207  1.2818
17823TIP3   OH274883   0.445   4.563  16.473  0.4241  0.4416  0.4167
17823TIP3    H174884   0.401   4.512  16.406  0.0486  0.4433  0.6621
17823TIP3    H274885   0.499   4.499  16.520  2.0549  0.7107 -0.9730
17824TIP3   OH274886   3.356   6.664   2.875  0.6119 -0.1561 -0.1834
17824TIP3    H174887   3.360   6.573   2.906 -0.3575 -0.2773 -0.3715
17824TIP3    H274888   3.266   6.691   2.894  1.0926  1.0103  0.5432
17825TIP3   OH274889   1.184   0.056   5.625  0.1658 -0.1472 -0.6368
17825TIP3    H174890   1.092   0.063   5.649  0.3428 -1.9932  0.9196
17825TIP3    H274891   1.230   0.105   5.693  0.3516  0.4993 -1.2264
17826TIP3   OH274892   4.586   2.431   4.425 -0.4283  0.3509 -0.4027
17826TIP3    H174893   4.649   2.419   4.496 -1.6658  1.8985  1.0293
17826TIP3    H274894   4.621   2.504   4.373 -2.1466  3.0036  1.8804
17827TIP3   OH274895   2.641   0.595   1.812 -0.1678 -0.0871 -0.6006
17827TIP3    H174896   2.572   0.544   1.855  0.1523  0.2991  0.3893
17827TIP3    H274897   2.719   0.540   1.818  0.0320  0.2414 -0.0775
17828TIP3   OH274898   0.882   5.543   1.744 -0.1389 -0.2584 -0.2967
17828TIP3    H174899   0.887   5.447   1.743  2.0386 -0.2171  0.5579
17828TIP3    H274900   0.820   5.565   1.674 -0.1653 -2.2521 -0.9614
17829TIP3   OH274901   6.242   2.428  12.722  0.4409 -0.2243 -0.4984
17829TIP3    H174902   6.264   2.515  12.690  0.9194  1.1249  3.0401
17829TIP3    H274903   6.152   2.436  12.754  0.9865 -0.5005  1.2355
17830TIP3   OH274904   5.564   4.347  13.010 -0.0102 -0.0739 -0.0691
17830TIP3    H174905   5.541   4.316  12.922  0.4686 -0.7315  0.0404
17830TIP3    H274906   5.571   4.442  13.000  0.2117 -0.1609 -0.7821
17831TIP3   OH274907   2.278   4.591   1.083  0.7599  0.5238 -0.2648
17831TIP3    H174908   2.260   4.519   1.143  4.7172 -1.1614 -0.8188
17831TIP3    H274909   2.277   4.669   1.139  1.0246 -0.5584  1.3033
17832TIP3   OH274910   6.628   5.193   4.736  0.0658  0.4324 -0.4722
17832TIP3    H174911   6.712   5.197   4.690  0.2502 -1.6187 -0.3891
17832TIP3    H274912   6.647   5.143   4.815 -1.5419 -1.4944 -1.2349
17833TIP3   OH274913   0.914   4.041   2.224 -0.5660  0.1527  0.0982
17833TIP3    H174914   0.947   4.040   2.313  0.2743  1.4106 -0.1754
17833TIP3    H274915   0.972   3.982   2.176 -0.1507  0.5521  0.1040
17834TIP3   OH274916   0.463   6.170  15.296  0.1375  0.2774  0.5262
17834TIP3    H174917   0.419   6.248  15.263 -2.1432 -0.4966  1.5054
17834TIP3    H274918   0.529   6.202  15.357 -0.8227  1.4446  0.9747
17835TIP3   OH274919   2.561   2.884   3.608 -0.3028 -0.3312  0.3701
17835TIP3    H174920   2.516   2.849   3.684 -0.5925 -1.0393 -0.1083
17835TIP3    H274921   2.492   2.926   3.556 -0.4592 -1.4620 -0.3891
17836TIP3   OH274922   2.033   5.372   3.981  0.1765 -0.4317  0.5005
17836TIP3    H174923   2.112   5.381   3.928  1.7034  1.9971  2.9101
17836TIP3    H274924   2.056   5.309   4.049  0.5737  1.1527  1.9079
17837TIP3   OH274925   5.466   6.088  11.717  0.0861  0.3982  0.2956
17837TIP3    H174926   5.457   6.179  11.745  1.3137  0.3584  0.8500
17837TIP3    H274927   5.530   6.090  11.646  0.3581 -0.0837  0.5259
17838TIP3   OH274928   5.708   3.970  13.613 -0.4808  0.0302 -0.1782
17838TIP3    H174929   5.791   3.976  13.566 -0.6973 -1.7373 -0.8921
17838TIP3    H274930   5.667   4.055  13.600  0.0304  0.0362 -2.1781
17839TIP3   OH274931   6.069   1.607   3.969  0.0282 -0.2346 -0.0260
17839TIP3    H174932   6.154   1.645   3.993 -0.0143 -1.1993  1.8104
17839TIP3    H274933   6.017   1.682   3.941  1.1836  0.5039 -0.2730
17840TIP3   OH274934   5.083   0.567   5.877 -0.4257  0.1679  0.0777
17840TIP3    H174935   5.177   0.548   5.876 -0.1956  0.9885  1.9065
17840TIP3    H274936   5.044   0.493   5.925 -0.3450  1.0653  1.5890
17841TIP3   OH274937   5.251   5.363  11.679  0.8611 -0.2068  0.3343
17841TIP3    H174938   5.258   5.435  11.616 -0.5817 -1.9608 -1.9992
17841TIP3    H274939   5.172   5.382  11.729  0.0140 -0.5317 -0.8399
17842TIP3   OH274940   5.586   3.488  12.146 -0.4854 -0.2705 -0.2337
17842TIP3    H174941   5.631   3.525  12.070  0.8415  0.7438  0.9938
17842TIP3    H274942   5.620   3.398  12.153 -0.3508 -0.2499 -0.6327
17843TIP3   OH274943   6.662   2.622  15.336  0.4638 -0.4578  0.5572
17843TIP3    H174944   6.705   2.637  15.252  0.2074  0.1839  0.5328
17843TIP3    H274945   6.572   2.599  15.314  0.3436 -0.0940  0.6579
17844TIP3   OH274946   3.198   5.831  12.275 -0.1493 -0.5927 -0.2361
17844TIP3    H174947   3.269   5.860  12.219  0.6674 -0.7001  0.7047
17844TIP3    H274948   3.148   5.770  12.221  0.1944 -0.1574 -1.0626
17845TIP3   OH274949   1.016   5.178   4.532 -0.3640 -0.0641  0.0867
17845TIP3    H174950   1.036   5.140   4.447 -0.6763  1.0434 -0.5091
17845TIP3    H274951   1.102   5.195   4.572 -0.2152 -0.4310 -0.0814
17846TIP3   OH274952   1.591   6.507  17.050 -0.2554  0.0429 -0.0378
17846TIP3    H174953   1.663   6.467  17.000  0.5018 -1.0588  1.8396
17846TIP3    H274954   1.548   6.433  17.094 -1.7354  0.8396 -0.0813
17847TIP3   OH274955   1.478   6.090   0.555  0.2236  0.3354  0.2440
17847TIP3    H174956   1.389   6.089   0.588 -0.5438 -2.9076 -1.5131
17847TIP3    H274957   1.526   6.029   0.611 -0.0552 -1.9091 -1.7731
17848TIP3   OH274958   1.805   1.141  11.783 -0.0028  0.0141  0.3436
17848TIP3    H174959   1.718   1.177  11.766 -0.4624 -1.4961 -0.6780
17848TIP3    H274960   1.790   1.048  11.801  1.2483  0.0500  1.8043
17849TIP3   OH274961   5.240   2.477  16.743 -0.3927  0.0235  0.6438
17849TIP3    H174962   5.190   2.477  16.825 -3.7235  0.6899 -1.2026
17849TIP3    H274963   5.211   2.557  16.698  2.7145  0.6394 -0.4696
17850TIP3   OH274964   0.265   4.037   4.453  0.7407  0.6845  0.1012
17850TIP3    H174965   0.357   4.063   4.457  0.8836  0.0955  0.9648
17850TIP3    H274966   0.222   4.093   4.519  0.6057  0.4921  0.1774
17851TIP3   OH274967   4.709   2.414  14.300 -0.2148  0.1819 -0.4977
17851TIP3    H174968   4.636   2.358  14.273  0.8532 -1.5697  0.0283
17851TIP3    H274969   4.699   2.422  14.394 -0.5067  1.1295 -0.6039
17852TIP3   OH274970   5.477   2.341  16.796  0.1868 -0.4232 -0.7910
17852TIP3    H174971   5.527   2.364  16.718 -0.2750 -3.1290 -1.9995
17852TIP3    H274972   5.387   2.366  16.776 -0.1143 -2.0441 -1.6238
17853TIP3   OH274973   6.402   3.286  10.482 -0.3804 -0.1173 -0.0111
17853TIP3    H174974   6.452   3.366  10.495 -1.1508  0.6159 -1.3779
17853TIP3    H274975   6.417   3.263  10.390 -1.7272 -0.4484 -0.1648
17854TIP3   OH274976   5.305   3.211  11.507  0.3370  0.6454  0.6411
17854TIP3    H174977   5.376   3.224  11.444  0.9913 -0.8399  1.0201
17854TIP3    H274978   5.350   3.188  11.589 -0.5387 -2.0806  0.4628
17855TIP3   OH274979   3.036   6.474  13.973  0.1867 -0.1254 -0.1566
17855TIP3    H174980   3.041   6.462  14.068 -0.3595  1.3584  0.0842
17855TIP3    H274981   2.986   6.555  13.961  1.7578  0.7080 -1.6469
17856TIP3   OH274982   1.937   2.353   6.326  0.0124 -0.5040 -0.0595
17856TIP3    H174983   1.967   2.392   6.408  0.2116 -1.8900  0.5538
17856TIP3    H274984   2.010   2.297   6.299  0.7777  1.3961 -2.2467
17857TIP3   OH274985   2.106   5.923  11.549 -0.2639  0.0806 -0.2914
17857TIP3    H174986   2.031   5.864  11.539 -1.4284  1.2877  0.9304
17857TIP3    H274987   2.107   5.945  11.642  0.0499  2.0598 -0.7269
17858TIP3   OH274988   1.459   3.275   1.431  0.4675 -0.3163 -0.5053
17858TIP3    H174989   1.417   3.340   1.488  2.7753 -0.2997  1.2762
17858TIP3    H274990   1.394   3.260   1.362 -2.7868 -0.8015  2.3761
17859TIP3   OH274991   3.441   6.624  11.655  0.4419 -0.1757 -0.4682
17859TIP3    H174992   3.381   6.603  11.727 -0.5657  0.1765 -1.1696
17859TIP3    H274993   3.494   6.697  11.688  0.0174 -0.0444 -0.0664
17860TIP3   OH274994   3.550   3.062   3.611 -0.2545 -0.1618 -0.4885
17860TIP3    H174995   3.573   3.116   3.535  1.6393  1.5935  1.1875
17860TIP3    H274996   3.607   3.094   3.680 -1.0729 -2.5023  1.3846
17861TIP3   OH274997   3.207   1.766   6.007 -0.0383 -0.3330 -0.5097
17861TIP3    H174998   3.143   1.700   6.031 -0.2028  0.2211  0.6244
17861TIP3    H274999   3.196   1.776   5.912  0.5165 -2.4528 -0.8597
17862TIP3   OH275000   3.383   5.697   0.273  0.5550  0.3718  0.6408
17862TIP3    H175001   3.453   5.741   0.321  0.7729 -0.1325  0.7979
17862TIP3    H275002   3.323   5.667   0.342  0.2308  0.7183  0.5134
17863TIP3   OH275003   6.053   0.722  11.331  0.0838  0.3793 -0.0215
17863TIP3    H175004   6.139   0.744  11.295 -0.4157 -0.2181 -1.6821
17863TIP3    H275005   6.066   0.642  11.381  0.4825  0.2310 -0.3628
17864TIP3   OH275006   3.328   3.502   4.682  0.2036 -0.2286  0.1991
17864TIP3    H175007   3.261   3.470   4.743  0.7175 -0.4402  0.6713
17864TIP3    H275008   3.279   3.550   4.615 -0.2856  0.9556  1.3721
17865TIP3   OH275009   6.562   1.316  17.038 -0.6726  0.6597 -0.1574
17865TIP3    H175010   6.610   1.295  17.117 -1.2330 -0.5084 -0.1046
17865TIP3    H275011   6.594   1.254  16.973 -1.9427 -0.0210 -0.1702
17866TIP3   OH275012   5.283   4.731   3.636  0.3171 -0.1203  0.3657
17866TIP3    H175013   5.353   4.681   3.677  0.2156 -0.3509  0.2563
17866TIP3    H275014   5.328   4.793   3.579  0.4299 -0.3287  0.2259
17867TIP3   OH275015   6.029   5.242  13.384 -0.2172 -0.0785  0.2050
17867TIP3    H175016   5.991   5.301  13.449  1.3637 -0.1740  1.2566
17867TIP3    H275017   6.123   5.255  13.391  0.1444 -2.1875 -0.0462
17868TIP3   OH275018   2.326   5.428  13.755 -0.3633 -0.3372 -0.2358
17868TIP3    H175019   2.417   5.454  13.769  0.0531 -1.6060 -0.4609
17868TIP3    H275020   2.280   5.510  13.738  0.6896  0.3469  0.1170
17869TIP3   OH275021   6.795   3.971   5.778  0.4854  0.3602 -0.7261
17869TIP3    H175022   6.804   3.929   5.864 -1.4303  1.2800 -0.0186
17869TIP3    H275023   6.786   4.064   5.798 -1.1987  0.4634 -1.8157
17870TIP3   OH275024   2.000   5.312   4.830  0.3504 -0.4553 -0.0191
17870TIP3    H175025   1.933   5.253   4.795 -0.6793 -0.1373  1.3353
17870TIP3    H275026   1.950   5.382   4.873  1.5474  1.0566 -1.0075
17871TIP3   OH275027   6.506   1.818  12.206 -0.8952 -0.0262  0.3901
17871TIP3    H175028   6.426   1.870  12.193 -0.6866  0.2730  0.2807
17871TIP3    H275029   6.577   1.883  12.204 -0.6646 -0.2685  0.6655
17872TIP3   OH275030   1.776   6.459  12.189 -0.0417 -0.7351 -0.1986
17872TIP3    H175031   1.856   6.511  12.194  0.1864 -0.9788 -1.0642
17872TIP3    H275032   1.707   6.518  12.218  0.1395  0.2402 -1.6149
17873TIP3   OH275033   5.546   2.186  12.928 -0.2331  0.0644  0.0723
17873TIP3    H175034   5.602   2.191  13.005  0.5447  2.1801 -0.5595
17873TIP3    H275035   5.592   2.125  12.869 -0.7406 -1.4123  1.1317
17874TIP3   OH275036   4.244   6.101  14.950  0.6774  0.0907  0.2314
17874TIP3    H175037   4.300   6.067  15.020  0.3538  2.9899  2.0718
17874TIP3    H275038   4.294   6.085  14.870  2.1924 -1.1575  1.3553
17875TIP3   OH275039   3.477   0.998   4.414  0.0500 -0.3171 -0.0743
17875TIP3    H175040   3.474   0.945   4.493  0.0460  1.5410  1.2303
17875TIP3    H275041   3.570   1.009   4.395  0.0724 -0.0688  0.1724
17876TIP3   OH275042   1.396   1.261   3.978 -0.0676 -0.4103  0.0913
17876TIP3    H175043   1.482   1.246   4.020  0.1624 -1.7052 -0.7804
17876TIP3    H275044   1.412   1.245   3.885 -1.2446 -0.6390 -0.0865
17877TIP3   OH275045   4.404   0.465   2.214 -0.2155  0.2360  0.2431
17877TIP3    H175046   4.319   0.441   2.176 -0.5796 -1.5433  2.0042
17877TIP3    H275047   4.420   0.554   2.183 -3.1977  1.0268  0.6349
17878TIP3   OH275048   1.711   0.008   2.332 -0.0761 -0.5670  0.2803
17878TIP3    H175049   1.730   0.077   2.396 -1.0758  1.5094 -1.5455
17878TIP3    H275050   1.769   0.027   2.258  0.0900 -2.1166 -0.0249
17879TIP3   OH275051   5.205   1.110   3.675 -0.2353  0.0815  0.0403
17879TIP3    H175052   5.268   1.178   3.700  1.3330 -1.7012  1.2427
17879TIP3    H275053   5.232   1.034   3.726 -0.5655 -2.1048 -2.8288
17880TIP3   OH275054   5.164   1.070  16.528 -0.1105 -0.6650  0.3672
17880TIP3    H175055   5.072   1.095  16.527 -0.4897 -1.9328  0.9042
17880TIP3    H275056   5.183   1.054  16.621  0.4422 -1.1120  0.1835
17881TIP3   OH275057   2.696   3.948   4.171  0.4132  0.1533  0.3146
17881TIP3    H175058   2.726   3.860   4.150  0.6502  0.1104  0.8087
17881TIP3    H275059   2.620   3.934   4.228  0.2911  0.2662  0.1789
17882TIP3   OH275060   5.557   1.237  14.126 -0.2746 -0.4627 -0.2973
17882TIP3    H175061   5.480   1.245  14.182  0.7355 -1.9304  1.4016
17882TIP3    H275062   5.613   1.174  14.171  2.8800  2.0333 -0.3122
17883TIP3   OH275063   6.076   0.389   1.079 -0.2415  0.5129  0.2363
17883TIP3    H175064   6.079   0.343   1.163 -0.1719  2.3831  1.3344
17883TIP3    H275065   5.983   0.401   1.061 -0.2511  0.5278  0.2960
17884TIP3   OH275066   4.032   1.199   0.508 -0.4312  0.2910 -0.2541
17884TIP3    H175067   4.008   1.290   0.523  0.2644  0.6248 -1.0835
17884TIP3    H275068   4.100   1.180   0.573 -2.2943 -0.4253  1.5899
17885TIP3   OH275069   3.597   6.542   1.267 -0.5339  1.0471 -0.4496
17885TIP3    H175070   3.650   6.609   1.309  1.5482 -1.9380  2.1997
17885TIP3    H275071   3.516   6.539   1.318 -0.1207  0.8027  0.2072
17886TIP3   OH275072   1.585   4.869  14.020 -0.4066 -0.0969 -0.0787
17886TIP3    H175073   1.605   4.956  13.985 -0.0979 -0.0848  0.1272
17886TIP3    H275074   1.623   4.869  14.108  0.5191 -0.8134 -0.4663
17887TIP3   OH275075   2.479   4.413  15.536 -1.4765 -0.2371  0.2550
17887TIP3    H175076   2.440   4.372  15.613 -0.8481 -0.4595  0.4648
17887TIP3    H275077   2.473   4.507  15.554 -0.2852 -0.2977  1.1334
17888TIP3   OH275078   4.692   1.577   1.168 -0.2157 -0.7102  1.3528
17888TIP3    H175079   4.634   1.572   1.091  1.1964 -1.4449  0.2957
17888TIP3    H275080   4.683   1.491   1.210 -0.7194 -0.4320  1.8264
17889TIP3   OH275081   1.330   5.082   0.145 -0.2216  0.2855  0.0233
17889TIP3    H175082   1.390   5.036   0.086  1.0862  0.6462  1.0312
17889TIP3    H275083   1.387   5.131   0.204 -1.5193  0.6459  1.0215
17890TIP3   OH275084   4.232   2.181  14.271  0.7079  0.1789  0.1194
17890TIP3    H175085   4.193   2.235  14.203  1.6722 -0.3694 -0.9068
17890TIP3    H275086   4.294   2.239  14.316  0.5350  0.3709  0.1101
17891TIP3   OH275087   2.462   4.272   3.330  0.8732  0.0999  0.2086
17891TIP3    H175088   2.410   4.193   3.334 -0.8852  1.2484  0.8723
17891TIP3    H275089   2.500   4.282   3.417  0.5237  0.3605  0.3311
17892TIP3   OH275090   2.126   6.278  13.674 -0.3517  0.2042  0.4842
17892TIP3    H175091   2.157   6.300  13.762  1.6153  0.5457 -0.2448
17892TIP3    H275092   2.114   6.183  13.676 -1.2018  0.3176  1.3637
17893TIP3   OH275093   1.472   1.480   0.180  0.5988 -0.1121 -0.0794
17893TIP3    H175094   1.519   1.559   0.205  0.5458  0.4734 -1.6926
17893TIP3    H275095   1.449   1.437   0.263  1.7535  0.8889  0.7820
17894TIP3   OH275096   2.496   5.183  12.685 -0.1067 -0.3576  0.0049
17894TIP3    H175097   2.438   5.200  12.611  0.6425  0.0597 -0.4914
17894TIP3    H275098   2.536   5.268  12.704  0.0625 -0.5648  0.5883
17895TIP3   OH275099   1.846   3.835   3.694  0.0800 -0.0853  0.8357
17895TIP3    H175100   1.793   3.758   3.670  0.9810 -1.1951  2.2284
17895TIP3    H275101   1.795   3.910   3.662 -1.2774 -1.2104  0.2383
17896TIP3   OH275102   4.999   6.029   3.647 -0.5791  0.2011  0.1195
17896TIP3    H175103   4.989   5.935   3.663 -0.7698  0.0434 -0.8857
17896TIP3    H275104   4.912   6.064   3.666 -0.7961  0.0183 -0.5055
17897TIP3   OH275105   3.505   4.825   4.411  0.1856 -0.6762  0.2793
17897TIP3    H175106   3.592   4.792   4.391  0.4248 -0.0915  0.3450
17897TIP3    H275107   3.465   4.756   4.464  1.0318 -0.4489  1.2478
17898TIP3   OH275108   3.825   4.655  15.639 -0.1291  0.4563  0.2439
17898TIP3    H175109   3.861   4.626  15.723 -0.8511  0.6185  0.6122
17898TIP3    H275110   3.783   4.738  15.658  0.2172  0.7933 -0.4079
17899TIP3   OH275111   6.790   0.369   4.599 -0.0907 -0.1706 -0.0033
17899TIP3    H175112   6.877   0.408   4.612  0.5413 -1.2989 -0.6365
17899TIP3    H275113   6.733   0.416   4.660  0.8393  1.0068 -0.0074
17900TIP3   OH275114   1.776   4.628  11.963  0.4268 -0.6465  0.1686
17900TIP3    H175115   1.759   4.534  11.968  1.2527 -0.9442 -1.8557
17900TIP3    H275116   1.690   4.669  11.972  0.0219 -1.5913  0.7540
17901TIP3   OH275117   3.910   3.903  11.295 -0.1744  0.2408 -0.0938
17901TIP3    H175118   3.936   3.822  11.338  1.1570  0.7679  0.1399
17901TIP3    H275119   3.899   3.966  11.366 -0.1177  0.5536 -0.3612
17902TIP3   OH275120   6.671   6.156  16.720 -0.4962  0.4618 -0.9483
17902TIP3    H175121   6.606   6.176  16.787  0.7199  0.5922  0.2338
17902TIP3    H275122   6.755   6.159  16.766  0.3827  0.5912 -2.4944
17903TIP3   OH275123   1.709   5.679  15.502  0.1762  0.4704  0.0646
17903TIP3    H175124   1.622   5.694  15.464  0.1426 -1.5841 -0.7905
17903TIP3    H275125   1.692   5.627  15.581  0.6306 -0.1346 -0.2293
17904TIP3   OH275126   3.170   4.659  15.966  0.0016 -0.2476  0.0011
17904TIP3    H175127   3.137   4.578  15.929  0.4258  0.2585 -1.5708
17904TIP3    H275128   3.115   4.727  15.928  0.9530  0.3592 -0.3294
17905TIP3   OH275129   0.250   4.629   1.389  0.2494 -0.1956  0.1267
17905TIP3    H175130   0.333   4.673   1.370  1.4900 -2.5591 -0.2987
17905TIP3    H275131   0.257   4.604   1.481  0.5008 -1.3077 -0.1775
17906TIP3   OH275132   6.021   3.514   2.427  0.1871 -0.2601 -0.2283
17906TIP3    H175133   6.025   3.422   2.401 -0.9419  0.1924 -2.1654
17906TIP3    H275134   6.013   3.511   2.522 -4.1888 -2.4330 -0.3852
17907TIP3   OH275135   3.364   0.101   0.046 -0.1699 -0.0000  0.0136
17907TIP3    H175136   3.416   0.089   0.125 -0.5189  0.7338  0.3688
17907TIP3    H275137   3.412   0.167  -0.004 -1.8861  2.5015  1.4352
17908TIP3   OH275138   4.324   5.668  16.826 -0.9695  0.4305 -0.3539
17908TIP3    H175139   4.352   5.751  16.866 -2.1766 -0.4728  2.6139
17908TIP3    H275140   4.404   5.617  16.819 -0.8693 -0.0879  2.9315
17909TIP3   OH275141   2.424   1.786  13.975 -0.2964 -0.2841 -0.3497
17909TIP3    H175142   2.468   1.846  14.035 -1.0841 -0.0901  0.0508
17909TIP3    H275143   2.346   1.758  14.022 -1.2237  0.2988 -1.4996
17910TIP3   OH275144   5.464   6.732  12.018  0.0231  0.1237 -0.4862
17910TIP3    H175145   5.417   6.778  11.948  2.4045  2.1752 -0.9070
17910TIP3    H275146   5.554   6.728  11.987  0.4479 -2.4733  0.8351
17911TIP3   OH275147   5.369   4.871   4.085  0.2209 -0.6759 -0.0809
17911TIP3    H175148   5.279   4.894   4.109 -0.1237 -0.1416 -1.7516
17911TIP3    H275149   5.410   4.844   4.168 -1.1406  0.1580  0.9127
17912TIP3   OH275150   1.252   1.448   4.315  0.1536 -0.0796  0.3185
17912TIP3    H175151   1.209   1.367   4.287 -2.1082  0.9517  0.5674
17912TIP3    H275152   1.238   1.509   4.242  1.0171  0.3764  0.5179
17913TIP3   OH275153   1.754   6.007  15.521  0.0981  0.1039 -0.2809
17913TIP3    H175154   1.795   6.087  15.488  0.7954 -0.1847 -0.1283
17913TIP3    H275155   1.664   6.010  15.487 -0.1341  1.3415  0.3974
17914TIP3   OH275156   4.675   4.269  14.966 -0.2979  0.1956  0.0012
17914TIP3    H175157   4.585   4.269  14.932 -0.2141  0.4011 -0.2231
17914TIP3    H275158   4.664   4.269  15.061 -0.5400 -1.7380  0.0177
17915TIP3   OH275159   0.116   4.671   2.656  0.2734  0.3676  0.5251
17915TIP3    H175160   0.208   4.679   2.628 -0.3934  0.2173 -1.9215
17915TIP3    H275161   0.074   4.749   2.622 -0.5214  0.5445  1.8286
17916TIP3   OH275162   5.718   5.597  12.368 -0.1119  0.4495 -0.5921
17916TIP3    H175163   5.653   5.635  12.428  0.8153  0.4905  0.4090
17916TIP3    H275164   5.716   5.503  12.387  0.0076  0.4299 -0.6792
17917TIP3   OH275165   0.210   6.714  16.415  0.3094 -0.5294 -0.2506
17917TIP3    H175166   0.169   6.651  16.355  1.1499 -0.6446 -0.7225
17917TIP3    H275167   0.192   6.679  16.502  1.5995 -2.0041 -0.5190
17918TIP3   OH275168   3.330   1.462   4.720 -0.1198 -0.3029  0.0902
17918TIP3    H175169   3.410   1.476   4.771  1.8283  0.2088 -2.8790
17918TIP3    H275170   3.285   1.546   4.723  0.4621  0.0123  0.1831
17919TIP3   OH275171   4.644   3.531  13.290  0.3769  0.2924 -0.0041
17919TIP3    H175172   4.716   3.562  13.345 -0.2368  3.5509 -0.8156
17919TIP3    H275173   4.565   3.565  13.333 -0.4662 -0.9607 -0.5324
17920TIP3   OH275174   5.829   4.622   4.022  0.7265 -0.5171  0.1046
17920TIP3    H175175   5.921   4.635   4.000  0.5167 -0.1783 -0.5943
17920TIP3    H275176   5.785   4.611   3.938 -0.0904  0.8554  0.3154
17921TIP3   OH275177   1.685   4.445  16.938  0.1495  0.3396  0.2528
17921TIP3    H175178   1.720   4.514  16.994  0.1199 -0.0200  0.7209
17921TIP3    H275179   1.744   4.371  16.952  0.7821  0.5815 -1.0228
17922TIP3   OH275180   2.118   1.326  12.004  0.4895  0.3726  0.3509
17922TIP3    H175181   2.127   1.310  11.910 -0.1575 -0.4442  0.4286
17922TIP3    H275182   2.208   1.341  12.034  0.8282 -0.5141 -0.1913
17923TIP3   OH275183   0.740   1.058   0.668 -0.2440 -0.2609 -0.3499
17923TIP3    H175184   0.664   1.003   0.686 -0.9536  0.5023 -0.9548
17923TIP3    H275185   0.760   1.042   0.576  0.5380 -0.6935 -0.1177
17924TIP3   OH275186   4.894   4.787   4.961 -0.2295  0.8074 -0.2263
17924TIP3    H175187   4.936   4.868   4.993 -1.2451  0.8123  1.1618
17924TIP3    H275188   4.909   4.789   4.867  0.9209  1.9508 -0.0548
17925TIP3   OH275189   1.631   3.255   4.178 -0.2148 -0.1595  0.3749
17925TIP3    H175190   1.582   3.243   4.096 -0.4407 -0.1146  0.5022
17925TIP3    H275191   1.721   3.272   4.150 -0.5029  1.0073  0.0941
17926TIP3   OH275192   0.818   2.855  16.033  0.5621 -0.3865  0.2979
17926TIP3    H175193   0.733   2.897  16.017  0.8609  0.2145  0.2754
17926TIP3    H275194   0.805   2.807  16.115  0.5445  0.6706  0.9368
17927TIP3   OH275195   4.671   0.803   4.373  0.4203  0.2949  0.1606
17927TIP3    H175196   4.714   0.871   4.424 -0.1281  0.6741  0.1289
17927TIP3    H275197   4.611   0.851   4.315  2.4480  0.0561 -2.3089
17928TIP3   OH275198   6.524   0.304   4.953  0.3389 -0.3802 -0.3689
17928TIP3    H175199   6.521   0.284   5.046 -0.5935 -1.5683 -0.6341
17928TIP3    H275200   6.610   0.274   4.925  1.0345  0.9161  0.2843
17929TIP3   OH275201   0.185   0.379   1.935 -0.2340 -0.5144  0.4079
17929TIP3    H175202   0.227   0.294   1.931 -0.5384 -0.6178 -1.1821
17929TIP3    H275203   0.097   0.361   1.969 -0.4028 -0.8899 -0.2119
17930TIP3   OH275204   5.500   5.715   1.703  0.3518  0.1500 -0.3138
17930TIP3    H175205   5.588   5.741   1.730 -0.0396  0.4358  0.7332
17930TIP3    H275206   5.500   5.726   1.608  0.8088  2.1068 -0.1330
17931TIP3   OH275207   2.614   0.559   5.200 -0.4369 -0.6329 -0.6795
17931TIP3    H175208   2.646   0.566   5.110 -1.4136 -1.9327 -1.1499
17931TIP3    H275209   2.689   0.586   5.254 -0.6648  3.0156 -1.8857
17932TIP3   OH275210   4.932   6.500  13.854  0.1055 -0.0702  0.3321
17932TIP3    H175211   4.969   6.412  13.860  0.4441  0.1450  1.9795
17932TIP3    H275212   4.854   6.490  13.800  0.3760 -1.3064  0.1496
17933TIP3   OH275213   2.173   0.919   4.982  0.1747  0.1063 -0.1366
17933TIP3    H175214   2.218   0.942   5.063  1.8217 -1.1128 -0.6388
17933TIP3    H275215   2.239   0.934   4.914 -0.2947 -1.3681 -0.9499
17934TIP3   OH275216   3.821   6.666  13.747  0.6251 -0.3122 -0.3504
17934TIP3    H175217   3.851   6.662  13.838  0.0355 -2.6744 -0.1818
17934TIP3    H275218   3.727   6.683  13.754  0.9882  2.1421 -0.6788
17935TIP3   OH275219   6.345   2.026   0.471  0.4315 -0.2522 -0.1911
17935TIP3    H175220   6.411   1.958   0.459  0.8973 -0.0288  0.9487
17935TIP3    H275221   6.384   2.104   0.432  1.5235  0.2423  1.7588
17936TIP3   OH275222   2.609   1.856   1.910  0.1361 -0.1449 -0.5513
17936TIP3    H175223   2.541   1.814   1.962  1.4280 -0.6011  0.8334
17936TIP3    H275224   2.664   1.783   1.879  0.0238  0.2112 -1.6438
17937TIP3   OH275225   0.636   4.795  10.845 -0.1295  0.0064 -0.0517
17937TIP3    H175226   0.577   4.844  10.903 -1.3106 -3.5230  2.0881
17937TIP3    H275227   0.581   4.773  10.770 -0.1410  0.4349 -0.1740
17938TIP3   OH275228   5.854   1.755  11.755  0.1399 -0.3820  0.2927
17938TIP3    H175229   5.820   1.819  11.691  2.3844  0.5984 -0.0314
17938TIP3    H275230   5.874   1.678  11.702  0.1350 -0.2919  0.1558
17939TIP3   OH275231   3.398   5.666  16.466  0.3678 -0.1050  0.1966
17939TIP3    H175232   3.398   5.575  16.436 -0.6793  0.4911 -1.7750
17939TIP3    H275233   3.478   5.703  16.431  0.0124  0.1316 -0.3799
17940TIP3   OH275234   1.609   0.235  14.064  0.4066 -0.5710  0.1366
17940TIP3    H175235   1.695   0.262  14.095  0.7880  3.1688 -3.2632
17940TIP3    H275236   1.548   0.297  14.104  0.2116  0.6884 -1.9562
17941TIP3   OH275237   0.856   6.119   4.946 -0.0581  0.2397  0.1222
17941TIP3    H175238   0.881   6.211   4.960 -0.5018  0.4501 -0.3989
17941TIP3    H275239   0.889   6.098   4.859  0.0100 -0.0813  0.2274
17942TIP3   OH275240   4.599   3.728   5.131  0.4171 -0.3744 -0.2541
17942TIP3    H175241   4.528   3.664   5.120  0.7646 -0.7178 -0.5163
17942TIP3    H275242   4.556   3.805   5.168  0.1224 -1.0301  0.8231
17943TIP3   OH275243   3.628   2.830   3.392  0.4963  0.1163  0.2765
17943TIP3    H175244   3.557   2.881   3.352 -0.3906 -0.8374  0.5771
17943TIP3    H275245   3.652   2.766   3.326  1.2866  0.6125  0.0723
17944TIP3   OH275246   3.866   0.876   3.521  0.1219 -0.1848 -0.2415
17944TIP3    H175247   3.847   0.782   3.518 -0.4293 -0.0860 -0.0668
17944TIP3    H275248   3.859   0.898   3.614 -0.0383  0.0859 -0.3173
17945TIP3   OH275249   6.334   4.976   0.332 -0.3448  0.4249 -0.2102
17945TIP3    H175250   6.335   5.017   0.418  1.5396  1.7547 -0.8300
17945TIP3    H275251   6.244   4.943   0.323 -0.2201 -1.1099  2.8439
17946TIP3   OH275252   0.743   0.770  16.210  0.2061 -0.4016  0.1487
17946TIP3    H175253   0.711   0.744  16.123 -0.6785  0.8427  0.0693
17946TIP3    H275254   0.836   0.789  16.196  0.3060 -1.1586 -0.2945
17947TIP3   OH275255   6.460   6.003  14.355 -0.2552  0.3098 -0.2790
17947TIP3    H175256   6.398   5.964  14.294  1.0839 -1.7230 -0.4060
17947TIP3    H275257   6.405   6.043  14.422 -1.7124  0.2324 -1.3836
17948TIP3   OH275258   4.779   5.064   2.459 -0.7357  1.2085  0.3866
17948TIP3    H175259   4.778   5.160   2.451  3.4760  1.4170  0.5142
17948TIP3    H275260   4.833   5.035   2.386 -0.6656 -0.9477  1.2433
17949TIP3   OH275261   6.283   0.988   4.392 -0.5671  0.8133  0.2106
17949TIP3    H175262   6.212   0.927   4.370 -1.7791  1.9165  0.9589
17949TIP3    H275263   6.266   1.012   4.483  1.1180  0.6542  0.5853
17950TIP3   OH275264   5.805   1.445  14.517 -0.2199 -0.0682  0.1957
17950TIP3    H175265   5.724   1.411  14.478 -1.8801  2.1827  1.4470
17950TIP3    H275266   5.799   1.422  14.610  1.1050 -0.7131  0.1509
17951TIP3   OH275267   4.432   3.017  12.037  0.7605 -0.4342 -0.2822
17951TIP3    H175268   4.401   3.107  12.026 -0.6172 -0.8603 -0.0882
17951TIP3    H275269   4.524   3.020  12.011  1.2064  1.3721  1.2860
17952TIP3   OH275270   1.601   4.692   4.930  0.0904  0.1977  0.2638
17952TIP3    H175271   1.552   4.653   5.002 -0.2414  3.1930  1.8363
17952TIP3    H275272   1.688   4.708   4.966 -0.1728  2.0251  0.2011
17953TIP3   OH275273   3.043   5.745  14.564  0.3675  0.2912  0.5758
17953TIP3    H175274   3.028   5.831  14.526  0.7674  0.8600  1.6751
17953TIP3    H275275   3.135   5.746  14.591  0.1925 -0.2388  1.2146
17954TIP3   OH275276   2.439   0.446  10.613  0.1229  0.0622  0.0485
17954TIP3    H175277   2.456   0.516  10.549 -0.5588  0.8338  0.6939
17954TIP3    H275278   2.383   0.487  10.679  1.0184 -0.6518  1.2882
17955TIP3   OH275279   5.756   6.112  16.146 -0.6141 -0.9848  0.5312
17955TIP3    H175280   5.814   6.042  16.117  1.8999  1.0534  0.1813
17955TIP3    H275281   5.727   6.085  16.233 -1.2768 -3.2657 -0.3424
17956TIP3   OH275282   3.006   1.196  12.018  0.3533  0.4658 -0.2173
17956TIP3    H175283   2.997   1.276  12.069 -0.4713  0.2654 -0.0376
17956TIP3    H275284   3.101   1.180  12.015  0.6169  1.9999 -1.1264
17957TIP3   OH275285   6.612   1.325   2.167  0.5524 -0.1812 -0.0923
17957TIP3    H175286   6.529   1.372   2.159  0.2393 -0.5707  0.7657
17957TIP3    H275287   6.590   1.233   2.149  1.2364  0.0093 -2.1900
17958TIP3   OH275288   1.227   5.794   4.583  0.0652  0.5301  0.1564
17958TIP3    H175289   1.263   5.879   4.557 -0.0606  0.6133  0.2524
17958TIP3    H275290   1.292   5.730   4.554  0.9912  0.7632  1.5928
17959TIP3   OH275291   1.824   2.377   3.359  0.4805  0.5259  0.3003
17959TIP3    H175292   1.772   2.307   3.398  0.1645  0.6075  0.0332
17959TIP3    H275293   1.873   2.335   3.288  0.0205  0.6416 -0.0901
17960TIP3   OH275294   0.807   3.842  16.561 -0.3633  0.3952 -0.0307
17960TIP3    H175295   0.819   3.810  16.471  0.5518 -3.4450  1.2643
17960TIP3    H275296   0.892   3.878  16.585 -0.8341  2.1961 -0.8609
17961TIP3   OH275297   0.747   5.740  11.722  0.0801 -0.2543  0.2999
17961TIP3    H175298   0.791   5.695  11.650  0.1162  0.6218 -0.2431
17961TIP3    H275299   0.812   5.743  11.792  0.8267  0.7782 -0.3944
17962TIP3   OH275300   6.616   0.904  15.624 -0.5151 -0.2280  0.3555
17962TIP3    H175301   6.540   0.857  15.590 -0.4952  0.3152 -0.4727
17962TIP3    H275302   6.596   0.920  15.716 -1.1161 -0.6440  0.3007
17963TIP3   OH275303   2.485   6.046   3.404 -0.0752 -0.2799  0.4872
17963TIP3    H175304   2.423   5.989   3.449 -0.5873 -0.4723 -0.4190
17963TIP3    H275305   2.432   6.090   3.337 -0.1406  2.7641  2.3637
17964TIP3   OH275306   0.876   1.308   4.903 -0.3677 -0.4845  0.2057
17964TIP3    H175307   0.854   1.327   4.995 -0.3100 -0.7090  0.2656
17964TIP3    H275308   0.965   1.342   4.893 -0.4685 -0.2261  0.1599
17965TIP3   OH275309   1.362   4.077   2.577 -0.2385 -0.3010  0.5452
17965TIP3    H175310   1.391   4.056   2.666 -1.1379  1.2500  1.2471
17965TIP3    H275311   1.303   4.006   2.553  1.7394 -1.9349  0.2443
17966TIP3   OH275312   0.835   4.882   3.012  0.4343  0.3614  0.6230
17966TIP3    H175313   0.777   4.869   2.936 -1.5195 -1.3370  2.2708
17966TIP3    H275314   0.775   4.896   3.085  2.2267  0.8574  2.0544
17967TIP3   OH275315   3.739   5.305  10.946 -0.3346  0.7175 -0.1433
17967TIP3    H175316   3.828   5.304  10.982 -0.3587  0.8734 -0.0770
17967TIP3    H275317   3.735   5.228  10.890  0.8483  2.3077 -2.5922
17968TIP3   OH275318   2.487   3.150  11.067 -0.5886 -0.2800 -0.1281
17968TIP3    H175319   2.539   3.148  11.147 -0.3240 -0.3443 -0.2999
17968TIP3    H275320   2.444   3.064  11.064 -0.6988 -0.2296  0.0094
17969TIP3   OH275321   0.862   4.482  16.006 -0.1317 -0.4059 -0.6622
17969TIP3    H175322   0.828   4.419  15.942 -0.0459 -0.5501 -0.5669
17969TIP3    H275323   0.849   4.440  16.091 -1.4821  0.3529 -0.4661
17970TIP3   OH275324   4.580   1.423   5.443  0.2120 -0.4936 -0.1008
17970TIP3    H175325   4.600   1.419   5.537 -0.0163 -2.4075 -0.0898
17970TIP3    H275326   4.485   1.438   5.440  0.3954  0.7519 -0.0593
17971TIP3   OH275327   5.775   6.209  15.615  0.1606 -0.5238 -0.4674
17971TIP3    H175328   5.773   6.270  15.689  0.7499  0.2917 -1.1179
17971TIP3    H275329   5.784   6.123  15.656 -0.5118 -0.1784  0.4532
17972TIP3   OH275330   3.248   5.801   4.079  0.0425 -0.5149 -0.3322
17972TIP3    H175331   3.328   5.818   4.028 -0.6071 -1.0824 -1.5928
17972TIP3    H275332   3.280   5.777   4.166  1.1733  1.2644 -0.1929
17973TIP3   OH275333   6.184   6.427   1.270 -0.2396 -0.5520  0.1628
17973TIP3    H175334   6.264   6.419   1.219  0.5577  2.3907  0.7855
17973TIP3    H275335   6.117   6.384   1.216  1.6686 -3.2790 -0.2830
17974TIP3   OH275336   0.364   3.042  15.010 -0.2388 -0.2548  0.2459
17974TIP3    H175337   0.354   2.978  14.939  0.9396 -0.1537 -0.0267
17974TIP3    H275338   0.431   3.005  15.066 -0.1955  0.3234  0.5775
17975TIP3   OH275339   4.966   6.054  15.797 -0.0970 -0.4932  0.0048
17975TIP3    H175340   5.037   6.006  15.753  0.2919  0.3227 -0.2854
17975TIP3    H275341   4.995   6.061  15.888  1.9770  2.8544 -0.7274
17976TIP3   OH275342   3.103   0.663  11.427 -0.3472  0.1782  0.1456
17976TIP3    H175343   3.127   0.719  11.353  0.6752 -1.0477 -0.4942
17976TIP3    H275344   3.050   0.593  11.388  0.3299 -0.5655  0.5234
17977TIP3   OH275345   0.321   4.604   5.605  0.0716 -0.1986  0.4229
17977TIP3    H175346   0.338   4.517   5.642 -0.3130  0.3940  2.1013
17977TIP3    H275347   0.256   4.642   5.664  0.7753  1.5050  0.1472
17978TIP3   OH275348   5.504   1.814   1.634 -0.2487 -0.0274  0.0796
17978TIP3    H175349   5.584   1.843   1.590 -0.9429  2.3572  0.2451
17978TIP3    H275350   5.433   1.837   1.574 -1.2051  3.1133  2.1358
17979TIP3   OH275351   5.757   3.576   4.330 -0.4697  0.1973  0.4560
17979TIP3    H175352   5.715   3.662   4.319 -1.7645 -0.5845 -1.0889
17979TIP3    H275353   5.830   3.578   4.268  1.4078  1.2523  2.5692
17980TIP3   OH275354   4.583   2.898   4.255  0.5059 -0.2552 -0.4322
17980TIP3    H175355   4.494   2.885   4.285  0.4633 -0.6053 -0.6978
17980TIP3    H275356   4.602   2.990   4.272 -0.0661 -0.0708 -0.8126
17981TIP3   OH275357   3.991   3.749   2.679 -0.2914  0.5161  0.3701
17981TIP3    H175358   4.087   3.745   2.676 -0.2981 -0.0668  0.7138
17981TIP3    H275359   3.964   3.657   2.678 -0.8356  0.6749  0.5506
17982TIP3   OH275360   2.242   1.467  11.306  0.1015 -0.1785  0.0416
17982TIP3    H175361   2.292   1.417  11.370  0.5840 -0.8596 -0.8513
17982TIP3    H275362   2.152   1.463  11.337  0.2622 -0.8986  0.4250
17983TIP3   OH275363   2.528   1.604  12.736 -0.1194 -0.0948  0.3722
17983TIP3    H175364   2.505   1.514  12.715 -1.6510  0.7043 -1.7763
17983TIP3    H275365   2.482   1.657  12.670 -0.8313  2.3908  2.6659
17984TIP3   OH275366   4.705   4.435   4.060  0.8988 -0.1855 -0.2935
17984TIP3    H175367   4.770   4.382   4.107 -0.2085  0.0394  1.6189
17984TIP3    H275368   4.704   4.518   4.108 -0.3776  0.0100 -0.6275
17985TIP3   OH275369   4.286   3.427   1.275 -0.2214  0.0869  0.1119
17985TIP3    H175370   4.352   3.489   1.308  0.4499  0.8273 -2.4062
17985TIP3    H275371   4.337   3.352   1.244 -0.0267  1.7695 -4.3987
17986TIP3   OH275372   5.607   5.193   1.356 -0.3670  0.3058 -0.1886
17986TIP3    H175373   5.600   5.249   1.278  0.8568 -0.2365 -0.7173
17986TIP3    H275374   5.644   5.250   1.423  2.4911 -0.2064 -1.1961
17987TIP3   OH275375   4.684   2.184   3.659 -0.1656  0.2071  0.5571
17987TIP3    H175376   4.752   2.158   3.722 -0.8958 -2.4059  0.4000
17987TIP3    H275377   4.677   2.109   3.600 -1.8070  1.2555 -0.6616
17988TIP3   OH275378   6.149   5.555   0.843  0.2804  0.1580 -0.5781
17988TIP3    H175379   6.207   5.597   0.779  0.2350  0.5761 -0.3481
17988TIP3    H275380   6.181   5.585   0.928  1.9120 -2.2807 -0.2022
17989TIP3   OH275381   5.307   6.013   3.830  0.3595  0.4973  0.1705
17989TIP3    H175382   5.222   5.979   3.859 -0.2635  1.1352 -0.8392
17989TIP3    H275383   5.369   5.944   3.853 -0.3954  0.0861  1.0729
17990TIP3   OH275384   1.505   2.800  11.524 -0.3102  0.1037 -0.0865
17990TIP3    H175385   1.475   2.769  11.438 -0.6592 -0.3604  0.2025
17990TIP3    H275386   1.496   2.724  11.582  1.0421  0.0579  0.1038
17991TIP3   OH275387   0.803   4.343  17.104 -0.4713  0.7113  0.1647
17991TIP3    H175388   0.729   4.402  17.119 -0.2536  1.1301 -0.3939
17991TIP3    H275389   0.877   4.401  17.090 -0.0262  0.2941  0.7172
17992TIP3   OH275390   3.178   2.615   3.276  0.2362  0.5566 -0.3578
17992TIP3    H175391   3.161   2.685   3.213 -0.7595  1.4451  0.8498
17992TIP3    H275392   3.273   2.605   3.276  0.3844  1.8321 -0.6195
17993TIP3   OH275393   2.011   2.763  15.594 -0.3787  0.0070  0.1380
17993TIP3    H175394   2.083   2.704  15.615 -1.1084 -0.9342  0.1125
17993TIP3    H275395   2.016   2.775  15.500  0.2052  0.5741  0.2399
17994TIP3   OH275396   3.581   5.706   1.634  0.2502 -0.3421  0.4998
17994TIP3    H175397   3.555   5.615   1.644 -0.9820 -0.1011 -0.3856
17994TIP3    H275398   3.651   5.718   1.699  0.9377 -2.0925  0.1332
17995TIP3   OH275399   5.803   1.979  14.951 -0.0629  0.5565 -0.1361
17995TIP3    H175400   5.726   1.996  15.004  0.4943  0.2977  0.7671
17995TIP3    H275401   5.864   2.049  14.974  0.5831 -0.1640  0.3526
17996TIP3   OH275402   1.263   1.827   1.612 -0.7438 -0.1598 -0.6497
17996TIP3    H175403   1.308   1.884   1.674  2.1087 -1.2048 -1.6033
17996TIP3    H275404   1.171   1.854   1.617 -0.1876  1.6038  1.9755
17997TIP3   OH275405   3.033   3.733   5.890  0.0563 -0.2909 -0.5982
17997TIP3    H175406   2.982   3.705   5.967  0.0236 -0.5594 -0.7156
17997TIP3    H275407   3.112   3.770   5.927 -0.3728  0.4490 -0.3996
17998TIP3   OH275408   3.669   6.222   2.360 -0.5724  0.2355  0.4118
17998TIP3    H175409   3.671   6.270   2.278  0.2861  1.3714  1.0655
17998TIP3    H275410   3.735   6.153   2.349 -0.9211 -0.0293 -0.0709
17999TIP3   OH275411   1.640   0.110   3.266 -0.1063 -0.2997  0.5804
17999TIP3    H175412   1.631   0.045   3.196  0.8817 -1.3611  1.3895
17999TIP3    H275413   1.726   0.092   3.304 -1.4187 -1.2176  3.4397
18000TIP3   OH275414   2.311   5.905   5.884  0.0404  0.1046 -0.2950
18000TIP3    H175415   2.317   5.811   5.900 -1.6662  0.0307  0.1017
18000TIP3    H275416   2.289   5.943   5.969 -1.1476  0.6197 -0.7923
18001TIP3   OH275417   6.265   4.341   6.142  0.0349  0.5856  0.3968
18001TIP3    H175418   6.320   4.276   6.185 -0.2313 -1.4134 -2.1045
18001TIP3    H275419   6.326   4.410   6.115  1.1314 -0.8477 -0.9493
18002TIP3   OH275420   2.679   0.680   0.024 -0.3691  0.3676 -0.7291
18002TIP3    H175421   2.609   0.658   0.084 -0.4989  0.6450 -0.7781
18002TIP3    H275422   2.759   0.648   0.067 -0.5786 -0.4905 -0.9412
18003TIP3   OH275423   3.289   4.930  14.970  0.1178  0.1671  0.1675
18003TIP3    H175424   3.208   4.970  14.936 -0.0237 -0.0324  0.2702
18003TIP3    H275425   3.337   4.904  14.892 -0.6600 -1.2039  0.1084
18004TIP3   OH275426   4.114   0.510  15.530 -0.3056 -0.2901 -0.6103
18004TIP3    H175427   4.066   0.579  15.577 -1.0750 -1.1357 -0.0998
18004TIP3    H275428   4.204   0.520  15.559 -0.5355  0.0488  0.0212
18005TIP3   OH275429   4.764   5.860   5.427  0.0670  0.3370 -0.1991
18005TIP3    H175430   4.812   5.936   5.459  0.9338 -1.0535  1.9947
18005TIP3    H275431   4.817   5.828   5.353  0.6437  0.8253 -0.0094
18006TIP3   OH275432   5.289   6.028  16.139  0.5252 -0.0207  0.1949
18006TIP3    H175433   5.199   6.000  16.124  0.2027  0.6038  0.9332
18006TIP3    H275434   5.334   5.947  16.166  0.0423 -0.2132  0.4403
18007TIP3   OH275435   4.046   4.726  12.059  0.1869 -0.9931  0.2260
18007TIP3    H175436   4.038   4.781  11.981  3.3435 -0.3000  0.2438
18007TIP3    H275437   4.131   4.749  12.096 -0.2812 -2.8163  2.7266
18008TIP3   OH275438   0.636   4.245  13.058 -0.3903  0.5514  0.6316
18008TIP3    H175439   0.642   4.319  13.119 -0.9015 -1.4727  3.3229
18008TIP3    H275440   0.702   4.183  13.089 -0.8367 -0.6655 -0.7432
18009TIP3   OH275441   3.167   1.844  15.239 -0.1591  0.2798 -0.1097
18009TIP3    H175442   3.116   1.923  15.220  1.3691  1.0705 -1.2346
18009TIP3    H275443   3.202   1.859  15.327 -0.3472  0.6004 -0.0888
18010TIP3   OH275444   2.385   4.779   5.141  0.0831 -0.4513  0.0529
18010TIP3    H175445   2.417   4.865   5.168  0.7077 -0.5632 -0.3118
18010TIP3    H275446   2.420   4.719   5.208  1.4712 -0.7029 -0.8482
18011TIP3   OH275447   1.358   5.013  10.695 -0.0711 -0.1301  0.3025
18011TIP3    H175448   1.305   5.092  10.701 -1.4623 -1.0213  0.2112
18011TIP3    H275449   1.441   5.042  10.657 -0.8442  1.1442 -0.4657
18012TIP3   OH275450   4.355   0.097  13.615  0.0530 -0.3864  0.4775
18012TIP3    H175451   4.305   0.046  13.677  0.5105  0.5112  1.6183
18012TIP3    H275452   4.437   0.047  13.603 -0.2347 -0.8008  0.2097
18013TIP3   OH275453   5.119   6.476  13.168  0.1392  0.1778  0.0273
18013TIP3    H175454   5.092   6.483  13.076 -0.6626  0.4569  0.2727
18013TIP3    H275455   5.212   6.500  13.168 -0.2539  1.8542 -0.4741
18014TIP3   OH275456   4.691   1.245   3.913  0.2321  0.5627  0.4156
18014TIP3    H175457   4.736   1.212   3.835 -0.7026 -0.4306  0.2721
18014TIP3    H275458   4.727   1.193   3.985  0.0230  0.4512  0.4388
18015TIP3   OH275459   1.939   5.711  12.334 -0.1732 -0.1067 -0.5592
18015TIP3    H175460   1.939   5.656  12.256  0.1787 -1.8967  0.6289
18015TIP3    H275461   2.006   5.777  12.317  0.9592 -1.3675 -1.1994
18016TIP3   OH275462   6.592   5.582   5.744 -0.6236  0.1338  0.0625
18016TIP3    H175463   6.612   5.514   5.808 -0.3269  1.8916  1.8967
18016TIP3    H275464   6.605   5.664   5.790 -3.2447  1.4734 -1.3632
18017TIP3   OH275465   5.573   2.757  14.968  0.5272 -0.2453  0.1689
18017TIP3    H175466   5.659   2.730  14.998  0.1031 -2.1332 -0.2225
18017TIP3    H275467   5.589   2.801  14.884  1.2623  1.2039  1.0174
18018TIP3   OH275468   0.221   2.236  15.210  0.7124  0.3924  0.0894
18018TIP3    H175469   0.230   2.141  15.218  0.2061  0.0878 -2.2988
18018TIP3    H275470   0.136   2.249  15.170  0.6829  1.8978  0.5643
18019TIP3   OH275471   4.455   1.025   3.714 -1.0334 -0.3803 -0.1895
18019TIP3    H175472   4.412   0.974   3.784 -0.9125  0.5404  0.5768
18019TIP3    H275473   4.545   0.993   3.714 -1.3092 -1.1873 -0.7122
18020TIP3   OH275474   5.575   5.070   1.856  0.5175  0.2164 -0.5699
18020TIP3    H175475   5.531   4.991   1.888  2.9440 -0.8362  0.4612
18020TIP3    H275476   5.590   5.053   1.763 -1.2796  0.6666 -0.9799
18021TIP3   OH275477   2.307   4.459  11.217  1.0147  0.1074  0.2959
18021TIP3    H175478   2.307   4.511  11.298  0.5077  0.8798 -0.1962
18021TIP3    H275479   2.347   4.516  11.152 -3.2129  1.6110 -1.3105
18022TIP3   OH275480   4.567   1.026  15.628 -0.0881 -0.1191 -0.4723
18022TIP3    H175481   4.597   1.013  15.718 -1.1769 -0.2852 -0.1146
18022TIP3    H275482   4.625   1.094  15.593  2.4459 -2.2408 -0.7230
18023TIP3   OH275483   5.272   3.492  13.456  0.0357 -0.1726 -0.3927
18023TIP3    H175484   5.342   3.427  13.450  0.2352  0.0444 -0.4725
18023TIP3    H275485   5.195   3.449  13.419 -0.2943 -0.9883  1.1519
18024TIP3   OH275486   4.083   3.756   1.643  0.3647  0.4846  0.1828
18024TIP3    H175487   4.091   3.826   1.579  0.2432  0.6456  0.3422
18024TIP3    H275488   3.997   3.769   1.683  0.4002  0.3304  0.3127
18025TIP3   OH275489   6.677   3.857   4.404  0.0160  0.0694  0.4348
18025TIP3    H175490   6.625   3.909   4.465  1.1772 -0.8555  2.2840
18025TIP3    H275491   6.754   3.831   4.453  1.2147 -0.4012 -1.5709
18026TIP3   OH275492   4.248   4.938   2.535  0.4342 -0.0040 -0.0922
18026TIP3    H175493   4.213   5.008   2.479  1.2647 -0.2472 -0.9298
18026TIP3    H275494   4.175   4.916   2.593 -0.0682  1.0731 -0.2772
18027TIP3   OH275495   1.418   0.517   2.947 -0.2538 -0.2098 -0.1337
18027TIP3    H175496   1.470   0.597   2.959 -1.4945  0.4300  1.3246
18027TIP3    H275497   1.417   0.476   3.033 -1.0761 -0.8801 -0.4495
18028TIP3   OH275498   3.190   3.305   0.522 -0.1850 -0.0893  0.3909
18028TIP3    H175499   3.205   3.259   0.605  1.0405  0.8963  0.7590
18028TIP3    H275500   3.244   3.384   0.530 -1.4368  0.8908 -0.6293
18029TIP3   OH275501   5.142   4.105   5.601  0.0121 -0.1897 -0.0973
18029TIP3    H175502   5.121   4.198   5.592 -0.6738 -0.3757 -0.5199
18029TIP3    H275503   5.134   4.070   5.512 -1.6619 -1.0328  0.3422
18030TIP3   OH275504   1.751   4.844  12.789  0.1454 -0.2478  0.4156
18030TIP3    H175505   1.837   4.840  12.829  0.8085 -2.3770 -1.0491
18030TIP3    H275506   1.718   4.754  12.793 -0.8269 -0.0286 -1.4975
18031TIP3   OH275507   0.497   0.783  13.809 -0.2803 -0.1055  0.5568
18031TIP3    H175508   0.558   0.743  13.747  1.2821 -0.5985  2.3070
18031TIP3    H275509   0.526   0.874  13.817 -0.1028 -0.1950  0.9805
18032TIP3   OH275510   1.820   5.153   3.916  0.2822 -0.2443  0.7092
18032TIP3    H175511   1.808   5.110   3.831 -0.7315  0.2505  0.5844
18032TIP3    H275512   1.900   5.114   3.951 -0.5785 -2.2129  0.5868
18033TIP3   OH275513   1.811   0.146   4.419 -0.6607  0.0449  0.5301
18033TIP3    H175514   1.743   0.112   4.361 -0.5432 -0.0523  0.4474
18033TIP3    H275515   1.827   0.235   4.388 -1.4201  0.4041  1.1474
18034TIP3   OH275516   1.014   1.566  11.459  0.6997  0.5078 -0.1023
18034TIP3    H175517   1.031   1.641  11.516 -0.9265  1.2898 -0.5748
18034TIP3    H275518   0.957   1.510  11.511  1.0002  0.1418 -0.1661
18035TIP3   OH275519   5.797   4.581  12.812  0.5027 -0.5199  0.2312
18035TIP3    H175520   5.869   4.639  12.839  0.8524 -1.8969  2.5377
18035TIP3    H275521   5.834   4.493  12.821 -1.1112 -1.2141  0.2393
18036TIP3   OH275522   1.571   2.782  16.284  0.6990 -0.2475  0.0422
18036TIP3    H175523   1.520   2.846  16.334  0.8189  0.6846 -0.9957
18036TIP3    H275524   1.650   2.768  16.336  0.6120  0.3448  0.3389
18037TIP3   OH275525   6.690   1.515  13.968  0.1506  0.3677 -0.0797
18037TIP3    H175526   6.652   1.592  14.010 -3.5025 -0.0860 -2.0771
18037TIP3    H275527   6.689   1.447  14.036  0.9376  1.3450  0.9474
18038TIP3   OH275528   4.557   1.625  13.557 -0.3967 -0.3315 -0.4735
18038TIP3    H175529   4.612   1.619  13.479  1.1541  0.4122  0.5053
18038TIP3    H275530   4.545   1.719  13.570 -0.0344 -0.4180  0.5674
18039TIP3   OH275531   3.764   2.186   4.561  0.2479  0.7660  0.9490
18039TIP3    H175532   3.846   2.225   4.592  0.5148  0.1421  1.0293
18039TIP3    H275533   3.785   2.094   4.547 -1.0700 -0.0181  3.4373
18040TIP3   OH275534   1.685   5.206   0.038  0.7709  0.3032  0.1016
18040TIP3    H175535   1.627   5.183   0.111  0.2229  0.2811 -0.3332
18040TIP3    H275536   1.629   5.254  -0.022  1.6517  1.8898  0.5066
18041TIP3   OH275537   2.460   5.551   3.494  0.1744  0.3470 -0.0417
18041TIP3    H175538   2.502   5.468   3.518 -0.3133 -0.2960 -1.3220
18041TIP3    H275539   2.523   5.594   3.436 -0.0781  0.2985 -0.3573
18042TIP3   OH275540   2.307   5.690   1.918 -0.3756 -0.0389  0.0202
18042TIP3    H175541   2.350   5.692   2.004  0.0264  0.6645 -0.1912
18042TIP3    H275542   2.348   5.616   1.873  1.1414  1.0220 -0.4239
18043TIP3   OH275543   2.046   2.427  17.170  0.0976  0.4891 -0.5557
18043TIP3    H175544   2.031   2.362  17.101  1.6898  0.4478 -0.9182
18043TIP3    H275545   1.960   2.463  17.189 -1.2966 -3.2587  1.2799
18044TIP3   OH275546   4.717   5.924   5.827  0.0312 -0.2104  0.4316
18044TIP3    H175547   4.625   5.950   5.831  0.0581 -0.0990  0.3358
18044TIP3    H275548   4.715   5.834   5.794  0.0782  0.5998 -1.9273
18045TIP3   OH275549   6.395   6.487   4.188 -0.1358  0.2644 -0.1274
18045TIP3    H175550   6.418   6.533   4.268  1.2595 -3.5795  1.9476
18045TIP3    H275551   6.470   6.500   4.131  1.0641 -0.8221  1.1378
18046TIP3   OH275552   1.303   1.338  17.156 -0.0152  0.0615 -0.1860
18046TIP3    H175553   1.389   1.320  17.194  0.4460  1.4186 -0.5313
18046TIP3    H275554   1.307   1.430  17.129 -1.2621 -0.1047 -1.0431
18047TIP3   OH275555   3.130   2.642   2.831  0.5298  0.1495 -0.8357
18047TIP3    H175556   3.132   2.698   2.909 -0.3874 -1.1040  0.1268
18047TIP3    H275557   3.202   2.581   2.843  1.5531  1.0769 -1.9077
18048TIP3   OH275558   6.712   0.931   0.246 -0.6341  0.0186 -0.0388
18048TIP3    H175559   6.631   0.976   0.223 -0.2223  0.6036 -0.3636
18048TIP3    H275560   6.722   0.948   0.340 -1.3247 -0.7828  0.1979
18049TIP3   OH275561   1.103   3.382   3.027 -0.1815 -0.4443 -0.0838
18049TIP3    H175562   1.119   3.358   2.935 -0.5787 -0.9511 -0.0272
18049TIP3    H275563   1.011   3.359   3.041 -0.7176  1.4530 -0.1245
18050TIP3   OH275564   4.735   5.501  16.550  0.4947 -0.4183 -0.2979
18050TIP3    H175565   4.650   5.529  16.515 -0.8032 -0.6287  2.4516
18050TIP3    H275566   4.755   5.565  16.618  1.6522 -1.3944  0.3197
18051TIP3   OH275567   4.878   4.951   0.322  0.6814 -0.2243  0.5446
18051TIP3    H175568   4.939   4.881   0.300  0.2863 -0.0133 -1.3540
18051TIP3    H275569   4.915   5.029   0.280  0.5892  0.5225  1.7912
18052TIP3   OH275570   1.116   5.062  12.639  0.2028 -0.2991  0.6817
18052TIP3    H175571   1.060   5.038  12.566 -1.3046  0.6200  1.4838
18052TIP3    H275572   1.117   4.984  12.695 -0.8452 -0.1232  0.9736
18053TIP3   OH275573   4.601   6.234   0.999 -0.3828  0.8312 -1.1415
18053TIP3    H175574   4.619   6.282   0.918 -0.2509  0.7061 -1.1859
18053TIP3    H275575   4.680   6.248   1.052  0.7467 -1.4024 -2.1221
18054TIP3   OH275576   6.518   1.026   6.639  0.4381  0.5153 -0.1535
18054TIP3    H175577   6.523   1.014   6.734 -0.9875  2.0450  0.1592
18054TIP3    H275578   6.579   1.097   6.620  2.5175 -1.3261 -0.7860
18055TIP3   OH275579   2.344   4.316  15.742  0.1777  0.2348 -0.1744
18055TIP3    H175580   2.249   4.319  15.755  0.4715 -0.1959  2.7770
18055TIP3    H275581   2.363   4.226  15.718 -0.1005  0.1603 -0.1135
18056TIP3   OH275582   1.025   4.459   4.541 -0.4207 -0.6360 -0.1689
18056TIP3    H175583   1.103   4.508   4.567  1.3045 -2.9262 -0.5848
18056TIP3    H275584   0.954   4.522   4.544  0.8607  0.8599  3.2559
18057TIP3   OH275585   2.997   1.138  15.202  0.0973 -0.5879  0.2947
18057TIP3    H175586   2.933   1.157  15.271  1.1526 -0.0363  1.1456
18057TIP3    H275587   3.073   1.104  15.248  0.5553 -0.9001 -0.6692
18058TIP3   OH275588   4.597   2.246  15.640  0.4271 -0.3357 -0.3727
18058TIP3    H175589   4.649   2.323  15.618  0.2562 -0.2864 -0.6116
18058TIP3    H275590   4.526   2.245  15.575 -1.0831  0.7621  1.1567
18059TIP3   OH275591   1.355   3.290  12.031  0.1526 -0.6385 -0.2694
18059TIP3    H175592   1.415   3.218  12.051  0.5487 -0.7012 -1.5744
18059TIP3    H275593   1.401   3.341  11.964 -0.7388  0.0044 -0.4065
18060TIP3   OH275594   3.875   4.212  13.840  0.1238 -0.1175 -0.8503
18060TIP3    H175595   3.898   4.193  13.931 -2.0240 -2.5262 -0.6809
18060TIP3    H275596   3.891   4.306  13.830  1.7333 -0.0460  1.5734
18061TIP3   OH275597   4.814   1.355   0.079 -0.2082  0.1289 -0.2221
18061TIP3    H175598   4.863   1.375   0.159 -0.2038  0.3339 -0.2759
18061TIP3    H275599   4.730   1.400   0.091  0.6004  2.0463 -1.2937
18062TIP3   OH275600   1.002   3.213  14.473 -0.4162 -1.1257  0.3838
18062TIP3    H175601   1.030   3.123  14.455  1.4918 -0.3621 -0.8709
18062TIP3    H275602   0.994   3.253  14.386  0.5781  0.3853  0.9381
18063TIP3   OH275603   2.614   2.654   6.154  0.2613 -0.4463  0.4075
18063TIP3    H175604   2.650   2.734   6.116  0.0113 -0.6785 -0.3251
18063TIP3    H275605   2.614   2.671   6.248 -0.4182  0.6805  0.2212
18064TIP3   OH275606   2.174   0.482  15.544 -0.2046  0.1489  0.5159
18064TIP3    H175607   2.143   0.473  15.453  1.4227 -0.1296 -0.0471
18064TIP3    H275608   2.199   0.574  15.551  2.8814 -0.4667 -0.4978
18065TIP3   OH275609   0.634   5.567  14.434  0.3335 -0.1763 -0.2082
18065TIP3    H175610   0.577   5.582  14.359 -1.8356  0.9257  1.5526
18065TIP3    H275611   0.664   5.476  14.424 -0.4572 -0.2776 -1.9984
18066TIP3   OH275612   5.126   3.829  16.466  0.6317  0.0241 -0.0871
18066TIP3    H175613   5.128   3.895  16.534 -1.1495  0.8519 -0.7895
18066TIP3    H275614   5.202   3.849  16.411  0.3663  1.2226 -0.0400
18067TIP3   OH275615   2.736   5.530   4.108  0.3054  0.5597 -0.5703
18067TIP3    H175616   2.654   5.508   4.154 -1.7414  2.8868 -2.7925
18067TIP3    H275617   2.786   5.581   4.172 -0.5606  0.2272  0.4206
18068TIP3   OH275618   6.315   0.097  10.732  0.4121  0.1161  0.1820
18068TIP3    H175619   6.302   0.191  10.746 -1.4820 -0.2191  0.9789
18068TIP3    H275620   6.286   0.082  10.642  1.6667  0.4294 -0.2928
18069TIP3   OH275621   2.831   2.132  16.562  0.2812 -0.1241 -0.2424
18069TIP3    H175622   2.925   2.144  16.560  0.4520 -1.2012  0.1784
18069TIP3    H275623   2.815   2.080  16.641 -0.5520 -0.7727 -0.8112
18070TIP3   OH275624   3.463   6.738  16.377 -0.6229 -0.2548 -1.1988
18070TIP3    H175625   3.493   6.652  16.347  2.2439 -0.8505  2.6251
18070TIP3    H275626   3.535   6.798  16.355 -1.9216  0.9235 -2.4326
18071TIP3   OH275627   2.540   2.431   2.433 -0.2776 -0.7938  0.1002
18071TIP3    H175628   2.595   2.420   2.355 -1.0997  0.8288 -0.7612
18071TIP3    H275629   2.573   2.511   2.474 -1.2063 -0.4813  0.2506
18072TIP3   OH275630   1.926   5.980  14.671  0.1483 -0.1109  0.1939
18072TIP3    H175631   1.836   5.995  14.642  1.1502  1.9712 -2.2527
18072TIP3    H275632   1.935   6.033  14.751 -0.9969 -1.1235  1.0369
18073TIP3   OH275633   1.221   3.937   3.777 -0.3130  0.5631 -0.8896
18073TIP3    H175634   1.136   3.980   3.785 -0.5643 -0.2146  1.3481
18073TIP3    H275635   1.215   3.862   3.836  0.7560 -1.5368 -3.2670
18074TIP3   OH275636   5.015   0.552   0.673  0.2234  0.0371  0.0912
18074TIP3    H175637   4.968   0.487   0.725  0.8743 -0.0576  0.5758
18074TIP3    H275638   4.951   0.623   0.661 -0.2587 -0.3803  0.1633
18075TIP3   OH275639   0.322   2.019   3.563 -0.1327  0.2991 -0.3379
18075TIP3    H175640   0.396   2.026   3.502  0.1155 -0.1122 -0.0836
18075TIP3    H275641   0.275   2.102   3.552  0.3960  0.5905 -0.4640
18076TIP3   OH275642   4.764   4.993   0.084  0.1024  0.3676 -0.7767
18076TIP3    H175643   4.742   5.020   0.173 -0.3347  0.5874 -0.9438
18076TIP3    H275644   4.839   4.934   0.094 -0.1599  0.1162 -0.2323
18077TIP3   OH275645   5.676   2.903  13.169  0.1012 -0.2465  0.4925
18077TIP3    H175646   5.618   2.964  13.123 -2.5725 -2.9977 -0.0492
18077TIP3    H275647   5.753   2.897  13.112 -0.6477  0.7245 -0.6873
18078TIP3   OH275648   0.814   0.947  14.461 -0.0957  0.6113  0.0725
18078TIP3    H175649   0.901   0.987  14.469  0.1589  0.1942 -0.5375
18078TIP3    H275650   0.758   1.018  14.430  0.6108  0.2668 -2.2336
18079TIP3   OH275651   1.191   3.640   3.100  0.2935  0.3411 -0.1778
18079TIP3    H175652   1.158   3.553   3.076  0.0058  0.6741 -1.0075
18079TIP3    H275653   1.186   3.642   3.196  1.0170 -0.8371 -0.0958
18080TIP3   OH275654   0.541   1.857   5.071  0.4692  0.0769  0.0746
18080TIP3    H175655   0.470   1.913   5.041  0.4657  0.4357  0.7366
18080TIP3    H275656   0.539   1.863   5.167  0.8948 -0.5240  0.1331
18081TIP3   OH275657   3.781   4.628  12.662 -0.1970 -0.3386 -0.8170
18081TIP3    H175658   3.776   4.711  12.708  0.0837 -1.4553  1.3573
18081TIP3    H275659   3.689   4.604  12.645 -0.2683  0.4841 -1.6692
18082TIP3   OH275660   5.689   4.812   0.905  0.3728 -0.5207  0.0642
18082TIP3    H175661   5.668   4.720   0.925 -0.2902 -0.5951 -0.8872
18082TIP3    H275662   5.657   4.861   0.981 -2.5276 -0.7386 -0.8886
18083TIP3   OH275663   3.699   0.812   5.432 -0.1648  0.1440  0.7620
18083TIP3    H175664   3.738   0.840   5.514 -0.7880  2.5652  0.3365
18083TIP3    H275665   3.606   0.801   5.452 -0.1460 -0.2899  0.6121
18084TIP3   OH275666   3.925   4.593   3.213 -0.2154  0.6541 -0.2770
18084TIP3    H175667   3.864   4.666   3.206 -0.0778  1.0886  2.0708
18084TIP3    H275668   3.886   4.523   3.161 -2.6689  0.9836  0.9963
18085TIP3   OH275669   0.348   2.722   1.248 -0.0660  0.4526  0.3503
18085TIP3    H175670   0.344   2.812   1.217  0.6049 -0.3000 -2.1102
18085TIP3    H275671   0.257   2.698   1.265 -0.4433  1.0161 -0.8043
18086TIP3   OH275672   6.417   0.716  15.565  0.2328  0.3009  0.4349
18086TIP3    H175673   6.340   0.773  15.567  1.4970  2.0667  1.1312
18086TIP3    H275674   6.437   0.705  15.472 -0.0502  0.9624  0.2958
18087TIP3   OH275675   0.282   5.058   5.830 -0.6082  0.2341  0.0973
18087TIP3    H175676   0.296   5.127   5.765  1.4685 -0.7829 -0.6492
18087TIP3    H275677   0.360   5.003   5.823 -0.8799 -0.6186  2.6143
18088TIP3   OH275678   4.346   5.355  14.138 -0.4353 -0.2352  0.1718
18088TIP3    H175679   4.424   5.409  14.153  0.6206 -1.4770 -0.5672
18088TIP3    H275680   4.310   5.342  14.226 -1.6976  2.9275  0.2546
18089TIP3   OH275681   0.871   2.769   5.773 -0.1263 -0.2217 -0.2422
18089TIP3    H175682   0.855   2.720   5.854 -0.8169 -0.1933 -0.3600
18089TIP3    H275683   0.937   2.834   5.797 -2.1377  1.4800  0.9612
18090TIP3   OH275684   4.219   2.789  12.674  0.4551 -0.0740  0.1770
18090TIP3    H175685   4.209   2.698  12.701  0.2702  0.0422  0.5193
18090TIP3    H275686   4.308   2.812  12.699  0.2496  0.0649  0.8160
18091TIP3   OH275687   4.259   6.005   4.972  0.6971  0.0703 -0.4038
18091TIP3    H175688   4.270   6.091   4.933 -0.4238  1.0302  1.2408
18091TIP3    H275689   4.343   5.987   5.015  0.3733  1.1859  0.7494
18092TIP3   OH275690   1.095   2.429  14.999 -0.3561 -0.3353 -0.5955
18092TIP3    H175691   1.140   2.512  15.014 -1.2835 -0.1904  1.9446
18092TIP3    H275692   1.002   2.452  14.999 -0.5889 -1.1811 -1.5848
18093TIP3   OH275693   3.415   4.337   0.186 -0.1731  0.1884 -0.0174
18093TIP3    H175694   3.422   4.415   0.241 -1.3403  0.7684 -0.6526
18093TIP3    H275695   3.457   4.362   0.104  1.6755 -0.7154  0.6031
18094TIP3   OH275696   1.832   6.633  14.510 -0.7113  0.0019  0.0521
18094TIP3    H175697   1.775   6.708  14.498 -1.7026 -0.6447  0.6182
18094TIP3    H275698   1.921   6.668  14.501 -1.1393  1.3338  0.8531
18095TIP3   OH275699   5.412   0.156   2.222 -0.0237 -0.4695  0.1115
18095TIP3    H175700   5.428   0.125   2.133 -1.3004  0.1513 -0.3671
18095TIP3    H275701   5.492   0.137   2.269  0.5001 -1.2571 -1.0524
18096TIP3   OH275702   1.013   1.473  15.844 -0.8427 -0.1747  0.2694
18096TIP3    H175703   1.050   1.418  15.912  1.1791  1.1535  0.3281
18096TIP3    H275704   1.064   1.453  15.765 -0.4285  1.1406  0.1633
18097TIP3   OH275705   1.314   4.721   3.922  0.5075  0.4883 -0.2598
18097TIP3    H175706   1.276   4.736   3.835 -0.7502  0.8823  0.3248
18097TIP3    H275707   1.247   4.753   3.983  1.9356  1.5129  0.8424
18098TIP3   OH275708   1.167   4.426   1.176 -0.2930  0.1065  0.0632
18098TIP3    H175709   1.219   4.489   1.127  0.1508 -0.0079  0.3782
18098TIP3    H275710   1.093   4.406   1.119  0.2007 -0.0041 -0.5513
18099TIP3   OH275711   6.506   2.763  12.820 -0.1996 -0.6788  0.3635
18099TIP3    H175712   6.543   2.689  12.772  1.0696 -0.0585  0.3428
18099TIP3    H275713   6.522   2.838  12.763 -0.9918 -0.3018  0.6287
18100TIP3   OH275714   4.688   3.642   0.116  0.5700 -0.1186 -0.5585
18100TIP3    H175715   4.750   3.687   0.059  2.5113  0.0235  1.5076
18100TIP3    H275716   4.730   3.642   0.202 -1.6219 -1.4544  0.6167
18101TIP3   OH275717   4.321   1.553   3.881  0.5257  0.2022  0.4693
18101TIP3    H175718   4.352   1.470   3.916 -1.0940 -0.9130 -0.6252
18101TIP3    H275719   4.299   1.605   3.959 -0.7589 -1.3162  1.1631
18102TIP3   OH275720   4.962   6.642  16.985  0.7856 -0.5773 -0.1139
18102TIP3    H175721   5.019   6.648  16.908  0.1428  2.3767 -0.4748
18102TIP3    H275722   4.984   6.558  17.025  2.1289 -1.5753 -2.7367
18103TIP3   OH275723   0.133   1.696  15.631  0.2521 -0.2243  0.0710
18103TIP3    H175724   0.153   1.774  15.683  1.0489  0.1495 -0.7813
18103TIP3    H275725   0.170   1.624  15.681 -0.3904 -0.0654  0.8112
18104TIP3   OH275726   1.232   6.343   3.295  0.2458  0.2228  0.5142
18104TIP3    H175727   1.247   6.429   3.334 -0.5972  0.6921 -0.1710
18104TIP3    H275728   1.318   6.301   3.297  0.8271  1.3614  0.2079
18105TIP3   OH275729   4.884   3.956  10.962  0.0423  0.1956  0.2147
18105TIP3    H175730   4.832   3.989  11.035 -0.1279 -1.7223  1.0205
18105TIP3    H275731   4.823   3.906  10.909  0.2660  1.1926 -1.0471
18106TIP3   OH275732   6.214   5.412   4.526 -0.6495 -0.1825  0.0847
18106TIP3    H175733   6.297   5.378   4.560  1.1606  2.5457 -1.2121
18106TIP3    H275734   6.203   5.368   4.442  0.4064  0.5759 -0.4817
18107TIP3   OH275735   1.456   1.713   1.442  0.2465  0.9227  0.0208
18107TIP3    H175736   1.507   1.654   1.499 -0.6653 -1.2129 -1.2733
18107TIP3    H275737   1.391   1.752   1.500  1.7968  1.8721  1.2078
18108TIP3   OH275738   3.065   4.508   1.186 -0.3036  0.3506 -0.0404
18108TIP3    H175739   2.978   4.503   1.224  0.0260  0.8548  0.7946
18108TIP3    H275740   3.052   4.550   1.101 -1.1959 -1.7804 -1.0248
18109TIP3   OH275741   2.066   2.286   2.441 -0.2753 -0.0933 -0.5057
18109TIP3    H175742   2.155   2.316   2.459 -0.8927  1.5561 -0.0727
18109TIP3    H275743   2.077   2.219   2.373  1.1437  1.3545 -1.7715
18110TIP3   OH275744   4.795   5.364  11.624 -0.0589  0.5314 -0.0353
18110TIP3    H175745   4.799   5.285  11.570  2.4544 -0.1855  1.0764
18110TIP3    H275746   4.856   5.425  11.581 -0.6998  1.2675  0.0694
18111TIP3   OH275747   6.194   1.753  14.423 -0.7885 -0.0532  0.4125
18111TIP3    H175748   6.151   1.676  14.386  1.8750 -1.2482 -0.4442
18111TIP3    H275749   6.217   1.727  14.512 -0.5410  0.0346  0.3746
18112TIP3   OH275750   2.324   5.488  15.348 -0.3156 -0.4910 -0.0480
18112TIP3    H175751   2.403   5.457  15.392 -0.0974  0.2146  0.0644
18112TIP3    H275752   2.307   5.574  15.387  0.7590  0.8797 -2.3982
18113TIP3   OH275753   4.218   3.586   1.813 -0.2334  0.1979 -0.3653
18113TIP3    H175754   4.154   3.514   1.810 -1.0711  0.9120 -0.1612
18113TIP3    H275755   4.173   3.659   1.770 -0.1936  1.1908  1.2031
18114TIP3   OH275756   1.671   5.350  13.289  0.4525 -0.0118  0.3412
18114TIP3    H175757   1.603   5.336  13.223 -0.1975  0.7483  0.8299
18114TIP3    H275758   1.703   5.438  13.272  1.4533 -0.4220  0.0120
18115TIP3   OH275759   5.242   3.238  15.797 -0.3272  0.0598 -0.4182
18115TIP3    H175760   5.336   3.231  15.816 -0.1851  2.4406  0.1241
18115TIP3    H275761   5.209   3.298  15.864 -1.6611  1.4942 -2.2437
18116TIP3   OH275762   6.187   0.776   4.902  0.0153  0.2684 -0.4430
18116TIP3    H175763   6.154   0.714   4.968  1.6836 -1.9844 -1.6143
18116TIP3    H275764   6.136   0.757   4.824  0.8075  0.1007 -0.9266
18117TIP3   OH275765   1.520   3.255  17.175 -0.1707  0.5084  0.4281
18117TIP3    H175766   1.427   3.270  17.191 -0.5317 -2.2752  1.4632
18117TIP3    H275767   1.523   3.202  17.095  0.6945  2.1252 -0.6566
18118TIP3   OH275768   1.427   6.311  11.743 -0.1924 -0.1472 -0.4731
18118TIP3    H175769   1.348   6.299  11.689 -0.3056 -0.0580 -0.3292
18118TIP3    H275770   1.412   6.395  11.787  0.8617  0.8604 -1.9401
18119TIP3   OH275771   6.027   4.377   1.327 -0.5547 -0.2999  0.4946
18119TIP3    H175772   6.106   4.372   1.274 -1.3250 -0.9487 -0.6348
18119TIP3    H275773   6.054   4.350   1.415  0.8754  1.3757  0.6199
18120TIP3   OH275774   3.009   4.902   1.847  0.0784 -0.0774 -0.1260
18120TIP3    H175775   2.922   4.865   1.863  1.6532 -3.4799  1.6252
18120TIP3    H275776   3.024   4.889   1.754 -1.4190  1.0805 -0.5788
18121TIP3   OH275777   0.130   0.982  14.746  0.1624 -0.2218 -0.1393
18121TIP3    H175778   0.055   0.922  14.746 -1.3481  1.5122 -1.8407
18121TIP3    H275779   0.161   0.981  14.836 -0.8030 -2.3128  0.2368
18122TIP3   OH275780   4.386   4.881  14.526  0.6907  0.3575 -0.1232
18122TIP3    H175781   4.336   4.925  14.457  0.1655  0.4363  0.2988
18122TIP3    H275782   4.361   4.927  14.606  0.6703 -0.2544  0.2312
18123TIP3   OH275783   1.446   0.680  12.658  0.0817  0.4169  0.3052
18123TIP3    H175784   1.489   0.624  12.593  0.2249 -0.6922  1.3354
18123TIP3    H275785   1.354   0.656  12.653  0.0397  0.5757  0.2905
18124TIP3   OH275786   5.415   1.830  12.450  0.1576 -0.4656 -0.2875
18124TIP3    H175787   5.321   1.819  12.464  0.0612 -1.3037 -1.4501
18124TIP3    H275788   5.455   1.779  12.521 -0.2897 -1.4313 -0.7037
18125TIP3   OH275789   3.804   1.157  12.277  0.0147  0.0851 -0.2412
18125TIP3    H175790   3.880   1.213  12.261 -1.5893  2.2615 -0.7164
18125TIP3    H275791   3.756   1.158  12.195 -1.6258  0.6008  0.6662
18126TIP3   OH275792   2.158   1.612   2.977  0.2722 -0.3635 -0.0643
18126TIP3    H175793   2.067   1.589   2.962  0.1926  0.3761 -0.7407
18126TIP3    H275794   2.199   1.530   3.005 -0.9561 -0.3310  2.0387
18127TIP3   OH275795   4.662   1.221   5.273 -0.1961 -0.5802  0.2370
18127TIP3    H175796   4.608   1.275   5.330  0.4566 -0.9588  1.2449
18127TIP3    H275797   4.616   1.138   5.268  0.1278 -0.8076  0.8659
18128TIP3   OH275798   5.065   6.287   0.935  0.0432  0.3071  0.4429
18128TIP3    H175799   5.060   6.267   1.028  1.8538  1.0667  0.7387
18128TIP3    H275800   5.086   6.203   0.894  2.1830  0.4721  1.0805
18129TIP3   OH275801   4.104   2.107  11.428  0.0414  0.0283  0.7946
18129TIP3    H175802   4.074   2.192  11.396 -0.3230 -0.5307 -0.4183
18129TIP3    H275803   4.198   2.106  11.409  0.1808  0.4209  1.4392
18130TIP3   OH275804   6.227   6.437  10.586  0.5590 -0.4638 -0.0207
18130TIP3    H175805   6.280   6.509  10.618  0.1044 -0.4504  0.7382
18130TIP3    H275806   6.264   6.359  10.629  0.3531 -0.5340  0.0307
18131TIP3   OH275807   5.703   4.191  14.332  0.1410  0.5847 -0.1953
18131TIP3    H175808   5.676   4.277  14.363 -0.8969 -0.0815  0.8063
18131TIP3    H275809   5.631   4.133  14.355  0.6012 -0.4671 -1.3188
18132TIP3   OH275810   4.610   3.788   3.770  0.7201  0.1607  0.1770
18132TIP3    H175811   4.536   3.730   3.749 -0.4467  1.8295 -0.4992
18132TIP3    H275812   4.687   3.741   3.738 -0.2440 -0.7840 -0.8223
18133TIP3   OH275813   5.778   3.965  13.887  0.0247 -0.0075  0.5378
18133TIP3    H175814   5.741   3.966  13.799  1.0889 -0.1353  0.0695
18133TIP3    H275815   5.754   4.050  13.924  0.1860  0.3415 -0.1464
18134TIP3   OH275816   5.391   4.995   3.838  0.1429 -0.1536 -0.0192
18134TIP3    H175817   5.386   4.932   3.910  0.0174  0.8210  0.8420
18134TIP3    H275818   5.308   5.043   3.843 -0.1775 -0.5571 -1.2676
18135TIP3   OH275819   6.379   2.641   2.891  0.0016  0.4968 -0.1071
18135TIP3    H175820   6.429   2.624   2.971  1.0941 -0.2681 -0.9058
18135TIP3    H275821   6.335   2.558   2.873  1.5970 -0.1347 -1.4879
18136TIP3   OH275822   6.355   4.035   3.756 -0.0691  0.1181 -0.3719
18136TIP3    H175823   6.328   4.054   3.846  1.7875 -0.0586  0.2607
18136TIP3    H275824   6.273   4.019   3.709 -1.0424 -0.3980  1.4214
18137TIP3   OH275825   3.152   5.679  14.154  0.2300 -0.0694 -0.5682
18137TIP3    H175826   3.169   5.609  14.217  1.4673  0.6765 -0.0387
18137TIP3    H275827   3.227   5.677  14.095  1.6100  2.3388  0.9159
18138TIP3   OH275828   3.283   1.605   5.410 -0.1795 -0.0306  0.3421
18138TIP3    H175829   3.314   1.685   5.367  1.4847 -1.0880 -0.5485
18138TIP3    H275830   3.219   1.568   5.349  0.1158 -0.0967  0.0668
18139TIP3   OH275831   1.491   1.159  13.465 -0.2403 -0.0838 -0.4298
18139TIP3    H175832   1.575   1.196  13.439 -0.9568  0.9189 -1.3824
18139TIP3    H275833   1.457   1.117  13.386 -1.1670  0.5352 -0.3742
18140TIP3   OH275834   2.280   3.893   0.468 -0.0872  0.0661 -0.1432
18140TIP3    H175835   2.345   3.845   0.416  0.8240  0.3749  0.6705
18140TIP3    H275836   2.274   3.844   0.550  1.5574  1.7482  1.0858
18141TIP3   OH275837   0.905   3.409  13.711  0.2475  0.6181 -0.0562
18141TIP3    H175838   0.972   3.477  13.717  0.4194  0.3908  0.7289
18141TIP3    H275839   0.945   3.340  13.657 -0.3494  1.5993 -1.8307
18142TIP3   OH275840   4.788   4.924   5.487 -0.1371  0.1355 -0.3290
18142TIP3    H175841   4.779   4.847   5.431 -0.8598  0.3527 -0.5307
18142TIP3    H275842   4.718   4.983   5.458  0.2056  0.7331  0.0351
18143TIP3   OH275843   3.578   5.580  12.956 -0.0915 -0.2570  1.0654
18143TIP3    H175844   3.552   5.573  13.048  1.1603 -1.0407  1.3788
18143TIP3    H275845   3.563   5.493  12.920 -2.0970  0.4304  0.0607
18144TIP3   OH275846   5.424   0.895   1.006 -0.4116 -0.1060 -0.4202
18144TIP3    H175847   5.418   0.799   1.005  2.1658 -0.3368 -0.2634
18144TIP3    H275848   5.404   0.922   0.917  0.1117 -0.9011 -0.7836
18145TIP3   OH275849   4.442   2.705   3.240 -0.1945 -0.2726 -0.2913
18145TIP3    H175850   4.465   2.615   3.218 -2.1702 -0.5917 -1.2374
18145TIP3    H275851   4.472   2.756   3.164 -1.0485 -0.4548 -0.7603
18146TIP3   OH275852   2.148   4.834  13.605  0.1511  0.0124 -0.1089
18146TIP3    H175853   2.123   4.842  13.513  0.0120  2.1996  0.0730
18146TIP3    H275854   2.117   4.915  13.645  1.1469 -0.4295  1.6403
18147TIP3   OH275855   0.548   0.371  13.160  0.3415  0.1123 -0.2016
18147TIP3    H175856   0.501   0.322  13.093  1.2328 -0.8851 -0.1314
18147TIP3    H275857   0.520   0.330  13.243  0.1390  0.5582 -0.0466
18148TIP3   OH275858   0.085   5.678  12.461 -0.2455 -0.3930 -0.2350
18148TIP3    H175859   0.164   5.702  12.414  0.6216 -0.3162  1.1859
18148TIP3    H275860   0.031   5.632  12.397  1.2699 -1.1007 -1.0568
18149TIP3   OH275861   0.829   6.153   4.254 -0.5473 -0.3084  0.3177
18149TIP3    H175862   0.810   6.188   4.341  0.5502  0.2788  0.3431
18149TIP3    H275863   0.922   6.130   4.258 -1.0535 -2.6611  0.1017
18150TIP3   OH275864   0.461   2.358  13.049 -0.3262  0.3630  0.0012
18150TIP3    H175865   0.381   2.373  12.999  0.1952 -0.8004 -1.2196
18150TIP3    H275866   0.496   2.275  13.016  0.5335  0.0204  1.6493
18151TIP3   OH275867   5.466   3.038   0.753 -0.1791  0.2645  0.1642
18151TIP3    H175868   5.542   3.088   0.782  0.4336 -0.8181  0.4795
18151TIP3    H275869   5.494   2.946   0.759 -1.2644 -0.1179 -0.4136
18152TIP3   OH275870   6.574   1.698   3.490 -0.0297 -0.4012  0.2416
18152TIP3    H175871   6.665   1.674   3.474 -0.3711 -1.3689 -0.3666
18152TIP3    H275872   6.536   1.621   3.533 -0.0189  0.8416  2.6046
18153TIP3   OH275873   0.987   6.473  15.907  0.0175  0.1206  0.1341
18153TIP3    H175874   0.923   6.409  15.876 -0.3009  0.8281 -0.7250
18153TIP3    H275875   1.052   6.422  15.956 -1.4552 -0.5646  1.4705
18154TIP3   OH275876   0.626   6.503  15.219 -0.7407 -0.1293 -0.0105
18154TIP3    H175877   0.534   6.519  15.239 -0.7033 -0.5641  0.5414
18154TIP3    H275878   0.646   6.419  15.260 -0.5245 -0.8551 -1.5537
18155TIP3   OH275879   2.916   2.375  15.476  0.6668 -0.1342  0.0650
18155TIP3    H175880   2.913   2.419  15.561  0.9758 -0.5835  0.3130
18155TIP3    H275881   2.874   2.291  15.491 -0.8672  0.4703 -0.6652
18156TIP3   OH275882   5.257   1.075  12.843 -0.0196 -0.5217 -0.2688
18156TIP3    H175883   5.232   1.049  12.932  0.2455 -0.7883 -0.2701
18156TIP3    H275884   5.341   1.032  12.828  0.4142  0.3090 -0.2866
18157TIP3   OH275885   3.004   1.728  13.783  0.0975  0.1383  0.7091
18157TIP3    H175886   2.917   1.705  13.752 -0.1982  1.4176  0.5593
18157TIP3    H275887   2.991   1.758  13.873  0.2015  1.4104  0.3165
18158TIP3   OH275888   1.739   0.527   0.843 -0.1549 -0.0419  0.0898
18158TIP3    H175889   1.693   0.517   0.927  0.1195  0.0116  0.2479
18158TIP3    H275890   1.831   0.532   0.867 -0.0320 -0.5821 -0.2642
18159TIP3   OH275891   2.800   4.243  16.909  0.2334  0.0332 -0.1121
18159TIP3    H175892   2.705   4.247  16.894  0.2947  0.0565 -0.4841
18159TIP3    H275893   2.839   4.267  16.825  0.5752 -1.2893 -0.3531
18160TIP3   OH275894   1.577   3.072  16.959 -0.0620 -0.3035 -0.1389
18160TIP3    H175895   1.622   3.023  16.891  0.2625 -0.6968  0.3483
18160TIP3    H275896   1.506   3.117  16.914 -1.2513 -2.3047 -0.4094
18161TIP3   OH275897   0.221   0.498  12.447  0.7381 -0.6466  0.1562
18161TIP3    H175898   0.211   0.588  12.478 -1.5513 -0.6898 -0.3048
18161TIP3    H275899   0.185   0.444  12.518  0.6625 -1.1128 -0.2330
18162TIP3   OH275900   3.395   3.401  16.249 -0.0359 -0.3437 -0.0736
18162TIP3    H175901   3.454   3.476  16.241 -0.1398 -0.3181 -0.6882
18162TIP3    H275902   3.395   3.380  16.342  0.8983 -0.3064 -0.0527
18163TIP3   OH275903   1.406   3.776  11.601 -0.1085 -0.5618 -0.0835
18163TIP3    H175904   1.331   3.786  11.542  0.2769 -0.8409 -0.6303
18163TIP3    H275905   1.424   3.682  11.601 -1.2965 -0.8488  1.9866
18164TIP3   OH275906   3.417   5.125   4.882  0.3381 -0.6023  0.0046
18164TIP3    H175907   3.498   5.145   4.835  0.4744  1.1950  0.9102
18164TIP3    H275908   3.351   5.182   4.842 -0.0971 -0.8426  0.3716
18165TIP3   OH275909   6.359   1.662   5.196 -0.0151 -0.1911  0.2403
18165TIP3    H175910   6.387   1.736   5.142 -0.0049 -0.2850  0.1166
18165TIP3    H275911   6.408   1.672   5.278  0.3408 -0.3213  0.0485
18166TIP3   OH275912   0.051   2.567   0.172 -0.7522 -0.3525  0.3526
18166TIP3    H175913   0.081   2.478   0.195  0.9417  0.0550 -0.0967
18166TIP3    H275914   0.114   2.624   0.215 -0.9228  0.5837 -0.6102
18167TIP3   OH275915   4.163   6.439  15.195 -0.1405  0.0095  0.1151
18167TIP3    H175916   4.208   6.443  15.280 -0.4952  0.4089  0.2914
18167TIP3    H275917   4.098   6.509  15.200  0.9656  1.1751 -1.1500
18168TIP3   OH275918   4.934   1.958   6.735  0.2423 -0.3018  0.7231
18168TIP3    H175919   4.854   1.940   6.685  1.1834  0.0049 -0.9758
18168TIP3    H275920   4.994   1.997   6.671  1.4861  0.2039  2.1396
18169TIP3   OH275921   6.028   1.820   1.447 -0.4263  0.5046 -0.3152
18169TIP3    H175922   6.089   1.866   1.389  1.1421  0.8813  1.5492
18169TIP3    H275923   6.033   1.866   1.530 -0.6176 -1.5791  0.9286
18170TIP3   OH275924   6.686   4.410  11.775 -0.2990  0.0839 -0.3371
18170TIP3    H175925   6.646   4.353  11.708 -2.3618 -0.4512  1.2487
18170TIP3    H275926   6.749   4.354  11.820 -0.0316 -0.0030 -0.8113
18171TIP3   OH275927   1.781   5.417  12.861 -0.4535  0.1022 -0.5938
18171TIP3    H175928   1.726   5.495  12.861 -1.9689 -0.7784  2.7656
18171TIP3    H275929   1.814   5.411  12.951 -2.6788 -4.4788  0.2358
18172TIP3   OH275930   0.402   6.678   0.703 -0.0783  0.1868 -0.1152
18172TIP3    H175931   0.349   6.636   0.635  2.5612  1.4438 -3.2694
18172TIP3    H275932   0.428   6.606   0.761 -1.9841 -1.0778 -0.7403
18173TIP3   OH275933   2.875   1.287  16.503  0.0282  0.3331 -0.2644
18173TIP3    H175934   2.927   1.281  16.583  2.4875 -0.3833 -1.8066
18173TIP3    H275935   2.789   1.317  16.533  0.9263  0.4019  2.5788
18174TIP3   OH275936   0.593   0.257  12.741  0.1230 -0.0861  0.2503
18174TIP3    H175937   0.546   0.242  12.659  2.0181  1.6499 -1.2665
18174TIP3    H275938   0.643   0.177  12.755 -0.5028 -0.5435 -0.0534
18175TIP3   OH275939   5.426   2.095   3.942 -0.1522 -0.2136 -0.3094
18175TIP3    H175940   5.421   2.176   3.993 -0.3084 -0.6425  0.3716
18175TIP3    H275941   5.408   2.123   3.852 -1.0952  0.3853  0.0373
18176TIP3   OH275942   0.962   5.966  12.027 -0.3783  0.2624  0.8794
18176TIP3    H175943   0.977   5.954  11.934  0.6163  0.7500  0.9692
18176TIP3    H275944   0.915   6.049  12.034  0.9726  1.0501  0.9090
18177TIP3   OH275945   2.983   2.611  12.501  0.0386  0.5522  0.0518
18177TIP3    H175946   3.009   2.662  12.424 -1.8419  1.7618  0.1570
18177TIP3    H275947   2.974   2.521  12.468 -2.9669  1.3952 -1.8168
18178TIP3   OH275948   3.801   2.560   1.384 -0.1220 -0.3915  0.0199
18178TIP3    H175949   3.814   2.651   1.410  0.3710  0.0199 -1.5647
18178TIP3    H275950   3.798   2.512   1.467  1.8998  0.7713  0.8462
18179TIP3   OH275951   4.752   1.033   0.257 -0.6640 -0.4888  0.0524
18179TIP3    H175952   4.668   1.053   0.217 -0.0502  0.3922 -0.8492
18179TIP3    H275953   4.774   1.112   0.307 -0.3891 -0.7274  0.3113
18180TIP3   OH275954   4.973   0.285   4.747 -0.1671 -0.4559 -0.1193
18180TIP3    H175955   5.016   0.361   4.708  0.2112  0.8223  2.5861
18180TIP3    H275956   5.024   0.266   4.825 -2.1007 -1.5170  0.9582
18181TIP3   OH275957   5.055   5.419   4.210 -0.4773  0.2505 -0.3853
18181TIP3    H175958   4.988   5.351   4.200 -0.5127  0.2775 -0.3352
18181TIP3    H275959   5.112   5.386   4.280 -1.2262  0.8474  0.5340
18182TIP3   OH275960   3.694   0.871  14.282  0.3690 -0.4339  0.1951
18182TIP3    H175961   3.700   0.963  14.259  1.3820 -0.4582  0.3499
18182TIP3    H275962   3.782   0.836  14.269  0.2465 -1.1442  1.1450
18183TIP3   OH275963   4.708   0.432   1.285 -0.5441  0.4062 -0.4131
18183TIP3    H175964   4.650   0.399   1.216  1.7607 -1.1763 -1.7299
18183TIP3    H275965   4.691   0.526   1.288 -2.6431  0.1078 -1.2027
18184TIP3   OH275966   1.972   4.865   2.941 -0.5034 -0.4654 -1.1065
18184TIP3    H175967   1.951   4.778   2.975  0.5893 -0.8506 -1.3676
18184TIP3    H275968   2.027   4.904   3.008 -0.2482 -0.3259 -1.3980
18185TIP3   OH275969   3.775   6.410   4.573  0.0096 -0.5706 -0.5422
18185TIP3    H175970   3.810   6.368   4.652 -1.0252 -1.0166 -0.3094
18185TIP3    H275971   3.825   6.371   4.502  0.6099 -0.5286 -0.1515
18186TIP3   OH275972   0.151   3.242  16.799  0.3536  0.1318 -0.1663
18186TIP3    H175973   0.102   3.296  16.737 -1.1140 -1.1460 -0.2041
18186TIP3    H275974   0.105   3.254  16.882  1.8394  1.2292  0.5399
18187TIP3   OH275975   5.086   2.751   2.181  0.0865 -0.2395  0.3262
18187TIP3    H175976   5.019   2.702   2.229 -2.3251 -0.3290 -2.8333
18187TIP3    H275977   5.136   2.684   2.135  1.0394 -0.0386  1.0423
18188TIP3   OH275978   2.326   6.334  12.920  0.1707 -0.1953 -0.3194
18188TIP3    H175979   2.410   6.364  12.883  0.9974 -2.5911 -0.5727
18188TIP3    H275980   2.318   6.382  13.002  1.7767  0.1399 -0.3180
18189TIP3   OH275981   6.692   4.972  13.194 -0.2295  0.0479  0.0417
18189TIP3    H175982   6.621   4.915  13.164  0.3409 -0.4202 -0.4564
18189TIP3    H275983   6.711   4.943  13.283 -0.2703 -0.2183 -0.0354
18190TIP3   OH275984   5.769   3.823  12.307 -0.1152 -0.4293 -0.4353
18190TIP3    H175985   5.825   3.893  12.271  1.0330 -1.6546 -1.1241
18190TIP3    H275986   5.829   3.769  12.358 -1.2649 -0.1686  1.2330
18191TIP3   OH275987   5.131   5.961   2.436  0.6350  0.3785 -0.8199
18191TIP3    H175988   5.063   5.946   2.502  0.4707 -1.1714 -1.2972
18191TIP3    H275989   5.093   6.024   2.375 -0.5977 -0.8201 -1.3404
18192TIP3   OH275990   0.056   1.436   1.248 -0.9636  0.1960 -0.2661
18192TIP3    H175991  -0.017   1.492   1.273  0.1140  1.1220  0.9058
18192TIP3    H275992   0.043   1.356   1.299 -2.8267 -0.9725 -2.3710
18193TIP3   OH275993   3.454   6.587  11.992 -0.3465  0.6814 -0.0050
18193TIP3    H175994   3.533   6.587  12.047 -0.9015  1.1146  0.8239
18193TIP3    H275995   3.425   6.495  11.992 -0.0429  0.5852 -0.0122
18194TIP3   OH275996   4.841   2.340  16.421 -0.7441  0.3944 -0.0255
18194TIP3    H175997   4.855   2.385  16.338 -0.5705 -0.2542 -0.3581
18194TIP3    H275998   4.907   2.376  16.480  0.0625 -0.1338 -0.5783
18195TIP3   OH275999   3.953   6.769  12.707  0.8032 -0.7716 -0.1677
18195TIP3    H176000   3.914   6.778  12.620  1.1779 -2.7125 -0.5885
18195TIP3    H276001   3.979   6.858  12.731 -1.5432  0.1965 -0.9435
18196TIP3   OH276002   1.588   4.564  13.522  0.4510 -0.6017 -0.8970
18196TIP3    H176003   1.651   4.584  13.591 -0.3081 -1.2072  0.0140
18196TIP3    H276004   1.533   4.642  13.516 -0.4222 -1.0788  0.2897
18197TIP3   OH276005   4.008   1.438  16.398  0.8440 -0.1517 -0.0407
18197TIP3    H176006   4.068   1.510  16.377  1.6150 -0.9951 -0.8414
18197TIP3    H276007   3.921   1.478  16.395  1.3231  1.0130  0.7513
18198TIP3   OH276008   5.740   0.470   1.574 -0.0178  0.1463  0.4708
18198TIP3    H176009   5.791   0.421   1.638  0.4721  0.5781  0.4165
18198TIP3    H276010   5.668   0.507   1.625 -0.2589 -0.4271  0.5545
18199TIP3   OH276011   5.749   3.146   4.128 -0.1483 -0.0081 -0.2565
18199TIP3    H176012   5.742   3.193   4.211  0.6089 -2.6105  1.4049
18199TIP3    H276013   5.820   3.084   4.141  0.8135  0.2908 -3.3381
18200TIP3   OH276014   2.221   6.071   4.410 -0.3601  0.4287  0.0682
18200TIP3    H176015   2.209   5.976   4.417 -0.5740  0.4228 -0.2895
18200TIP3    H276016   2.145   6.100   4.359 -1.6301  1.1327  2.2176
18201TIP3   OH276017   6.411   5.259  16.335 -0.0520  0.2283 -0.0627
18201TIP3    H176018   6.479   5.191  16.332  0.2741  0.4059  1.9220
18201TIP3    H276019   6.443   5.322  16.400 -0.9838  1.5941 -0.8856
18202TIP3   OH276020   2.243   2.848  17.133 -0.0279  0.3713 -1.0596
18202TIP3    H176021   2.225   2.939  17.111  1.7291  2.0119  3.3545
18202TIP3    H276022   2.338   2.843  17.140 -0.1768 -1.3019  0.4834
18203TIP3   OH276023   4.359   6.086  12.259 -0.3282  0.9254  0.3035
18203TIP3    H176024   4.403   6.147  12.318  0.8365  2.1388 -1.7165
18203TIP3    H276025   4.424   6.018  12.242 -0.5823  0.6973  0.2430
18204TIP3   OH276026   0.124   5.481   0.955 -0.7444  0.3142  0.1335
18204TIP3    H176027   0.135   5.386   0.957 -1.0287  0.2510 -0.7776
18204TIP3    H276028   0.188   5.512   0.892 -1.6816  0.5598 -0.7304
18205TIP3   OH276029   3.764   6.571   6.031  0.2016  0.1534  0.2606
18205TIP3    H176030   3.740   6.567   6.124  1.5766  0.7034  0.6615
18205TIP3    H276031   3.841   6.515   6.024  2.2725  2.8164  0.2055
18206TIP3   OH276032   2.633   2.822   1.474  0.2711  0.5243  0.2973
18206TIP3    H176033   2.570   2.823   1.546  0.5778 -0.0633  0.5783
18206TIP3    H276034   2.593   2.877   1.407 -0.4391  0.3377  0.5573
18207TIP3   OH276035   2.415   3.698   1.705  0.1037 -0.0738  0.3739
18207TIP3    H176036   2.357   3.717   1.631  1.7053 -2.9468 -1.8289
18207TIP3    H276037   2.497   3.744   1.683  0.1885  0.0997  1.0420
18208TIP3   OH276038   1.854   5.088   2.046 -0.0280  0.1433  0.1167
18208TIP3    H176039   1.906   5.036   2.107  1.5987 -0.3298 -1.5540
18208TIP3    H276040   1.767   5.092   2.085  0.6567 -1.0531  1.8950
18209TIP3   OH276041   2.700   0.692   3.957  0.2021 -0.4067 -0.8538
18209TIP3    H176042   2.651   0.751   3.900  0.9518  2.5967  1.3238
18209TIP3    H276043   2.792   0.708   3.936  0.4208 -0.8033 -0.2409
18210TIP3   OH276044   6.661   3.137  13.380 -0.4376  0.1102  0.6852
18210TIP3    H176045   6.726   3.096  13.437 -1.1017 -0.0013  1.3865
18210TIP3    H276046   6.630   3.066  13.325  2.4609  0.7905 -2.1248
18211TIP3   OH276047   1.589   2.760  12.906  0.3548 -1.1864  0.2059
18211TIP3    H176048   1.590   2.666  12.893 -0.8198 -1.1754 -0.0402
18211TIP3    H276049   1.625   2.773  12.994  0.0016 -1.8964  0.4579
18212TIP3   OH276050   2.241   5.834  16.899  0.1793 -0.3293  0.3847
18212TIP3    H176051   2.228   5.741  16.915 -0.3092 -0.5018 -0.8744
18212TIP3    H276052   2.225   5.845  16.805 -0.2465  1.1013  0.5926
18213TIP3   OH276053   1.858   2.949  12.783  0.5991  0.2256 -0.5062
18213TIP3    H176054   1.864   3.024  12.724  2.3582  1.4730  1.1359
18213TIP3    H276055   1.782   2.966  12.837 -0.0346 -0.0888 -1.2772
18214TIP3   OH276056   2.635   3.848   5.753 -0.7782  0.4464  0.2611
18214TIP3    H176057   2.695   3.790   5.706 -2.0911 -2.6498  2.0488
18214TIP3    H276058   2.572   3.876   5.686  0.0605  0.0567 -0.7204
18215TIP3   OH276059   2.984   3.342  15.905  0.2948  0.0043 -0.6541
18215TIP3    H176060   3.052   3.295  15.855  0.8772  1.5198 -1.3530
18215TIP3    H276061   3.022   3.355  15.991 -0.0234 -1.1076 -0.3295
18216TIP3   OH276062   6.688   6.024   1.024 -0.1306  0.3882  0.2728
18216TIP3    H176063   6.769   6.022   0.973  0.2145  0.1840  0.8222
18216TIP3    H276064   6.650   5.937   1.012  1.2719 -0.6043  2.4399
18217TIP3   OH276065   6.175   2.105   3.708 -0.3186 -0.7315  0.3022
18217TIP3    H176066   6.263   2.070   3.698  0.2614  0.8096 -0.2457
18217TIP3    H276067   6.171   2.179   3.648 -1.7867 -0.4029  0.7588
18218TIP3   OH276068   4.003   2.889  13.943 -0.1378 -0.1652  0.0457
18218TIP3    H176069   4.094   2.893  13.913  0.1450  0.5843  0.9610
18218TIP3    H276070   3.955   2.945  13.881  0.2528  0.4799  0.3115
18219TIP3   OH276071   6.394   2.763   4.266 -0.2785 -0.3405  0.4042
18219TIP3    H176072   6.303   2.749   4.239 -0.4750  0.8611  0.3714
18219TIP3    H276073   6.387   2.811   4.349  0.3354 -1.5140  1.1547
18220TIP3   OH276074   1.240   4.909   4.683 -0.4421  0.1531 -0.0617
18220TIP3    H176075   1.173   4.853   4.720  0.3669 -1.3249 -0.7391
18220TIP3    H276076   1.322   4.860   4.696  0.5624  2.0040  0.9686
18221TIP3   OH276077   4.834   5.558  10.594  0.6579  0.0401  0.0550
18221TIP3    H176078   4.895   5.503  10.643 -1.1018 -0.7295  1.5438
18221TIP3    H276079   4.780   5.496  10.545 -2.2645  0.1365  2.8146
18222TIP3   OH276080   6.753   1.340   2.568  0.0134  0.4143 -0.0357
18222TIP3    H176081   6.749   1.248   2.542 -0.9393 -0.0518  1.6160
18222TIP3    H276082   6.687   1.348   2.636  0.7908  2.0893  0.5644
18223TIP3   OH276083   4.127   0.016  11.274  0.1904  0.0787  0.0090
18223TIP3    H176084   4.078   0.091  11.307  1.2283  0.7562  0.0760
18223TIP3    H276085   4.087  -0.060  11.316 -1.2049  0.5345 -0.4430
18224TIP3   OH276086   1.827   2.628  11.358 -0.6560 -0.0811 -0.1230
18224TIP3    H176087   1.909   2.581  11.340 -1.0863 -0.5619 -0.8376
18224TIP3    H276088   1.854   2.703  11.412  0.2781 -0.1209 -0.5224
18225TIP3   OH276089   4.446   6.404  11.799 -0.5062  0.1192  0.3837
18225TIP3    H176090   4.457   6.353  11.878 -1.0755  0.6794  0.8323
18225TIP3    H276091   4.522   6.463  11.798 -0.9309  0.6932  0.9680
18226TIP3   OH276092   3.392   0.082   6.687  0.1854  0.2508  0.4316
18226TIP3    H176093   3.419   0.104   6.598  1.7884 -0.7133  0.6287
18226TIP3    H276094   3.470   0.041   6.726 -1.2848 -1.7274  1.4400
18227TIP3   OH276095   0.525   6.645   3.617 -0.2114 -0.3153  0.1772
18227TIP3    H176096   0.473   6.597   3.552 -3.1326  0.1191  2.0067
18227TIP3    H276097   0.565   6.716   3.567 -2.0170 -0.2405 -1.2953
18228TIP3   OH276098   5.279   4.813   5.433  0.5848 -0.3098 -0.1723
18228TIP3    H176099   5.359   4.832   5.482 -0.0006 -0.7662  1.0081
18228TIP3    H276100   5.249   4.898   5.403  0.6937  0.0520  0.7129
18229TIP3   OH276101   0.319   3.238  15.930 -0.4219 -0.3152 -0.0216
18229TIP3    H176102   0.383   3.299  15.894 -0.4915  0.4128  1.0608
18229TIP3    H276103   0.237   3.287  15.931 -0.5868 -0.5914  0.3874
18230TIP3   OH276104   4.389   2.359  10.299  0.4196  0.5611  0.4065
18230TIP3    H176105   4.453   2.407  10.246  0.0174  0.6522  0.0042
18230TIP3    H276106   4.403   2.267  10.275  0.1784  0.6095  0.0764
18231TIP3   OH276107   0.602   2.702   3.840  0.2667 -0.4867  0.4066
18231TIP3    H176108   0.511   2.679   3.859  0.7354 -0.4785  2.9655
18231TIP3    H276109   0.654   2.635   3.884  1.5688 -1.3242 -2.2076
18232TIP3   OH276110   0.378   0.613   1.739  0.0349 -0.4067  0.2934
18232TIP3    H176111   0.410   0.546   1.679 -0.4827 -1.2079  0.9035
18232TIP3    H276112   0.283   0.614   1.726 -0.0188 -0.1723  0.6788
18233TIP3   OH276113   2.662   5.258  13.020 -0.4240 -0.5192 -0.2342
18233TIP3    H176114   2.683   5.309  13.099  1.2119 -1.1808 -0.1991
18233TIP3    H276115   2.566   5.255  13.018 -0.5064  0.0951  1.3535
18234TIP3   OH276116   0.730   4.598   4.126  0.5092  0.6189  0.4048
18234TIP3    H176117   0.806   4.628   4.076  0.4503  1.6320  0.9031
18234TIP3    H276118   0.716   4.666   4.191 -0.4642  0.1447  0.7057
18235TIP3   OH276119   1.489   0.741  14.978 -0.1180  0.1733  0.2557
18235TIP3    H176120   1.541   0.664  15.003 -0.6651  0.2399  1.7351
18235TIP3    H276121   1.545   0.790  14.918 -0.3408 -2.1211 -1.9940
18236TIP3   OH276122   1.884   2.453   3.620 -0.0861 -0.1347 -0.2891
18236TIP3    H176123   1.975   2.462   3.649  0.0743  1.1727 -1.1470
18236TIP3    H276124   1.889   2.455   3.525 -0.8844 -1.6177 -0.3860
18237TIP3   OH276125   0.626   0.207  14.990  0.6732 -0.0713  0.0744
18237TIP3    H176126   0.548   0.210  14.934  0.5281 -0.7737  0.2300
18237TIP3    H276127   0.697   0.237  14.934  0.1939  1.1714  0.1102
18238TIP3   OH276128   5.861   2.782  11.012  0.0605  0.3306  0.4943
18238TIP3    H176129   5.879   2.726  10.937 -0.3638  1.5050 -0.5162
18238TIP3    H276130   5.898   2.867  10.987 -0.9087  0.9803  1.2190
18239TIP3   OH276131   4.381   3.194  14.365  0.1709  0.0234 -0.0591
18239TIP3    H176132   4.458   3.244  14.338  0.6000 -0.4661  0.2325
18239TIP3    H276133   4.315   3.212  14.298  0.8049 -0.1924 -0.7483
18240TIP3   OH276134   5.190   5.976   1.058 -0.8853  0.0066 -0.5077
18240TIP3    H176135   5.215   6.003   0.969  0.6449  2.1474  0.4841
18240TIP3    H276136   5.265   5.925   1.089 -0.8535  0.3515 -0.0103
18241TIP3   OH276137   1.700   5.266  12.104 -0.2217 -0.4984 -0.5830
18241TIP3    H176138   1.779   5.251  12.053  0.5470  0.5310  0.2647
18241TIP3    H276139   1.705   5.358  12.131 -1.3700 -0.5941  0.0520
18242TIP3   OH276140   4.127   1.681   1.477 -0.2408 -0.0438 -0.7533
18242TIP3    H176141   4.066   1.612   1.503 -1.3290  0.9673 -0.5482
18242TIP3    H276142   4.156   1.720   1.559 -0.9728  0.8550 -0.9026
18243TIP3   OH276143   5.852   5.946  15.637 -0.4726  0.6267 -0.5605
18243TIP3    H176144   5.898   5.863  15.642 -1.1340  0.1814 -1.6258
18243TIP3    H276145   5.919   6.012  15.658  0.1640 -0.1285 -0.1763
18244TIP3   OH276146   6.637   4.282  12.364 -0.2529  0.4066 -0.0946
18244TIP3    H176147   6.691   4.326  12.429  0.9372  2.3061 -2.2281
18244TIP3    H276148   6.554   4.266  12.408  0.9447  0.2987  2.2890
18245TIP3   OH276149   2.472   1.588  14.307 -0.1585 -0.4079  0.3557
18245TIP3    H176150   2.526   1.571  14.230 -1.4829 -2.8130 -0.1186
18245TIP3    H276151   2.385   1.556  14.283 -1.8217  2.9589  1.2341
18246TIP3   OH276152   1.321   1.480  15.992  0.3336  0.0254  0.3488
18246TIP3    H176153   1.278   1.565  16.004  1.5476  0.3519  3.1359
18246TIP3    H276154   1.275   1.422  16.053  1.6748 -0.4250  0.9673
18247TIP3   OH276155   1.613   5.602  16.029  0.5999 -0.1656  0.1912
18247TIP3    H176156   1.648   5.683  16.065  1.3481 -0.8883  1.1423
18247TIP3    H276157   1.597   5.546  16.105 -0.3720 -0.7364 -0.4076
18248TIP3   OH276158   2.820   1.252  17.078 -0.7031  0.6772  0.1852
18248TIP3    H176159   2.778   1.308  17.144 -0.6487  2.0658 -0.9048
18248TIP3    H276160   2.758   1.180  17.066 -0.5273  0.1706  2.0106
18249TIP3   OH276161   0.211   1.587   3.654  0.2405 -0.2757 -0.5907
18249TIP3    H176162   0.246   1.663   3.702  0.1211  1.0531 -2.5098
18249TIP3    H276163   0.283   1.560   3.598 -0.1006 -0.8712 -0.7426
18250TIP3   OH276164   0.825   2.156  15.091  0.7386  0.0528 -0.1208
18250TIP3    H176165   0.769   2.147  15.169 -0.1527  0.9088 -0.6338
18250TIP3    H276166   0.840   2.251  15.084  0.0157  0.0901 -1.5052
18251TIP3   OH276167   4.674   4.235   4.269  0.1041 -0.1116 -0.2916
18251TIP3    H176168   4.595   4.185   4.290  0.3907  0.0309  1.2756
18251TIP3    H276169   4.731   4.221   4.345  1.0488  0.8587 -0.8078
18252TIP3   OH276170   4.880   4.527   2.057 -0.9058 -0.0183 -0.3365
18252TIP3    H176171   4.866   4.515   2.151 -1.9898 -3.8361 -0.8214
18252TIP3    H276172   4.942   4.600   2.051 -0.1816 -0.1336  3.3550
18253TIP3   OH276173   2.026   5.647   2.021 -0.4331  0.0307 -0.2830
18253TIP3    H176174   1.974   5.714   1.978 -0.4411  0.5788  0.5642
18253TIP3    H276175   2.116   5.672   2.004 -0.4354 -0.3245 -0.8417
18254TIP3   OH276176   1.975   3.087  16.632  0.0610 -0.0143 -0.4322
18254TIP3    H176177   2.017   3.034  16.564  1.2331  1.1881 -0.7009
18254TIP3    H276178   2.044   3.147  16.660 -0.8586  0.5232  0.7505
18255TIP3   OH276179   5.778   6.137   5.597 -0.6567  0.1294 -0.1113
18255TIP3    H176180   5.869   6.150   5.569 -0.8262 -1.4226 -1.5336
18255TIP3    H276181   5.748   6.224   5.622  0.6430  1.0114 -1.4419
18256TIP3   OH276182   5.495   3.772   4.979  0.1987  0.3247 -0.4464
18256TIP3    H176183   5.449   3.742   5.057 -2.3535 -0.1680 -2.0258
18256TIP3    H276184   5.549   3.697   4.953  0.9457  0.4364  0.7041
18257TIP3   OH276185   3.999   0.873   4.297 -0.4768  0.2173 -0.5608
18257TIP3    H176186   3.971   0.849   4.386 -0.7728 -0.4744 -0.8301
18257TIP3    H276187   4.089   0.841   4.291 -1.6910 -3.5129 -1.8247
18258TIP3   OH276188   5.716   6.548  11.778  0.1874  0.1638  0.1381
18258TIP3    H176189   5.791   6.575  11.832 -1.2904  1.6538  1.5824
18258TIP3    H276190   5.755   6.509  11.700  2.5732  3.3746 -0.5034
18259TIP3   OH276191   1.072   3.157  15.625  0.2176  0.0236 -0.2245
18259TIP3    H176192   1.122   3.135  15.546  1.1321 -0.4103  0.4563
18259TIP3    H276193   1.029   3.240  15.604  0.5914  0.0052 -1.1078
18260TIP3   OH276194   0.433   4.918  12.048 -0.2185  0.0570  0.0862
18260TIP3    H176195   0.516   4.957  12.019 -0.5767  1.9183  1.3834
18260TIP3    H276196   0.421   4.842  11.991  2.1829 -0.0534 -0.3911
18261TIP3   OH276197   4.683   0.602   2.578  0.1543  0.1907  0.6098
18261TIP3    H176198   4.636   0.600   2.661  1.4531 -0.5691  1.3717
18261TIP3    H276199   4.654   0.683   2.536 -1.8288 -0.2778  0.9959
18262TIP3   OH276200   4.605   2.800   3.022  0.2872 -0.3493  0.4941
18262TIP3    H176201   4.673   2.867   3.033  1.2224 -1.0286 -0.8352
18262TIP3    H276202   4.651   2.726   2.983 -1.4056 -0.4765 -1.4086
18263TIP3   OH276203   3.653   0.919  11.201 -0.4330 -0.2239 -0.4788
18263TIP3    H176204   3.719   0.922  11.132 -0.0491  1.2939 -0.0771
18263TIP3    H276205   3.579   0.968  11.166 -0.4723  0.0274 -0.0465
18264TIP3   OH276206   4.859   1.723   2.421  0.0722  0.2210  0.3232
18264TIP3    H176207   4.830   1.734   2.511 -0.8813 -0.7364  0.1502
18264TIP3    H276208   4.824   1.639   2.394 -2.4995  1.8448 -1.9951
18265TIP3   OH276209   0.818   3.124  12.436 -0.0534  0.1060 -0.1721
18265TIP3    H176210   0.899   3.169  12.460  0.7319 -0.7560 -1.1566
18265TIP3    H276211   0.772   3.186  12.380 -0.4224  0.8668  0.9285
18266TIP3   OH276212   2.142   6.532   1.199  0.6699  0.3985 -0.0451
18266TIP3    H176213   2.210   6.522   1.265  0.1645 -0.2870  0.3914
18266TIP3    H276214   2.094   6.449   1.202  0.3867  0.5179 -0.9890
18267TIP3   OH276215   3.816   5.930   4.874  0.1367  0.0146  0.0273
18267TIP3    H176216   3.767   5.894   4.800 -1.7025  0.5192  0.9396
18267TIP3    H276217   3.749   5.953   4.938  1.6621 -0.2745  1.8120
18268TIP3   OH276218   3.364   6.076   2.138  0.4749 -0.4438 -0.9130
18268TIP3    H176219   3.385   6.166   2.164  0.7435 -0.9775  0.8193
18268TIP3    H276220   3.397   6.022   2.210 -0.5815 -1.8601 -1.4484
18269TIP3   OH276221   4.511   5.011   2.846 -0.1089  0.0563 -0.1955
18269TIP3    H176222   4.468   4.925   2.846 -0.8548  0.4212  0.1598
18269TIP3    H276223   4.440   5.073   2.833  0.2981  0.6788  0.4725
18270TIP3   OH276224   3.635   3.598  16.422 -0.4648  0.0723  0.2365
18270TIP3    H176225   3.565   3.623  16.483  0.5462  2.3583  0.5654
18270TIP3    H276226   3.612   3.642  16.340 -0.2090 -0.4569 -0.1223
18271TIP3   OH276227   5.997   4.561  11.364 -0.5228  0.0603  0.2345
18271TIP3    H176228   5.946   4.530  11.290 -0.1383 -1.5508  0.6013
18271TIP3    H276229   5.951   4.527  11.441 -0.6417  1.2812  0.7250
18272TIP3   OH276230   1.741   3.011  15.984 -0.1708  0.3114  0.2475
18272TIP3    H176231   1.704   2.923  15.998 -1.5625  0.3124 -2.7714
18272TIP3    H276232   1.784   3.006  15.899 -0.2342  2.5476  0.0277
18273TIP3   OH276233   5.156   6.379  11.211 -0.2115 -0.0033  0.6179
18273TIP3    H176234   5.175   6.349  11.122  0.4413 -0.1616  0.8061
18273TIP3    H276235   5.078   6.329  11.237  0.9067 -1.6657  0.9672
18274TIP3   OH276236   4.502   5.445   6.376 -0.1077  0.1698  0.0914
18274TIP3    H176237   4.523   5.384   6.447  2.1682  0.0891 -0.5726
18274TIP3    H276238   4.477   5.389   6.303  1.1704  0.0322 -0.2637
18275TIP3   OH276239   6.291   3.505  12.241 -0.1924 -0.3095 -0.6159
18275TIP3    H176240   6.336   3.585  12.270 -0.7703  0.2051 -1.1083
18275TIP3    H276241   6.362   3.442  12.227  0.2568  0.0426 -0.0214
18276TIP3   OH276242   0.005   5.604  15.422 -0.3712  0.4053 -0.2279
18276TIP3    H176243   0.073   5.626  15.358  0.0019  0.3261  0.1418
18276TIP3    H276244  -0.058   5.552  15.373  0.1795 -0.1016 -0.4015
18277TIP3   OH276245   3.764   1.886  13.964 -0.1135 -0.3434  0.0359
18277TIP3    H176246   3.852   1.918  13.981  0.6831  0.0020 -3.7834
18277TIP3    H276247   3.727   1.947  13.900 -3.2902 -0.3720  1.6009
18278TIP3   OH276248   5.853   4.970  16.020 -0.3467  0.6228  0.1637
18278TIP3    H176249   5.932   5.023  16.030 -0.5233  1.0156 -0.5113
18278TIP3    H276250   5.791   5.006  16.083  0.2299 -0.1313  1.2010
18279TIP3   OH276251   4.539   1.799   2.517 -0.0428  0.0162  0.0030
18279TIP3    H176252   4.599   1.868   2.546  0.7162 -0.0713 -1.2643
18279TIP3    H276253   4.557   1.726   2.576 -0.1333  0.5574  0.7159
18280TIP3   OH276254   5.664   4.348   3.266  0.3728  0.5570  0.3502
18280TIP3    H176255   5.597   4.325   3.330 -0.4801 -0.9426 -0.9990
18280TIP3    H276256   5.683   4.266   3.221  0.3586  1.6627 -1.8241
18281TIP3   OH276257   6.601   0.781  13.621 -0.1117  0.2833 -0.1302
18281TIP3    H176258   6.690   0.811  13.604 -1.0067  1.9504 -2.3213
18281TIP3    H276259   6.572   0.744  13.538 -1.6201  0.2198  0.4029
18282TIP3   OH276260   3.875   3.771   3.585  0.8281  0.2099  0.1546
18282TIP3    H176261   3.867   3.841   3.519  1.0128  1.1454  1.1021
18282TIP3    H276262   3.935   3.708   3.545 -2.1486 -1.3515 -2.3245
18283TIP3   OH276263   4.553   0.025   1.916  0.5632  0.2061  0.3062
18283TIP3    H176264   4.543   0.067   2.001 -1.2907  1.7376 -0.5897
18283TIP3    H276265   4.559  -0.068   1.936  1.6711  0.6198  2.1690
18284TIP3   OH276266   1.545   5.371   5.498 -0.0416  0.2405 -0.0835
18284TIP3    H176267   1.593   5.323   5.565 -1.5572  1.2244  1.7907
18284TIP3    H276268   1.609   5.434   5.464  0.5088  0.3489  1.1093
18285TIP3   OH276269   3.984   5.007  11.107  0.0422  0.1625  0.0401
18285TIP3    H176270   3.891   5.012  11.087 -0.0164 -1.1690 -0.0860
18285TIP3    H276271   4.016   4.930  11.060  0.8739 -0.3096  1.3132
18286TIP3   OH276272   6.154   0.787  16.279 -0.0561 -0.9255 -0.1313
18286TIP3    H176273   6.134   0.698  16.305  2.0876 -1.6616 -0.8129
18286TIP3    H276274   6.240   0.806  16.318  0.6761 -0.0938 -1.9953
18287TIP3   OH276275   6.151   1.244   2.341  0.3512  0.5243 -0.0668
18287TIP3    H176276   6.223   1.195   2.303  1.3675  2.3722 -0.6773
18287TIP3    H276277   6.083   1.243   2.273  0.1655 -0.4232  0.1259
18288TIP3   OH276278   1.091   0.557  12.971 -0.0670  0.0895 -0.6036
18288TIP3    H176279   1.148   0.481  12.956 -1.0098 -0.2532 -2.6732
18288TIP3    H276280   1.133   0.604  13.044  2.2374 -0.7586 -1.3045
18289TIP3   OH276281   4.304   6.515  11.159  0.0093 -0.7265 -0.0127
18289TIP3    H176282   4.394   6.482  11.165  0.9537  1.6436 -0.1201
18289TIP3    H276283   4.292   6.567  11.238 -0.4982  0.7046 -0.9975
18290TIP3   OH276284   2.004   0.433   5.660 -0.1229  0.7368  0.2919
18290TIP3    H176285   2.090   0.469   5.683  0.1653  1.2928 -1.4521
18290TIP3    H276286   1.944   0.506   5.674 -0.0528  0.8563 -0.0116
18291TIP3   OH276287   2.532   5.872   2.725 -0.0769 -0.3265 -0.1311
18291TIP3    H176288   2.602   5.919   2.770  1.2920 -1.3541 -1.0918
18291TIP3    H276289   2.494   5.936   2.666  0.2721  0.1672  0.1656
18292TIP3   OH276290   6.094   2.991   1.621 -0.5821  0.1679 -0.1449
18292TIP3    H176291   6.096   2.979   1.716 -0.8490  1.4976  0.0396
18292TIP3    H276292   6.174   3.039   1.601 -1.1490  1.0204 -0.4137
18293TIP3   OH276293   5.074   0.576  15.266  0.2230 -0.3683  0.4060
18293TIP3    H176294   5.026   0.657  15.284  0.2370 -0.5498  1.2900
18293TIP3    H276295   5.011   0.506  15.283  1.1501 -0.6780  3.0174
18294TIP3   OH276296   0.840   0.108  11.848  0.2454  0.1784  0.4451
18294TIP3    H176297   0.768   0.068  11.897 -0.0090  1.5574  1.2612
18294TIP3    H276298   0.815   0.097  11.756 -0.8840  0.4003  0.7088
18295TIP3   OH276299   3.882   5.048  16.250  0.2835 -0.3436  0.0711
18295TIP3    H176300   3.882   5.116  16.182 -0.0805 -1.7599 -1.4020
18295TIP3    H276301   3.795   5.008  16.243 -0.1379  0.1077  2.0805
18296TIP3   OH276302   4.054   5.761   6.500  0.1421 -0.2460  0.1020
18296TIP3    H176303   4.082   5.673   6.523  0.8014 -0.4625 -1.4324
18296TIP3    H276304   4.118   5.819   6.542  1.0653 -0.6079 -0.7794
18297TIP3   OH276305   3.445   3.698   2.193  0.5660  0.0814 -0.9041
18297TIP3    H176306   3.474   3.786   2.167 -1.7170  1.1794 -0.0877
18297TIP3    H276307   3.520   3.642   2.176  1.7380  1.9885 -2.5532
18298TIP3   OH276308   5.755   5.913  16.871 -0.1496  0.3134  0.2817
18298TIP3    H176309   5.751   5.867  16.787 -0.4360 -0.2491  0.5992
18298TIP3    H276310   5.664   5.932  16.892 -0.1915 -0.7072  1.0892
18299TIP3   OH276311   3.132   6.347   1.360 -0.0583  0.4622  0.5708
18299TIP3    H176312   3.152   6.369   1.269  1.0645 -0.5890  0.5353
18299TIP3    H276313   3.205   6.384   1.410  0.0974 -0.2291  0.8682
18300TIP3   OH276314   2.403   0.659   3.302  0.1596  0.2813  0.0972
18300TIP3    H176315   2.362   0.588   3.251 -0.3998  1.0260 -0.5174
18300TIP3    H276316   2.452   0.709   3.237 -1.1259  1.6509  0.1342
18301TIP3   OH276317   4.160   4.025   6.267  0.0587  0.6453  0.2049
18301TIP3    H176318   4.080   4.067   6.299  0.4306  0.8186  0.9306
18301TIP3    H276319   4.227   4.093   6.276  0.8155 -0.2893  2.0365
18302TIP3   OH276320   1.079   6.594  15.265  0.1976  0.3051  0.1891
18302TIP3    H176321   1.142   6.526  15.292  0.4911  0.3497 -0.3843
18302TIP3    H276322   1.015   6.548  15.211  0.6827  0.5713 -0.6300
18303TIP3   OH276323   6.303   2.860  15.607  0.2451 -0.2579 -0.0541
18303TIP3    H176324   6.235   2.928  15.599  0.5624  0.1017  0.2552
18303TIP3    H276325   6.375   2.891  15.552  0.1613 -0.6404 -0.3827
18304TIP3   OH276326   2.842   5.094  10.867 -0.0110 -0.2196 -0.2829
18304TIP3    H176327   2.814   5.113  10.957 -0.6251 -1.3138 -0.2242
18304TIP3    H276328   2.925   5.047  10.877 -0.6216 -1.3149 -0.2188
18305TIP3   OH276329   5.108   5.401   5.257 -0.1729  0.3068  0.4057
18305TIP3    H176330   5.119   5.375   5.166 -0.8541  3.0501 -0.5728
18305TIP3    H276331   5.014   5.391   5.274  0.1899 -1.8179  1.4219
18306TIP3   OH276332   6.710   2.938  12.275  0.0838  0.3267 -0.0331
18306TIP3    H176333   6.636   2.975  12.322 -0.3661 -0.2802 -0.2584
18306TIP3    H276334   6.763   3.014  12.251  0.0724  0.6831  1.0166
18307TIP3   OH276335   1.547   2.592  13.220  0.0178 -0.0132  0.6581
18307TIP3    H176336   1.579   2.679  13.194  0.5272 -0.3763  0.0335
18307TIP3    H276337   1.610   2.531  13.181 -0.4773 -0.6766  0.8785
18308TIP3   OH276338   2.501   2.711  14.366  0.1014  0.3939  0.0668
18308TIP3    H176339   2.583   2.662  14.374  0.2230  0.8769  2.5083
18308TIP3    H276340   2.514   2.789  14.420 -1.7069  0.8655 -0.1182
18309TIP3   OH276341   0.779   1.967   1.125 -0.4429 -0.4316 -0.5490
18309TIP3    H176342   0.796   1.882   1.167 -0.1207 -0.6184 -1.0338
18309TIP3    H276343   0.830   2.030   1.176  0.0295 -0.6706 -0.7135
18310TIP3   OH276344   2.641   4.474  12.114 -0.4375 -0.5146 -0.0029
18310TIP3    H176345   2.584   4.506  12.184 -1.3862 -1.0047 -0.5320
18310TIP3    H276346   2.616   4.524  12.037 -0.2895 -0.8725 -0.2872
18311TIP3   OH276347   3.381   3.568  11.962  0.0348 -0.5561 -0.0529
18311TIP3    H176348   3.383   3.515  12.041  0.7888  0.4542  0.6353
18311TIP3    H276349   3.460   3.542  11.914  0.7071  0.3004  0.5527
18312TIP3   OH276350   4.293   2.127   4.605  0.6014 -0.5106 -0.1900
18312TIP3    H176351   4.384   2.103   4.584  1.1117  0.7137  0.5329
18312TIP3    H276352   4.258   2.158   4.522  1.4158  0.6756 -0.1210
18313TIP3   OH276353   6.552   0.997  11.340 -0.1441  0.6753 -0.2125
18313TIP3    H176354   6.616   1.065  11.320  1.7892 -0.6658  1.0008
18313TIP3    H276355   6.522   0.966  11.255  1.0823  1.1222 -0.8229
18314TIP3   OH276356   4.234   5.929   2.686  0.1194  0.0028  0.2169
18314TIP3    H176357   4.244   5.895   2.597 -1.3415 -0.0643  0.0573
18314TIP3    H276358   4.277   5.864   2.741  0.6398 -0.1820 -0.3901
18315TIP3   OH276359   5.372   3.790  14.104  0.0379 -0.0759 -0.2007
18315TIP3    H176360   5.281   3.797  14.076 -0.0755  0.5321  0.3040
18315TIP3    H276361   5.420   3.765  14.025 -0.3129  1.3577 -0.8870
18316TIP3   OH276362   2.303   1.195   2.360 -0.0193  0.5539  0.2105
18316TIP3    H176363   2.270   1.167   2.445  0.7093  0.2937  0.4138
18316TIP3    H276364   2.365   1.265   2.380  1.4117 -0.6191  0.0404
18317TIP3   OH276365   0.308   0.034  12.094  0.0360  0.1664  0.3792
18317TIP3    H176366   0.226  -0.009  12.116  0.8807 -3.3940 -2.3347
18317TIP3    H276367   0.283   0.108  12.039 -1.4482 -0.8988 -0.4658
18318TIP3   OH276368   2.456   5.384  16.858 -0.2088  0.0473  0.0614
18318TIP3    H176369   2.449   5.316  16.791  1.5374  0.5781 -0.7248
18318TIP3    H276370   2.542   5.369  16.898  0.2258  1.8034 -0.1508
18319TIP3   OH276371   4.123   1.076  12.597 -0.5701 -0.2320 -0.4168
18319TIP3    H176372   4.136   1.107  12.686  1.8924  2.9667 -1.7173
18319TIP3    H276373   4.070   1.144  12.555  2.9110  1.2886 -2.7381
18320TIP3   OH276374   6.390   5.208  15.848  0.0110 -0.1192 -1.1338
18320TIP3    H176375   6.464   5.171  15.800 -0.1426 -1.4186 -0.4018
18320TIP3    H276376   6.352   5.134  15.894 -1.2760  0.6836 -0.8731
18321TIP3   OH276377   3.510   4.509  16.212 -0.1368  0.1521 -0.5318
18321TIP3    H176378   3.520   4.440  16.146 -2.5227 -0.7791 -0.0276
18321TIP3    H276379   3.432   4.558  16.185 -3.3455 -2.3365  3.1145
18322TIP3   OH276380   2.468   0.863   0.336 -0.2068 -0.0405  0.2794
18322TIP3    H176381   2.561   0.878   0.354  0.2802  1.2788 -2.7525
18322TIP3    H276382   2.425   0.871   0.421  2.1828  1.5665  1.4346
18323TIP3   OH276383   1.884   4.332  15.979  0.0346 -0.2448  0.0185
18323TIP3    H176384   1.816   4.387  16.018  1.5632  1.0260  1.0287
18323TIP3    H276385   1.906   4.269  16.047  0.7881  0.2088  0.2031
18324TIP3   OH276386   1.804   1.642   5.547  0.5042  0.3300  0.8893
18324TIP3    H176387   1.812   1.585   5.624 -0.9473  0.4085  1.1398
18324TIP3    H276388   1.773   1.584   5.478  1.5534  0.3137  0.4178
18325TIP3   OH276389   0.662   1.347   0.670  0.7949  0.9138  0.1626
18325TIP3    H176390   0.670   1.253   0.684 -0.6209  0.8694  0.8119
18325TIP3    H276391   0.750   1.381   0.685  1.4632 -0.3711 -0.7088
18326TIP3   OH276392   0.302   3.147   5.305  0.0705  0.4840  0.3800
18326TIP3    H176393   0.245   3.189   5.241 -1.1659 -0.4329  0.8436
18326TIP3    H276394   0.260   3.165   5.390  0.1085 -0.7287  0.6775
18327TIP3   OH276395   3.374   3.958  14.892 -0.1298  0.9917 -0.4646
18327TIP3    H176396   3.410   3.999  14.813  2.0063  0.4599  0.1870
18327TIP3    H276397   3.308   4.021  14.923 -0.0329  1.8509 -1.9012
18328TIP3   OH276398   3.801   1.866  13.172  0.8053  0.2825 -0.8966
18328TIP3    H176399   3.807   1.901  13.261  2.1429 -0.5853 -0.6153
18328TIP3    H276400   3.808   1.943  13.115 -0.3646  0.8764 -0.2797
18329TIP3   OH276401   1.828   2.049  17.012 -0.2204  0.1122 -0.0783
18329TIP3    H176402   1.772   1.971  17.011 -0.1278  0.0453 -0.4348
18329TIP3    H276403   1.797   2.100  17.087 -0.2000 -0.3250  0.2314
18330TIP3   OH276404   6.134   0.248   3.103 -0.0955 -0.3647  0.4226
18330TIP3    H176405   6.101   0.164   3.071 -0.4854 -0.6966  1.6558
18330TIP3    H276406   6.222   0.229   3.135 -0.0797 -0.2458  0.4509
18331TIP3   OH276407   1.245   3.336   5.705  0.3102 -0.3504 -0.2635
18331TIP3    H176408   1.256   3.287   5.787  1.5165 -1.0736 -0.8204
18331TIP3    H276409   1.261   3.271   5.636  2.6347  0.9238 -1.0279
18332TIP3   OH276410   3.372   1.815  10.359 -0.1141  0.4413  0.2217
18332TIP3    H176411   3.318   1.828  10.437  0.7860  0.4034  0.8636
18332TIP3    H276412   3.309   1.807  10.287 -1.0078 -0.5210  1.0739
18333TIP3   OH276413   6.772   3.334   0.071  0.1553  0.2711 -0.4439
18333TIP3    H176414   6.710   3.395   0.032  1.3848  1.4036 -0.6902
18333TIP3    H276415   6.723   3.251   0.078 -1.7171  1.3710  0.3637
18334TIP3   OH276416   2.555   0.144  16.035 -0.6112 -0.1066  0.4122
18334TIP3    H176417   2.584   0.170  15.948 -0.2594  0.3648  0.6700
18334TIP3    H276418   2.461   0.132  16.026 -0.7024  0.7385  0.1599
18335TIP3   OH276419   5.686   4.490   0.028  0.0262  0.7050 -0.7483
18335TIP3    H176420   5.732   4.548  -0.032  1.1470  0.6961  0.0734
18335TIP3    H276421   5.638   4.550   0.086  0.4835  0.7982 -0.4552
18336TIP3   OH276422   1.189   3.009   3.709  0.0319  0.5146 -0.2929
18336TIP3    H176423   1.150   3.018   3.622 -0.4162  0.8170 -0.0686
18336TIP3    H276424   1.125   3.050   3.767  0.5417  0.7245  0.1237
18337TIP3   OH276425   0.259   0.978   5.161 -0.4538 -0.1915 -0.1153
18337TIP3    H176426   0.182   1.031   5.181 -0.5174 -0.1927 -0.3597
18337TIP3    H276427   0.224   0.897   5.125 -0.5104 -1.5698  2.7604
18338TIP3   OH276428   3.520   2.614  11.524  0.2508 -0.5236 -0.3382
18338TIP3    H176429   3.598   2.670  11.524  0.3101 -0.6033 -0.0658
18338TIP3    H276430   3.512   2.585  11.615 -0.2669 -0.2732 -0.2991
18339TIP3   OH276431   0.475   1.922   0.514 -0.3906 -0.2602  0.0149
18339TIP3    H176432   0.482   1.840   0.563 -2.2784 -0.0091  0.7923
18339TIP3    H276433   0.445   1.895   0.427  3.3386 -0.7454 -1.3298
18340TIP3   OH276434   2.304   6.770  16.793 -0.0277  0.3509 -0.6298
18340TIP3    H176435   2.321   6.768  16.699 -0.6836 -1.5021 -0.7556
18340TIP3    H276436   2.248   6.694  16.809  2.8917 -1.5750  1.7553
18341TIP3   OH276437   2.481   3.534  10.436 -0.3689  0.8559  0.0766
18341TIP3    H176438   2.523   3.448  10.444  1.0512  1.3949 -1.0016
18341TIP3    H276439   2.387   3.516  10.436 -0.0958 -0.7808 -0.7912
18342TIP3   OH276440   4.001   0.704  14.559  0.1033 -0.0675  0.2788
18342TIP3    H176441   3.912   0.708  14.592 -0.8623  0.3696 -2.1595
18342TIP3    H276442   4.010   0.783  14.505  1.4104 -0.8746 -0.7577
18343TIP3   OH276443   5.737   1.948   6.562  0.5797  0.0015 -0.1082
18343TIP3    H176444   5.678   1.913   6.495  0.0088 -0.9875  0.8696
18343TIP3    H276445   5.684   2.011   6.610 -0.3423 -2.1648  1.9054
18344TIP3   OH276446   2.379   3.650  15.870 -0.0701 -0.2167  0.1555
18344TIP3    H176447   2.399   3.643  15.777 -0.7220 -2.5882  0.1382
18344TIP3    H276448   2.293   3.693  15.873  1.1199  2.3772 -0.1319
18345TIP3   OH276449   1.529   0.722  14.295 -0.3431 -0.5960  0.2165
18345TIP3    H176450   1.449   0.681  14.329 -0.3736 -0.6481  0.0822
18345TIP3    H276451   1.500   0.805  14.259 -0.5662 -1.2186 -1.0882
18346TIP3   OH276452   0.038   1.834   2.211 -0.0624 -0.2586 -0.4256
18346TIP3    H176453  -0.029   1.773   2.182 -0.0272 -0.5876  0.1703
18346TIP3    H276454   0.106   1.779   2.250 -0.4000  0.1853  0.8558
18347TIP3   OH276455   3.104   0.855  11.211  0.0091 -0.1732  0.6088
18347TIP3    H176456   3.092   0.934  11.264 -1.2495  0.4219 -0.5119
18347TIP3    H276457   3.161   0.882  11.139  0.1004 -0.4610  0.5687
18348TIP3   OH276458   2.748   5.700  11.413 -0.1357  0.5197  0.3911
18348TIP3    H176459   2.795   5.625  11.450  0.4884  1.1803  0.9464
18348TIP3    H276460   2.751   5.686  11.319  1.4362  0.6953  0.3945
18349TIP3   OH276461   0.428   3.712  14.207 -0.3781 -0.2596 -0.3058
18349TIP3    H176462   0.345   3.758  14.219 -0.6789 -0.0574 -2.6821
18349TIP3    H276463   0.494   3.775  14.236 -0.8972  1.0488 -1.7699
18350TIP3   OH276464   4.283   1.704  13.135  0.3918  0.3154 -0.3075
18350TIP3    H176465   4.191   1.696  13.111  0.6286 -0.2662 -1.0386
18350TIP3    H276466   4.310   1.789  13.101  0.6826 -0.4264 -2.0223
18351TIP3   OH276467   1.702   4.159   2.843  0.3253  0.0950  0.3135
18351TIP3    H176468   1.629   4.098   2.851 -0.4205  0.2237 -3.5488
18351TIP3    H276469   1.778   4.103   2.829  0.4171  0.0240  1.0472
18352TIP3   OH276470   5.011   1.212   6.264  0.3281 -0.5403 -0.0043
18352TIP3    H176471   5.095   1.228   6.308  0.1039  2.4373 -0.4519
18352TIP3    H276472   4.947   1.260   6.316 -0.6135 -0.3830 -1.2600
18353TIP3   OH276473   6.679   1.349  14.907  0.1669  0.9385  0.1810
18353TIP3    H176474   6.706   1.333  14.817 -2.7739  0.1105 -0.6486
18353TIP3    H276475   6.730   1.287  14.959  1.4561  1.0149 -0.9477
18354TIP3   OH276476   4.093   1.903  10.809  0.5859  0.0215  0.3732
18354TIP3    H176477   4.100   1.998  10.800  0.0240  0.0209 -0.1961
18354TIP3    H276478   4.033   1.891  10.882 -0.2127  0.1327 -0.2431
18355TIP3   OH276479   5.995   5.997  12.481  0.2015  0.0544 -0.6469
18355TIP3    H176480   6.033   6.082  12.460  0.0894  0.7613  1.7953
18355TIP3    H276481   5.908   6.017  12.516 -0.5668 -1.2176 -1.7308
18356TIP3   OH276482   2.292   1.478  15.814 -0.1063 -0.0780 -0.0094
18356TIP3    H176483   2.203   1.485  15.847 -0.1294  0.6765 -0.2066
18356TIP3    H276484   2.295   1.539  15.740  0.0540 -1.4066 -1.1621
18357TIP3   OH276485   6.646   5.487   0.229  0.5031  0.2529 -0.2745
18357TIP3    H176486   6.639   5.410   0.172  1.0856 -0.0306  0.0318
18357TIP3    H276487   6.644   5.561   0.169  1.4443 -0.0550 -0.7071
18358TIP3   OH276488   6.596   6.587   5.389  0.1543 -0.3605  0.0029
18358TIP3    H176489   6.580   6.589   5.294 -0.4636  0.3150  0.1119
18358TIP3    H276490   6.689   6.566   5.397  0.4410  0.5200 -0.7765
18359TIP3   OH276491   5.126   5.690   0.805  0.3911  0.3892  0.0299
18359TIP3    H176492   5.170   5.770   0.778  2.1733 -0.9822 -1.3839
18359TIP3    H276493   5.126   5.693   0.901  0.9089  1.8047 -0.0013
18360TIP3   OH276494   4.675   5.341  12.360  0.5675 -0.5168  0.0526
18360TIP3    H176495   4.677   5.408  12.292  1.4752 -0.6538 -0.0688
18360TIP3    H276496   4.596   5.359  12.409  0.9096  0.7766  0.1521
18361TIP3   OH276497   3.323   3.449   6.023 -0.0816 -0.1384  0.3300
18361TIP3    H176498   3.402   3.396   6.031 -0.7239 -1.0496  0.8354
18361TIP3    H276499   3.354   3.534   5.993  0.8680 -1.1217 -1.7069
18362TIP3   OH276500   6.111   4.795   1.429  0.7694  0.4886 -0.0161
18362TIP3    H176501   6.112   4.751   1.514  0.9898 -0.6348 -0.5697
18362TIP3    H276502   6.148   4.730   1.368  0.0664  1.0471 -1.0742
18363TIP3   OH276503   1.493   0.747  13.747 -0.6238 -0.2010  0.3855
18363TIP3    H176504   1.411   0.795  13.744 -1.0532 -0.9310 -1.5277
18363TIP3    H276505   1.561   0.815  13.747 -1.2143  0.5103 -1.9834
18364TIP3   OH276506   2.702   2.623  16.009  0.0599 -0.1565 -0.2170
18364TIP3    H176507   2.751   2.623  16.091  2.1369  0.0122 -1.3885
18364TIP3    H276508   2.673   2.714  15.997  0.6432  0.0350 -0.1711
18365TIP3   OH276509   2.620   3.161   4.269 -0.6888 -0.9716 -0.1548
18365TIP3    H176510   2.534   3.196   4.292 -0.4941  0.7451 -1.7492
18365TIP3    H276511   2.625   3.172   4.174  0.9187 -1.9220 -0.2119
18366TIP3   OH276512   1.141   0.438   0.167  0.9172 -0.1556  0.4597
18366TIP3    H176513   1.225   0.394   0.181  1.7384  0.8628 -1.0293
18366TIP3    H276514   1.144   0.467   0.076 -0.3771  1.3212  0.8456
18367TIP3   OH276515   1.178   0.286  13.264  0.2553  0.0528  0.1291
18367TIP3    H176516   1.253   0.266  13.319  0.4518  0.6529  0.0883
18367TIP3    H276517   1.216   0.315  13.181 -0.0038  1.0586  0.3546
18368TIP3   OH276518   2.925   4.994  15.667  0.2390 -0.0009  0.2630
18368TIP3    H176519   2.930   5.065  15.603  0.9136  0.6879  1.0537
18368TIP3    H276520   2.837   5.000  15.703 -0.1734 -0.4426 -0.6367
18369TIP3   OH276521   0.667   5.412   2.797  0.2132  0.3847 -0.4143
18369TIP3    H176522   0.736   5.368   2.847 -0.3700  0.0402  0.0913
18369TIP3    H276523   0.669   5.503   2.828 -1.1036 -0.1370  1.3105
18370TIP3   OH276524   1.646   4.122  14.763  0.5337 -0.5530 -0.5589
18370TIP3    H176525   1.659   4.027  14.758  0.5894 -0.5735 -0.1072
18370TIP3    H276526   1.725   4.160  14.726  1.2699 -0.6815  0.8232
18371TIP3   OH276527   4.474   5.360  14.488 -0.3540  0.6503  0.3227
18371TIP3    H176528   4.477   5.395  14.577 -1.0484  1.2307  0.1235
18371TIP3    H276529   4.387   5.321  14.481 -0.0959  0.1194  0.0780
18372TIP3   OH276530   1.255   4.660  12.517  0.1378  0.0376  0.5298
18372TIP3    H176531   1.333   4.701  12.480 -0.0200  0.9473  1.1821
18372TIP3    H276532   1.240   4.706  12.599  0.1463 -1.5660  1.4591
18373TIP3   OH276533   0.290   3.691  15.447 -0.2201 -0.0503  0.3476
18373TIP3    H176534   0.342   3.771  15.448 -1.5307  0.8206  1.0152
18373TIP3    H276535   0.239   3.694  15.527 -1.8308 -0.5161 -0.6138
18374TIP3   OH276536   3.682   2.750  11.005 -0.4953 -0.4550 -0.4689
18374TIP3    H176537   3.612   2.691  10.975 -2.4018  0.9396  1.0291
18374TIP3    H276538   3.728   2.774  10.925 -3.2851  0.4729 -1.9493
18375TIP3   OH276539   3.383   5.186  13.554 -0.8031  0.4766 -0.4188
18375TIP3    H176540   3.366   5.279  13.536 -2.8149  0.1147 -0.5935
18375TIP3    H276541   3.337   5.169  13.636 -0.9878 -0.5153 -0.7221
18376TIP3   OH276542   5.314   4.417   4.614 -0.1945 -0.5542  0.0907
18376TIP3    H176543   5.370   4.342   4.591 -0.1106 -0.1936 -0.9424
18376TIP3    H276544   5.329   4.430   4.707  1.5845 -0.3682 -0.1918
18377TIP3   OH276545   4.911   0.113  16.756 -0.1457  0.1304 -1.1134
18377TIP3    H176546   4.987   0.057  16.737  0.3201 -0.0407  0.9921
18377TIP3    H276547   4.916   0.128  16.850 -2.5799  0.3796 -0.9791
18378TIP3   OH276548   4.801   1.301   6.435  0.1492 -0.3043  0.0650
18378TIP3    H176549   4.763   1.218   6.460 -1.6248  0.7163  0.9493
18378TIP3    H276550   4.730   1.364   6.443  1.6502  1.4656  0.3419
18379TIP3   OH276551   5.705   5.597   0.890 -0.0635 -0.7203  0.2770
18379TIP3    H176552   5.638   5.661   0.915  0.5117 -0.5880  1.5234
18379TIP3    H276553   5.722   5.548   0.970 -0.2661 -2.2421 -0.5837
18380TIP3   OH276554   1.289   0.960  13.803  0.4293  0.0421 -0.5072
18380TIP3    H176555   1.214   0.952  13.863  0.0060  1.0346 -0.8842
18380TIP3    H276556   1.266   1.032  13.745  0.8793 -0.8486 -1.8274
18381TIP3   OH276557   5.326   6.408  13.514  0.1597  0.6380 -0.6971
18381TIP3    H176558   5.387   6.427  13.443  2.5591 -0.6338  0.8927
18381TIP3    H276559   5.302   6.316  13.500  0.6487  0.3809  0.1121
18382TIP3   OH276560   1.221   6.741  14.790 -0.0104 -0.5532  0.0158
18382TIP3    H176561   1.247   6.733  14.882  0.0370 -2.8199 -0.1346
18382TIP3    H276562   1.141   6.793  14.792  1.0492  1.1193  1.1038
18383TIP3   OH276563   0.818   4.965   4.519 -0.1858  0.4016  0.7156
18383TIP3    H176564   0.810   4.945   4.612  0.0570  1.1790  0.9124
18383TIP3    H276565   0.882   5.036   4.515  0.4631 -0.1912 -0.1210
18384TIP3   OH276566   2.072   1.453   1.278  0.4032  0.0152  0.3018
18384TIP3    H176567   1.995   1.470   1.333  1.3705  4.1805  0.7355
18384TIP3    H276568   2.139   1.424   1.340  0.2969  0.5089  0.6630
18385TIP3   OH276569   2.290   6.216   3.651 -0.4143 -0.2647  0.1278
18385TIP3    H176570   2.379   6.217   3.616  0.0939  1.8948  1.2571
18385TIP3    H276571   2.240   6.271   3.591 -0.3181  0.6919  0.8801
18386TIP3   OH276572   3.562   1.121   5.603  0.2211  0.7628  0.3005
18386TIP3    H176573   3.640   1.102   5.655  0.3642  1.1704  0.2370
18386TIP3    H276574   3.562   1.216   5.592 -0.4279  0.7997  0.5251
18387TIP3   OH276575   3.766   6.127  13.500  0.0487  0.0608  0.4209
18387TIP3    H176576   3.783   6.033  13.510 -0.5043  0.0757  1.6549
18387TIP3    H276577   3.671   6.136  13.513 -0.0201  0.7166 -0.3895
18388TIP3   OH276578   4.688   0.957   5.498  0.9540  0.0552 -0.9058
18388TIP3    H176579   4.699   0.897   5.572  2.8119  0.9280 -0.4040
18388TIP3    H276580   4.764   1.016   5.503 -1.1603  3.0076 -0.8705
18389TIP3   OH276581   0.541   6.155  13.988 -0.3981  0.1971  0.0152
18389TIP3    H176582   0.580   6.239  13.965 -0.5246 -0.2177 -1.8973
18389TIP3    H276583   0.448   6.165  13.966 -0.3228 -0.5868 -0.7030
18390TIP3   OH276584   2.269   0.365   2.408  0.2418 -0.1256  0.2942
18390TIP3    H176585   2.355   0.321   2.412  0.2354 -0.2200 -0.4536
18390TIP3    H276586   2.290   0.455   2.382  0.2699  0.3895  1.9972
18391TIP3   OH276587   5.029   3.893   2.351 -0.2599 -0.2598  0.3486
18391TIP3    H176588   5.000   3.983   2.361  0.8051  0.4258 -2.0389
18391TIP3    H276589   4.949   3.843   2.336 -0.8298  0.3098  1.4232
18392TIP3   OH276590   2.236   3.200   3.667  0.0132  0.3453 -0.1113
18392TIP3    H176591   2.297   3.210   3.740  2.0951  1.3916 -1.8666
18392TIP3    H276592   2.155   3.240   3.698  0.6111  0.1694  1.8253
18393TIP3   OH276593   2.496   3.322   4.643 -0.6749 -0.1973  0.3270
18393TIP3    H176594   2.417   3.333   4.696  0.7030 -0.0930  2.5030
18393TIP3    H276595   2.543   3.250   4.686 -0.3851 -1.4982 -2.0007
18394TIP3   OH276596   3.918   1.224   2.525 -0.6864 -0.3311  0.2324
18394TIP3    H176597   3.984   1.273   2.475  0.1341  0.0502  1.6221
18394TIP3    H276598   3.851   1.290   2.546 -1.3379 -0.6327 -0.8658
18395TIP3   OH276599   5.311   5.987  12.786 -0.2703 -0.3493 -0.0907
18395TIP3    H176600   5.399   5.955  12.767 -0.7963 -1.5427 -0.6243
18395TIP3    H276601   5.293   6.050  12.715  0.6393  0.9442  0.7780
18396TIP3   OH276602   4.671   2.071   0.499 -0.1022  0.6194 -0.0236
18396TIP3    H176603   4.600   2.037   0.444 -1.2379  1.8977  0.5962
18396TIP3    H276604   4.630   2.140   0.550  2.1572  3.2707 -1.5353
18397TIP3   OH276605   6.526   2.470   3.702 -0.5169 -0.3267 -0.0230
18397TIP3    H176606   6.466   2.498   3.632  0.6891  0.3315 -0.8187
18397TIP3    H276607   6.484   2.392   3.739 -1.8958  0.1524 -0.5027
18398TIP3   OH276608   0.354   2.914  16.945  0.6865 -0.1365  0.0867
18398TIP3    H176609   0.418   2.843  16.948  1.3547  0.2940 -2.0280
18398TIP3    H276610   0.314   2.915  17.032  0.9197 -2.8325  0.3020
18399TIP3   OH276611   2.558   5.475  12.290  0.0863 -0.3123  0.3685
18399TIP3    H176612   2.608   5.423  12.352 -0.4010 -0.6250  0.5054
18399TIP3    H276613   2.493   5.521  12.343 -1.7603 -2.2258 -0.0896
18400TIP3   OH276614   2.613   0.450  11.369 -0.3649  0.1337 -0.5227
18400TIP3    H176615   2.708   0.446  11.376 -0.2485  1.3957 -1.0795
18400TIP3    H276616   2.591   0.388  11.300  0.1709  0.6835 -1.1968
18401TIP3   OH276617   1.025   1.317  16.967  0.1740 -0.2272 -0.0825
18401TIP3    H176618   1.051   1.390  16.911  2.4431 -2.0977 -1.6830
18401TIP3    H276619   1.092   1.314  17.036  0.0228 -0.6824  0.0498
18402TIP3   OH276620   5.822   6.529   5.371 -0.1984 -0.3718  0.4810
18402TIP3    H176621   5.778   6.446   5.354  2.1750 -1.7938  0.9162
18402TIP3    H276622   5.853   6.522   5.461  0.5300  0.7488  0.3386
18403TIP3   OH276623   5.502   6.270   6.185 -0.1553  0.4862 -0.4848
18403TIP3    H176624   5.485   6.360   6.158 -0.3437  0.1144 -1.6507
18403TIP3    H276625   5.416   6.229   6.191  0.0292 -0.2826 -2.4124
18404TIP3   OH276626   2.252   4.771  12.318  0.6410  0.3815  0.5357
18404TIP3    H176627   2.275   4.824  12.242  2.3465  0.4440  1.0694
18404TIP3    H276628   2.183   4.821  12.363 -2.2353 -0.7736 -2.1893
18405TIP3   OH276629   4.696   0.987  10.713  0.0400 -0.1087 -0.6007
18405TIP3    H176630   4.631   0.922  10.740  0.9321 -0.9591 -0.4647
18405TIP3    H276631   4.756   0.940  10.657  1.2811  0.3383  0.3022
18406TIP3   OH276632   1.147   5.559  17.151 -0.1122  0.0977 -0.2288
18406TIP3    H176633   1.174   5.630  17.210 -0.5335 -0.1485  0.2620
18406TIP3    H276634   1.176   5.479  17.194  0.0263 -0.0567 -0.6010
18407TIP3   OH276635   5.991   1.218  14.228 -0.6453  0.1223 -0.3455
18407TIP3    H176636   5.901   1.190  14.242 -0.2749 -0.5645  0.8607
18407TIP3    H276637   6.042   1.169  14.293  0.6859  0.0399 -1.3975
18408TIP3   OH276638   1.175   4.036   5.745 -0.2438  0.0739  0.6962
18408TIP3    H176639   1.133   4.048   5.831  0.9439  2.0488  1.0612
18408TIP3    H276640   1.128   3.962   5.706 -0.8584 -0.8407  3.0061
18409TIP3   OH276641   5.197   2.449   0.943  0.2452  0.0924 -0.0928
18409TIP3    H176642   5.193   2.523   1.003 -2.2053 -0.2864  0.3507
18409TIP3    H276643   5.158   2.483   0.862 -0.6688 -0.5966  0.0367
18410TIP3   OH276644   0.741   6.439   2.235 -0.2386  0.0157 -0.0726
18410TIP3    H176645   0.827   6.411   2.205 -0.1019  0.5172 -0.1647
18410TIP3    H276646   0.756   6.474   2.323 -0.3513  0.0794 -0.0782
18411TIP3   OH276647   1.643   6.069   6.611  0.4671 -0.1395 -0.4011
18411TIP3    H176648   1.666   6.119   6.689  1.4721 -0.4455 -0.4873
18411TIP3    H276649   1.593   5.994   6.644  0.4297  0.0162 -0.1051
18412TIP3   OH276650   0.856   3.756   5.328  0.1682 -0.2389 -0.3702
18412TIP3    H176651   0.905   3.753   5.410  1.7577 -0.1882 -1.2781
18412TIP3    H276652   0.837   3.664   5.308  1.3696 -0.4000 -0.8379
18413TIP3   OH276653   6.205   3.678  14.407  0.2062 -1.0221 -1.2267
18413TIP3    H176654   6.190   3.598  14.458 -0.3290 -0.2728 -0.1701
18413TIP3    H276655   6.146   3.742  14.446  2.3064  0.5561 -0.4479
18414TIP3   OH276656   5.899   2.645   4.077  0.2858  0.0704  0.0489
18414TIP3    H176657   5.886   2.581   4.148 -0.9128 -1.2979 -1.3351
18414TIP3    H276658   5.813   2.686   4.066 -0.2671 -1.4903 -2.1760
18415TIP3   OH276659   1.475   0.609   4.933 -0.3155 -0.1198  0.4383
18415TIP3    H176660   1.498   0.682   4.990 -0.5333 -2.0415  3.1540
18415TIP3    H276661   1.555   0.557   4.926 -0.9490 -1.2278  1.1267
18416TIP3   OH276662   1.777   3.347   4.754 -0.0384 -0.0169  0.2750
18416TIP3    H176663   1.840   3.364   4.825  0.1022 -0.4890  0.2645
18416TIP3    H276664   1.694   3.333   4.799  0.5076 -2.8946  0.5870
18417TIP3   OH276665   4.653   4.926  12.039  0.1998  0.7892 -0.0248
18417TIP3    H176666   4.723   4.990  12.054  1.0757 -0.5303  1.7934
18417TIP3    H276667   4.573   4.971  12.069  0.9169  0.8014  1.9908
18418TIP3   OH276668   3.672   6.497  15.826  0.6814 -0.2456 -0.2856
18418TIP3    H176669   3.644   6.474  15.737  0.8976  0.2558 -0.4874
18418TIP3    H276670   3.745   6.439  15.845 -1.6542 -2.9906  1.0014
18419TIP3   OH276671   5.058   2.506  16.536  0.0632  0.1712 -0.3102
18419TIP3    H176672   5.099   2.569  16.477  0.2012  0.2027 -0.1835
18419TIP3    H276673   5.118   2.431  16.537 -1.3919 -1.1180 -2.5584
18420TIP3   OH276674   3.478   0.818  13.123 -0.1154 -0.8568  0.1046
18420TIP3    H176675   3.410   0.789  13.183 -0.7315 -0.4285 -0.3712
18420TIP3    H276676   3.438   0.809  13.036  0.8493 -1.7309 -0.2642
18421TIP3   OH276677   3.319   0.767   0.727  0.1598  0.9037  0.1007
18421TIP3    H176678   3.333   0.689   0.781  0.2459  1.4786  0.9297
18421TIP3    H276679   3.326   0.735   0.637  1.6242  0.1973  0.4192
18422TIP3   OH276680   3.663   6.710  11.027 -0.3393 -0.1263  0.0247
18422TIP3    H176681   3.680   6.661  11.107 -0.2997 -1.8324 -0.9760
18422TIP3    H276682   3.592   6.770  11.049 -1.0418 -1.3078  1.0676
18423TIP3   OH276683   0.507   3.986  13.359  1.0821 -0.4457  0.2736
18423TIP3    H176684   0.484   4.039  13.435 -0.1618 -0.8638  0.2107
18423TIP3    H276685   0.540   3.904  13.395 -0.1870 -0.9261  0.3827
18424TIP3   OH276686   5.098   3.116   5.119 -0.0796  0.5012 -0.1188
18424TIP3    H176687   5.070   3.189   5.174  0.1600  1.7673 -1.5915
18424TIP3    H276688   5.191   3.106   5.139 -0.4046 -0.3232  1.0671
18425TIP3   OH276689   4.595   5.258   4.714  0.1125 -0.0573  0.3477
18425TIP3    H176690   4.671   5.202   4.696 -0.2492 -1.3221  2.3828
18425TIP3    H276691   4.624   5.316   4.784 -1.1789 -1.6221  2.2783
18426TIP3   OH276692   4.944   3.971  13.633 -0.4482 -0.3536 -0.1541
18426TIP3    H176693   4.886   3.979  13.708 -1.0840 -0.9842 -0.5725
18426TIP3    H276694   4.954   4.061  13.601 -1.6845 -0.3067 -0.4448
18427TIP3   OH276695   2.774   3.669  16.728 -0.3371 -0.2723 -0.0016
18427TIP3    H176696   2.778   3.616  16.808 -1.0019 -0.8461 -0.3314
18427TIP3    H276697   2.728   3.748  16.754 -1.2803 -0.8097  0.0120
18428TIP3   OH276698   3.780   5.673  15.846 -0.0120  0.0210  0.1928
18428TIP3    H176699   3.722   5.632  15.782  0.9672 -1.2183  0.0496
18428TIP3    H276700   3.757   5.631  15.929  0.2563 -0.0314  0.2423
18429TIP3   OH276701   0.046   6.378  10.565  0.1684 -0.0887  0.1613
18429TIP3    H176702  -0.029   6.425  10.530 -0.6728 -1.1817  0.4651
18429TIP3    H276703   0.018   6.348  10.651  1.0857 -0.1981  0.4351
18430TIP3   OH276704   1.281   6.415   0.392  0.2592 -0.8743 -0.7305
18430TIP3    H176705   1.338   6.492   0.391 -0.6269 -0.0745  2.1183
18430TIP3    H276706   1.200   6.445   0.350  0.6461 -0.9511 -1.5639
18431TIP3   OH276707   3.792   0.771  10.992 -0.1817  0.2538  0.2074
18431TIP3    H176708   3.745   0.694  10.961  0.1841  0.1064  0.0061
18431TIP3    H276709   3.770   0.840  10.929  2.2802 -0.5882 -1.7588
18432TIP3   OH276710   0.975   6.545   3.875  0.2262 -0.5311  0.3928
18432TIP3    H176711   0.927   6.474   3.832  2.1401 -1.6092 -0.0824
18432TIP3    H276712   0.984   6.515   3.966  0.4543 -0.5884  0.3520
18433TIP3   OH276713   0.251   3.961  16.263 -0.3552  0.2677  0.4823
18433TIP3    H176714   0.198   3.921  16.332  1.6343  0.1471  2.0589
18433TIP3    H276715   0.305   3.890  16.230  2.1158  1.1867  2.2412
18434TIP3   OH276716   6.691   0.004   3.628  0.0078 -0.0493 -0.0930
18434TIP3    H176717   6.621   0.058   3.592 -0.2278 -1.5534 -2.0635
18434TIP3    H276718   6.700   0.034   3.719 -3.5962 -0.1717  0.4696
18435TIP3   OH276719   2.278   0.884  13.801  0.3884  0.3222 -0.0122
18435TIP3    H176720   2.363   0.915  13.833 -1.0646  2.6887  1.9118
18435TIP3    H276721   2.215   0.915  13.866 -2.1766  0.3427 -2.3063
18436TIP3   OH276722   0.286   5.732   3.482 -0.4299 -0.1373  0.0908
18436TIP3    H176723   0.367   5.759   3.438 -0.3997 -1.7885 -0.9823
18436TIP3    H276724   0.284   5.637   3.471 -2.4736 -0.1509  0.2031
18437TIP3   OH276725   4.098   3.602   3.240  0.0118  0.5211 -0.2241
18437TIP3    H176726   4.164   3.533   3.247  0.5714  0.8562 -1.6847
18437TIP3    H276727   4.030   3.565   3.185 -0.0522  0.8598 -0.3782
18438TIP3   OH276728   0.099   1.811   4.398 -0.1746  0.3660  0.0863
18438TIP3    H176729   0.020   1.789   4.349 -0.7127 -1.7490  1.7426
18438TIP3    H276730   0.084   1.900   4.430 -0.3568  1.2860 -2.3753
18439TIP3   OH276731   1.745   3.865  11.108  0.1379 -0.3976  0.3267
18439TIP3    H176732   1.677   3.801  11.128  0.7848 -2.0449 -2.2698
18439TIP3    H276733   1.701   3.933  11.059 -0.3268  0.6313  2.0907
18440TIP3   OH276734   0.658   1.052   1.527  0.1094 -0.1436 -0.1615
18440TIP3    H176735   0.731   1.110   1.506 -1.0265  0.3790 -3.2748
18440TIP3    H276736   0.693   0.964   1.513  0.5057  0.0394 -0.3459
18441TIP3   OH276737   2.451   6.192   0.408 -0.0965  0.0147  0.3126
18441TIP3    H176738   2.440   6.097   0.403  0.1423  0.0209 -0.6232
18441TIP3    H276739   2.509   6.213   0.334 -0.3842  0.9213  0.3306
18442TIP3   OH276740   4.782   6.067  13.625 -0.5301  0.3145 -0.2054
18442TIP3    H176741   4.870   6.083  13.658 -0.4215  0.1958 -0.4302
18442TIP3    H276742   4.730   6.142  13.655 -0.7640 -0.4531  1.3843
18443TIP3   OH276743   4.246   1.839  10.582  0.2323 -0.3487  0.1542
18443TIP3    H176744   4.218   1.845  10.673  2.0693 -0.1544  0.7541
18443TIP3    H276745   4.190   1.900  10.535  0.4342  0.8831  1.4618
18444TIP3   OH276746   5.159   2.094  13.251  0.7593  0.2088  0.3615
18444TIP3    H176747   5.156   1.999  13.246  1.0240 -0.0247  3.2563
18444TIP3    H276748   5.227   2.119  13.189  0.9454 -1.5101 -0.1733
18445TIP3   OH276749   1.063   1.031   4.332 -0.2792  0.0930 -0.6698
18445TIP3    H176750   1.117   0.954   4.348 -1.9723 -1.1085 -0.4703
18445TIP3    H276751   1.124   1.096   4.297  1.7012 -0.4438  1.5240
18446TIP3   OH276752   6.561   2.470  16.656  0.1569 -0.2016  0.3574
18446TIP3    H176753   6.533   2.456  16.746  3.0848  1.3192  1.6394
18446TIP3    H276754   6.602   2.387  16.631 -2.4290 -1.3416 -0.4220
18447TIP3   OH276755   5.208   3.737  10.881 -0.5966  0.2983  0.4564
18447TIP3    H176756   5.228   3.815  10.828 -0.2850  0.5147  0.8860
18447TIP3    H276757   5.269   3.742  10.954 -0.1962 -0.6580  0.1965
18448TIP3   OH276758   5.347   1.417   0.576  0.4567  0.4869  0.2273
18448TIP3    H176759   5.429   1.441   0.621  0.6622  0.9979 -0.4116
18448TIP3    H276760   5.357   1.453   0.488 -0.7162  1.0809  0.3297
18449TIP3   OH276761   0.393   5.722   2.187 -0.4836 -0.0037  0.1364
18449TIP3    H176762   0.415   5.783   2.257 -0.7602 -0.8669  0.9982
18449TIP3    H276763   0.476   5.707   2.142 -0.1225 -0.1079  0.8250
18450TIP3   OH276764   1.071   1.322  15.343  0.4048  0.3668  0.4450
18450TIP3    H176765   1.117   1.368  15.273 -0.3867  0.1125 -0.2520
18450TIP3    H276766   0.978   1.339  15.327  0.0424 -1.8379 -0.1202
18451TIP3   OH276767   5.835   6.501  14.096 -0.0829  0.7148  0.1944
18451TIP3    H176768   5.789   6.417  14.096 -0.5639  0.9523  2.1443
18451TIP3    H276769   5.792   6.552  14.028 -1.0950  0.0746  0.3399
18452TIP3   OH276770   5.186   6.337  15.954 -0.3028 -0.3357  0.5022
18452TIP3    H176771   5.206   6.307  16.043  1.0471  1.8413  0.9935
18452TIP3    H276772   5.105   6.388  15.964  0.0107  0.1535  0.5266
18453TIP3   OH276773   2.894   1.507   5.560 -0.0023  0.5072  0.2976
18453TIP3    H176774   2.799   1.496   5.549  0.0135  0.3099  0.3572
18453TIP3    H276775   2.921   1.556   5.483 -0.1162  0.3594  0.1621
18454TIP3   OH276776   4.078   6.660   4.193 -0.1498 -0.3877  0.0294
18454TIP3    H176777   4.018   6.687   4.263 -0.0070  0.4738 -0.1610
18454TIP3    H276778   4.165   6.670   4.231 -0.1095 -1.6595  0.3111
18455TIP3   OH276779   5.603   1.951   1.411  0.1083  0.1260  0.1402
18455TIP3    H176780   5.555   1.926   1.332 -1.3071  1.9316  0.3476
18455TIP3    H276781   5.602   2.047   1.410  1.6506  0.2045  1.4402
18456TIP3   OH276782   3.110   0.846  11.846  0.2832  0.1392 -0.1636
18456TIP3    H176783   3.206   0.841  11.852  0.3153 -1.2409 -1.1885
18456TIP3    H276784   3.094   0.922  11.789  0.7051  1.0651  0.9287
18457TIP3   OH276785   3.855   6.079  10.704 -0.2109  0.2671  0.3374
18457TIP3    H176786   3.919   6.151  10.709 -1.0137  1.0282 -0.0858
18457TIP3    H276787   3.770   6.123  10.702 -0.7031 -0.3154 -4.6890
18458TIP3   OH276788   2.527   1.883  15.905 -0.4810  0.3177  0.5381
18458TIP3    H176789   2.532   1.844  15.992 -2.4133 -0.2333  0.4575
18458TIP3    H276790   2.555   1.814  15.845  3.0750  1.3742  0.7463
18459TIP3   OH276791   3.088   0.402   1.182  0.4374  0.0036  0.0878
18459TIP3    H176792   3.083   0.437   1.093  2.0771 -0.7317 -0.3268
18459TIP3    H276793   3.176   0.425   1.212  1.1427 -2.6099  0.2508
18460TIP3   OH276794   1.929   2.259   0.376 -0.0285  0.3028  0.2331
18460TIP3    H176795   1.895   2.172   0.395  0.1662  0.1761 -0.0019
18460TIP3    H276796   1.999   2.272   0.441 -0.3386  0.4573  0.5433
18461TIP3   OH276797   6.071   2.615  16.186 -0.7166  0.3818  0.0138
18461TIP3    H176798   6.084   2.584  16.097 -1.5514 -3.1782  0.9949
18461TIP3    H276799   6.008   2.687  16.177  1.4296  2.1385 -2.4293
18462TIP3   OH276800   0.281   1.481  14.250 -0.2402  0.2595  0.5236
18462TIP3    H176801   0.243   1.555  14.203  1.2394  1.3161  0.9145
18462TIP3    H276802   0.287   1.412  14.184  0.7355  1.3428 -0.5725
18463TIP3   OH276803   2.289   2.015  15.871 -0.0035 -0.3893  0.5699
18463TIP3    H176804   2.379   1.982  15.873  0.4258  0.7285  0.7194
18463TIP3    H276805   2.299   2.110  15.862 -1.1876 -0.3406 -0.5819
18464TIP3   OH276806   1.818   5.583   1.476  0.4509  0.9242 -0.2067
18464TIP3    H176807   1.778   5.549   1.555 -0.0264 -1.0261 -1.2244
18464TIP3    H276808   1.755   5.563   1.406  0.6320  3.0075 -1.0600
18465TIP3   OH276809   6.108   4.571  13.305  0.5969  0.4740  0.1717
18465TIP3    H176810   6.018   4.604  13.303 -0.0309 -1.1738 -0.6582
18465TIP3    H276811   6.116   4.521  13.224  1.6379 -0.9579  1.1175
18466TIP3   OH276812   4.294   2.876   4.332 -0.0761 -0.1871  0.0387
18466TIP3    H176813   4.205   2.844   4.350 -0.3468  0.2222 -0.5089
18466TIP3    H276814   4.280   2.957   4.282  0.6084 -0.1088 -0.0338
18467TIP3   OH276815   0.538   0.113   0.943 -0.1164 -0.5304 -0.1108
18467TIP3    H176816   0.465   0.051   0.941 -1.2560  0.7689 -0.5487
18467TIP3    H276817   0.591   0.085   1.018 -1.2800 -1.2647  0.4698
18468TIP3   OH276818   5.968   3.855  14.203 -0.2598  0.7968 -0.1095
18468TIP3    H176819   6.060   3.845  14.178 -0.1577  0.3557  0.4306
18468TIP3    H276820   5.921   3.858  14.120  0.1029 -0.3544 -0.3757
18469TIP3   OH276821   5.391   3.018  15.340 -0.6362 -0.4145  0.0490
18469TIP3    H176822   5.436   3.091  15.298  1.2598 -1.2585  0.4892
18469TIP3    H276823   5.307   3.053  15.367 -0.4341  1.1334 -1.2048
18470TIP3   OH276824   2.869   3.731  15.268 -0.1193 -1.0311  0.3131
18470TIP3    H176825   2.810   3.706  15.339 -1.7823  2.5600  0.4244
18470TIP3    H276826   2.825   3.701  15.188 -0.5552 -1.1067  0.5803
18471TIP3   OH276827   1.479   3.428   3.144  0.3650  0.2258  0.0489
18471TIP3    H176828   1.474   3.411   3.050 -1.1516  0.6141  0.0444
18471TIP3    H276829   1.476   3.524   3.151  2.0607  0.2779  0.4291
18472TIP3   OH276830   6.325   6.692   0.090  0.7795 -0.1895  0.0272
18472TIP3    H176831   6.344   6.758   0.157 -1.4869  0.2777  0.2828
18472TIP3    H276832   6.399   6.698   0.030  1.5358  1.2989  1.0400
18473TIP3   OH276833   0.866   4.652  13.349 -0.3079  0.6147  0.2564
18473TIP3    H176834   0.883   4.746  13.353  0.7196  0.4199  1.0432
18473TIP3    H276835   0.943   4.615  13.306 -0.6781  0.1211  0.0031
18474TIP3   OH276836   0.340   1.295   3.865  0.1756  0.2027  0.6306
18474TIP3    H176837   0.269   1.334   3.915 -0.4227 -0.3290  0.2046
18474TIP3    H276838   0.391   1.370   3.834 -1.0617  0.6767 -0.3279
18475TIP3   OH276839   0.603   4.723   4.504  0.1599 -0.2305  0.8115
18475TIP3    H176840   0.557   4.758   4.428  0.8341 -1.6798 -0.3022
18475TIP3    H276841   0.661   4.794   4.531 -0.7313  0.6259  0.5595
18476TIP3   OH276842   1.591   4.866  15.073 -0.6305 -0.4736  0.3551
18476TIP3    H176843   1.517   4.900  15.123 -1.3671 -3.0517  1.1661
18476TIP3    H276844   1.552   4.816  15.002  0.2384 -2.3681  1.1393
18477TIP3   OH276845   6.565   5.472   4.428 -0.3256  0.1949  0.5507
18477TIP3    H176846   6.498   5.429   4.480  0.3668  0.3047  1.5602
18477TIP3    H276847   6.516   5.523   4.363 -1.2012 -0.0484  1.0052
18478TIP3   OH276848   2.014   1.486  15.937  0.0390 -0.2757 -0.2003
18478TIP3    H176849   2.032   1.411  15.993 -0.7607 -0.7418 -0.5500
18478TIP3    H276850   1.929   1.518  15.965 -0.0779 -0.1175 -0.7099
18479TIP3   OH276851   6.261   4.956  12.155 -0.4945  0.0530 -0.3668
18479TIP3    H176852   6.271   4.942  12.061 -3.0835 -1.8238 -0.4622
18479TIP3    H276853   6.325   5.025  12.175  3.1266 -2.2414 -2.6569
18480TIP3   OH276854   2.222   6.301  14.707  0.0791 -0.5062 -0.4001
18480TIP3    H176855   2.238   6.267  14.619 -2.6953 -1.7482 -0.5380
18480TIP3    H276856   2.183   6.387  14.693  0.1598 -0.4629 -0.3602
18481TIP3   OH276857   2.498   1.641  13.233  0.2171  0.0424  0.3817
18481TIP3    H176858   2.503   1.547  13.247  0.2974 -0.1334 -0.6840
18481TIP3    H276859   2.540   1.679  13.310  0.3304 -0.7960  0.7485
18482TIP3   OH276860   5.110   5.632  12.856  0.1346  0.3714  0.0557
18482TIP3    H176861   5.094   5.539  12.869  0.3334  0.3537  0.1878
18482TIP3    H276862   5.170   5.636  12.781  1.7491  0.2624  1.2784
18483TIP3   OH276863   5.938   6.480   0.769 -0.3917  0.3976  0.0111
18483TIP3    H176864   5.953   6.570   0.797 -0.8190  0.5272 -0.1682
18483TIP3    H276865   5.869   6.487   0.703 -1.1943 -0.1778  0.7784
18484TIP3   OH276866   2.066   4.393   1.814  0.0407 -0.2517 -0.6866
18484TIP3    H176867   2.070   4.312   1.864  1.6680 -0.7009 -1.4806
18484TIP3    H276868   2.145   4.440   1.839 -0.6990  0.9483 -0.5160
18485TIP3   OH276869   4.458   6.180   2.413  0.0889 -0.3440 -0.0341
18485TIP3    H176870   4.524   6.123   2.373  0.5212 -0.8053  1.2795
18485TIP3    H276871   4.393   6.119   2.448 -0.4391  0.0665 -0.2917
18486TIP3   OH276872   4.774   6.537   1.707  0.0092  0.5064  0.1724
18486TIP3    H176873   4.825   6.609   1.744  0.8081 -0.3953  0.8824
18486TIP3    H276874   4.686   6.549   1.742 -0.2327  1.9309 -0.8530
18487TIP3   OH276875   2.211   0.640   5.694 -0.3616  0.3441  0.3954
18487TIP3    H176876   2.253   0.682   5.769  1.7202  1.6249 -1.3778
18487TIP3    H276877   2.197   0.711   5.631  0.0109 -1.0396 -1.3196
18488TIP3   OH276878   5.174   6.633   1.918 -0.3668 -0.1977  0.1452
18488TIP3    H176879   5.209   6.585   1.844 -0.4637 -0.5572  0.3324
18488TIP3    H276880   5.252   6.669   1.962 -0.0712 -2.2741  1.4529
18489TIP3   OH276881   1.480   6.118   2.822 -0.4365 -0.4690 -0.1784
18489TIP3    H176882   1.514   6.179   2.756 -1.1170  0.1985  0.0673
18489TIP3    H276883   1.432   6.174   2.884 -3.7003 -1.4929 -1.5637
18490TIP3   OH276884   0.289   2.308   5.586 -0.2005  0.0283  0.4169
18490TIP3    H176885   0.314   2.400   5.592  0.4820 -0.1948  1.0281
18490TIP3    H276886   0.194   2.311   5.573  0.0611  0.8670 -1.8027
18491TIP3   OH276887   5.454   1.910  14.281 -0.0261  0.2127  0.0417
18491TIP3    H176888   5.519   1.960  14.232 -0.8507  0.4061 -0.8984
18491TIP3    H276889   5.423   1.969  14.349 -0.8222  0.9395 -0.9129
18492TIP3   OH276890   5.280   4.804   2.742  0.3181  0.3088 -0.4092
18492TIP3    H176891   5.258   4.779   2.832  0.2434  0.3380 -0.4192
18492TIP3    H276892   5.215   4.871   2.720 -0.8979 -1.0826 -1.1848
18493TIP3   OH276893   4.655   2.023  16.121  0.1624  0.0567 -0.1825
18493TIP3    H176894   4.606   2.050  16.043 -0.4545 -0.4789  0.0110
18493TIP3    H276895   4.622   1.935  16.141 -0.9460  0.8541  1.6941
18494TIP3   OH276896   6.786   3.181  12.612 -0.0434  0.0645  0.1258
18494TIP3    H176897   6.765   3.188  12.519 -2.7089  1.3382  0.7025
18494TIP3    H276898   6.815   3.090  12.623  0.1556 -0.1706 -1.8946
18495TIP3   OH276899   2.556   0.225  10.725 -0.0073 -0.1592  0.0025
18495TIP3    H176900   2.509   0.301  10.690  0.7256  0.2103 -0.2024
18495TIP3    H276901   2.582   0.176  10.647 -0.9413 -0.9246  0.1477
18496TIP3   OH276902   1.067   1.606  16.418 -0.0175  0.0476  0.0842
18496TIP3    H176903   0.990   1.557  16.448 -0.7143 -0.5529 -2.4954
18496TIP3    H276904   1.140   1.546  16.430  0.0194  0.4056  1.9818
18497TIP3   OH276905   1.830   5.991   3.488 -0.2910  0.1762 -0.4719
18497TIP3    H176906   1.747   6.020   3.526 -0.2121  0.5245 -0.5605
18497TIP3    H276907   1.883   5.964   3.563 -0.5158 -0.1302 -0.4222
18498TIP3   OH276908   5.723   4.580  16.557  0.0111 -0.0175 -0.0846
18498TIP3    H176909   5.638   4.616  16.583 -0.4372 -0.6315 -0.6757
18498TIP3    H276910   5.705   4.534  16.475  1.1050  0.6777 -0.7323
18499TIP3   OH276911   2.953   1.676  11.269  0.1943  0.5279 -0.3211
18499TIP3    H176912   2.982   1.735  11.338  1.1555  1.8284 -1.7653
18499TIP3    H276913   2.872   1.715  11.236 -0.5709 -0.3920  0.3884
18500TIP3   OH276914   0.579   3.861  10.963 -0.4836  0.1501  0.6037
18500TIP3    H176915   0.597   3.948  10.929 -2.6987 -0.1240 -1.5381
18500TIP3    H276916   0.639   3.803  10.916  0.0717  0.3289  1.0699
18501TIP3   OH276917   4.346   0.727   2.717 -0.4320 -0.1460 -0.1011
18501TIP3    H176918   4.434   0.764   2.709  0.2523 -1.6416  0.1170
18501TIP3    H276919   4.302   0.783   2.781  0.5637  0.2737  0.2362
18502TIP3   OH276920   5.055   3.634   0.836 -0.0440  0.0459 -0.2277
18502TIP3    H176921   5.054   3.665   0.745 -1.2053  1.1301  0.1475
18502TIP3    H276922   5.007   3.700   0.885  0.3636 -0.6554  1.1530
18503TIP3   OH276923   4.314   1.303   1.680  0.3992  0.8220 -0.0550
18503TIP3    H176924   4.399   1.261   1.693  1.2263  2.1501 -0.9173
18503TIP3    H276925   4.274   1.254   1.609 -0.2603 -0.7885  1.3773
18504TIP3   OH276926   6.453   2.619  16.254 -0.4684 -0.0786 -0.2299
18504TIP3    H176927   6.435   2.575  16.171 -0.8696  0.4004 -0.4041
18504TIP3    H276928   6.468   2.710  16.230 -0.9070  0.1269  0.2547
18505TIP3   OH276929   0.878   4.701   4.565 -1.0746 -0.2263  0.0253
18505TIP3    H176930   0.918   4.769   4.620 -1.9241  1.3716 -1.2369
18505TIP3    H276931   0.911   4.720   4.477 -2.0498 -0.8691 -0.4959
18506TIP3   OH276932   4.531   1.131  11.818 -0.4320 -0.0391 -0.5157
18506TIP3    H176933   4.471   1.204  11.801  2.1490  2.1265 -1.0678
18506TIP3    H276934   4.572   1.114  11.733 -1.1220 -2.3524 -0.4358
18507TIP3   OH276935   4.321   5.281  11.881 -1.1804 -0.0732  0.3646
18507TIP3    H176936   4.304   5.215  11.948 -2.2444 -0.2379 -0.0445
18507TIP3    H276937   4.377   5.237  11.817 -1.1995 -0.3125  0.5120
18508TIP3   OH276938   2.337   6.719   4.868  0.0667 -0.4095  0.1784
18508TIP3    H176939   2.296   6.663   4.802  1.6060 -0.7492 -0.5290
18508TIP3    H276940   2.389   6.659   4.921  1.4891  0.2879 -0.3906
18509TIP3   OH276941   0.990   6.126  14.365 -0.2987  0.5553 -0.1593
18509TIP3    H176942   0.986   6.169  14.450  0.4682 -0.1825  0.2634
18509TIP3    H276943   1.049   6.051  14.378 -0.7357  0.0102 -1.1485
18510TIP3   OH276944   0.797   0.279  13.946  0.2674 -0.5013 -0.3823
18510TIP3    H176945   0.850   0.307  13.872 -0.8553 -0.2538 -1.1139
18510TIP3    H276946   0.710   0.316  13.929 -0.0558 -0.5776  0.9742
18511TIP3   OH276947   1.680   6.694   3.026  0.5758  0.2935  0.1065
18511TIP3    H176948   1.674   6.605   3.061 -1.0430 -0.2453 -1.4083
18511TIP3    H276949   1.768   6.700   2.991  0.4324 -1.0516 -0.5525
18512TIP3   OH276950   1.238   2.567  13.901  0.1634 -0.8353 -0.3293
18512TIP3    H176951   1.296   2.541  13.973 -0.7547 -3.2247 -0.3672
18512TIP3    H276952   1.157   2.520  13.918 -1.4305  1.5534 -0.9031
18513TIP3   OH276953   1.126   1.102  11.198 -0.2363  0.0569 -0.0321
18513TIP3    H176954   1.150   1.091  11.290 -1.2233 -1.2606  0.0998
18513TIP3    H276955   1.122   1.013  11.164 -0.2019  0.5137 -1.2825
18514TIP3   OH276956   0.419   6.504   5.663  0.1833 -0.7264  0.4902
18514TIP3    H176957   0.416   6.592   5.627  1.1030 -0.8259  0.1665
18514TIP3    H276958   0.343   6.500   5.722  0.4456  0.4575  0.9301
18515TIP3   OH276959   6.064   6.256   1.698 -0.6590 -0.2148  0.1619
18515TIP3    H176960   6.152   6.282   1.723 -0.8559  2.5566 -1.5912
18515TIP3    H276961   6.074   6.166   1.665  1.8701  0.5536 -1.4909
18516TIP3   OH276962   3.386   3.149   1.801 -0.4277 -0.0457 -0.0942
18516TIP3    H176963   3.397   3.171   1.894 -0.2964 -1.0730  0.1382
18516TIP3    H276964   3.443   3.212   1.756  1.1515 -0.8675  0.6613
18517TIP3   OH276965   1.067   1.052  15.387 -0.2376 -0.1887 -0.0938
18517TIP3    H176966   1.013   0.994  15.334  0.0870 -0.8286  0.2649
18517TIP3    H276967   1.054   1.139  15.348 -0.1402 -0.6126 -1.1104
18518TIP3   OH276968   3.831   3.531   4.562  0.7184 -0.4009  0.2706
18518TIP3    H176969   3.808   3.545   4.470  0.7735 -2.4903 -0.1089
18518TIP3    H276970   3.779   3.596   4.609 -0.8102 -0.5487 -1.0968
18519TIP3   OH276971   4.861   3.794  15.140  0.1941  0.0794 -0.0022
18519TIP3    H176972   4.805   3.812  15.215  0.6075  0.2345  0.2706
18519TIP3    H276973   4.946   3.831  15.164 -0.2042  2.0841 -1.3816
18520TIP3   OH276974   6.387   3.353   0.731 -0.7065 -0.3244  0.3139
18520TIP3    H176975   6.299   3.330   0.761 -0.6352  0.4156  1.1392
18520TIP3    H276976   6.399   3.443   0.760 -0.0392 -0.0893 -0.6503
18521TIP3   OH276977   1.201   4.153   4.216  0.3044  0.2058 -0.4505
18521TIP3    H176978   1.229   4.199   4.137  3.2002 -0.2764  0.1918
18521TIP3    H276979   1.239   4.065   4.208 -0.0169 -0.1030  1.1029
18522TIP3   OH276980   4.689   0.685   1.225  0.2577 -0.3280 -0.0733
18522TIP3    H176981   4.713   0.696   1.317  0.6829 -0.5130 -0.1629
18522TIP3    H276982   4.616   0.746   1.213 -0.0540 -0.5792  0.4802
18523TIP3   OH276983   3.107   3.694  14.598 -0.3018 -0.2802  0.4287
18523TIP3    H176984   3.064   3.623  14.551 -0.6983 -0.5388  1.1730
18523TIP3    H276985   3.098   3.770  14.539  2.2254 -1.3271 -1.4631
18524TIP3   OH276986   5.078   5.585  13.539 -0.7898 -0.6191 -0.2823
18524TIP3    H176987   5.113   5.591  13.628  0.5268 -0.6516 -0.7764
18524TIP3    H276988   5.014   5.657  13.534 -0.1540  0.0128  0.3798
18525TIP3   OH276989   2.872   4.186   0.880  0.4566 -0.3736 -0.3898
18525TIP3    H176990   2.798   4.185   0.819 -0.9485  0.1033  1.2433
18525TIP3    H276991   2.943   4.226   0.830 -0.4907 -0.4380 -1.8654
18526TIP3   OH276992   1.608   5.589   3.886 -0.1675  0.5068  0.4336
18526TIP3    H176993   1.672   5.616   3.952 -0.9967  0.5228  1.2550
18526TIP3    H276994   1.614   5.656   3.818  0.5247  0.6263  0.6022
18527TIP3   OH276995   4.898   3.830  11.359  0.4147  0.4968  0.1397
18527TIP3    H176996   4.863   3.918  11.347  0.8065  0.6811  0.3349
18527TIP3    H276997   4.962   3.820  11.288  1.9818  1.2028  1.3744
18528TIP3   OH276998   0.602   3.944   1.987 -0.2691  0.4523  0.4299
18528TIP3    H176999   0.628   3.917   2.075  0.6653  0.8316  0.2839
18528TIP3    H277000   0.623   4.037   1.984  1.5619  0.0641 -0.8125
18529TIP3   OH277001   4.819   6.356  12.124 -0.3864 -0.0799  0.2761
18529TIP3    H177002   4.751   6.390  12.182  0.1089 -0.7664  1.2951
18529TIP3    H277003   4.901   6.384  12.164 -0.0528  0.5970 -0.8467
18530TIP3   OH277004   6.028   1.647   6.811  0.0415  0.1192 -0.0509
18530TIP3    H177005   5.989   1.718   6.760 -1.5070 -0.9575 -0.4366
18530TIP3    H277006   5.971   1.637   6.887 -0.5113 -1.4823 -0.6202
18531TIP3   OH277007   3.341   4.558   2.560  0.1969 -0.2001 -0.2853
18531TIP3    H177008   3.376   4.513   2.636  0.4035 -1.8040 -1.2788
18531TIP3    H277009   3.271   4.614   2.594 -0.4002 -1.6546  0.9601
18532TIP3   OH277010   5.705   0.237  14.997  0.2796  0.2009  0.4045
18532TIP3    H177011   5.797   0.212  14.985  0.1840 -0.4252  0.8903
18532TIP3    H277012   5.701   0.270  15.087  0.0462  0.3043  0.3567
18533TIP3   OH277013   1.638   4.359   0.495  0.2541 -1.3139 -0.1309
18533TIP3    H177014   1.702   4.430   0.501 -0.2335 -0.6283 -2.1935
18533TIP3    H277015   1.688   4.286   0.456  0.3034 -1.5277  0.3197
18534TIP3   OH277016   1.009   2.009   2.828  0.3825 -0.3702  0.6394
18534TIP3    H177017   0.943   1.974   2.768 -1.2080 -1.0043  2.6716
18534TIP3    H277018   0.978   2.098   2.848 -0.3157 -0.9314  2.1803
18535TIP3   OH277019   3.709   2.015  14.293  0.4360 -0.7412 -0.3978
18535TIP3    H177020   3.677   1.997  14.204 -2.1726  1.2563 -0.0068
18535TIP3    H277021   3.766   2.091  14.283 -2.0129  1.2626 -0.1946
18536TIP3   OH277022   0.925   5.511  16.965 -0.1861 -0.9495  0.0213
18536TIP3    H177023   0.910   5.461  17.046  1.1054  0.6864  1.3665
18536TIP3    H277024   1.014   5.545  16.975  0.8233 -2.3078 -3.0569
18537TIP3   OH277025   0.018   1.514   4.832 -0.0606 -0.3755  0.2831
18537TIP3    H177026  -0.035   1.546   4.905 -0.7397  0.2267 -0.4654
18537TIP3    H277027  -0.022   1.430   4.809 -1.7252  0.7624 -1.2771
18538TIP3   OH277028   1.036   2.501  10.913 -0.4782 -0.2778 -0.0485
18538TIP3    H177029   1.025   2.529  11.004  2.7200 -4.9315  2.1744
18538TIP3    H277030   1.115   2.548  10.883  0.3833 -1.0947  0.8570
18539TIP3   OH277031   0.912   6.199   1.722  0.1279  0.8706 -0.4593
18539TIP3    H177032   0.967   6.264   1.678  0.1902  1.0833 -0.0691
18539TIP3    H277033   0.973   6.133   1.755 -0.0696 -0.5810 -2.7507
18540TIP3   OH277034   5.139   5.115   2.631 -0.4092  0.1394 -0.5386
18540TIP3    H177035   5.114   5.089   2.719 -0.3442 -0.1462 -0.6033
18540TIP3    H277036   5.130   5.210   2.630 -0.0093  0.1837 -0.0979
18541TIP3   OH277037   5.382   5.837  13.456 -0.6161  0.0582  0.4050
18541TIP3    H177038   5.406   5.767  13.395 -0.6151  1.2186 -0.9828
18541TIP3    H277039   5.395   5.799  13.543  0.3263 -1.3307 -0.3091
18542TIP3   OH277040   6.132   1.462   3.272  0.2670 -0.2967  0.7480
18542TIP3    H177041   6.173   1.451   3.187  1.1317 -0.2473  1.1465
18542TIP3    H277042   6.170   1.393   3.326 -0.2425 -0.3039  1.1009
18543TIP3   OH277043   4.982   3.760   6.278 -0.2052 -0.1300  0.0843
18543TIP3    H177044   5.050   3.827   6.289  0.3522 -0.6447 -0.2142
18543TIP3    H277045   4.901   3.811   6.269  0.2908  0.5413 -0.7981
18544TIP3   OH277046   2.367   4.688   0.771 -0.7120 -0.1192  0.2008
18544TIP3    H177047   2.354   4.620   0.705 -1.2664 -0.7516  0.9412
18544TIP3    H277048   2.331   4.650   0.852 -0.5087  0.8330  0.7517
18545TIP3   OH277049   0.631   4.850  17.081 -0.7868  0.2978 -0.0718
18545TIP3    H177050   0.724   4.873  17.085 -0.9004  0.6805  0.4327
18545TIP3    H277051   0.616   4.828  16.989 -0.0016 -0.6157  0.0106
18546TIP3   OH277052   5.108   0.996  12.638  0.0774 -0.2493 -0.0469
18546TIP3    H177053   5.157   1.049  12.575 -0.3443 -0.2455 -0.3760
18546TIP3    H277054   5.153   1.009  12.721  1.6213 -1.5101 -0.6310
18547TIP3   OH277055   1.745   3.353  12.114 -0.1803 -0.4029  0.3197
18547TIP3    H177056   1.665   3.383  12.156  0.0371 -0.1370  0.5384
18547TIP3    H277057   1.767   3.271  12.159 -1.3169 -1.4459 -0.9265
18548TIP3   OH277058   5.193   0.580   5.512  0.6039  0.5421 -0.1464
18548TIP3    H177059   5.278   0.580   5.556  1.1828  0.6586 -1.2159
18548TIP3    H277060   5.197   0.504   5.454  0.7169  1.5823 -1.5527
18549TIP3   OH277061   3.541   2.807   1.122 -0.2816  0.5498 -0.1282
18549TIP3    H177062   3.583   2.841   1.042 -0.3222  1.1686  0.1037
18549TIP3    H277063   3.455   2.849   1.122  1.1951  4.1437  2.4603
18550TIP3   OH277064   6.715   0.957   4.376  0.0565  0.4591 -0.1818
18550TIP3    H177065   6.668   0.913   4.447 -1.4131  1.6392 -0.3873
18550TIP3    H277066   6.807   0.950   4.401 -0.4079  0.7229  1.7752
18551TIP3   OH277067   1.114   4.348  13.664 -0.4513 -0.3792  0.5679
18551TIP3    H177068   1.082   4.437  13.649 -1.5735 -0.9343 -0.5431
18551TIP3    H277069   1.208   4.353  13.645 -0.6311  0.4124 -0.1911
18552TIP3   OH277070   0.975   4.786   4.312  0.2245 -0.2343  0.6582
18552TIP3    H177071   0.972   4.880   4.331 -1.8834 -0.2318  0.5999
18552TIP3    H277072   1.050   4.775   4.254  0.6288  1.3771  0.8401
18553TIP3   OH277073   5.293   3.526  14.242 -0.0271  0.4527 -0.4741
18553TIP3    H177074   5.206   3.555  14.270 -0.0445  0.0261 -0.0634
18553TIP3    H277075   5.288   3.519  14.147  0.0010  1.8625 -0.5923
18554TIP3   OH277076   5.456   4.830  11.489  0.5110 -0.0274  0.1688
18554TIP3    H177077   5.362   4.811  11.491  0.6149 -0.5508  0.1267
18554TIP3    H277078   5.485   4.815  11.579  0.4306  0.7917  0.3385
18555TIP3   OH277079   6.233   5.160  12.730 -0.0898  0.9392 -0.1081
18555TIP3    H177080   6.257   5.074  12.694 -1.8944  0.3126  0.0936
18555TIP3    H277081   6.282   5.165  12.812  1.5444  0.9819 -1.0254
18556TIP3   OH277082   0.760   5.968   5.992  0.2280 -0.2785  0.4182
18556TIP3    H177083   0.809   6.021   5.930  0.9742 -1.2240  0.1830
18556TIP3    H277084   0.671   6.004   5.988  0.6121  0.6708 -0.0393
18557TIP3   OH277085   5.264   4.297  15.287  0.3801  0.3220  0.2235
18557TIP3    H177086   5.182   4.263  15.252  0.3523  0.3594  0.2509
18557TIP3    H277087   5.293   4.361  15.222  0.9792 -0.5164 -0.3506
18558TIP3   OH277088   4.881   4.088  12.415 -0.6053  0.2446 -0.2357
18558TIP3    H177089   4.915   4.096  12.326  0.6799 -0.9572  0.1026
18558TIP3    H277090   4.890   3.995  12.436 -3.9722 -0.1600 -0.0020
18559TIP3   OH277091   0.413   1.810   2.009  0.0607  0.3030 -0.1855
18559TIP3    H177092   0.357   1.738   1.979 -1.7255  1.1066  1.0700
18559TIP3    H277093   0.442   1.853   1.928 -1.6847  0.2576 -0.8760
18560TIP3   OH277094   2.531   0.806  14.945 -0.4615 -0.4458 -0.3274
18560TIP3    H177095   2.554   0.820  15.037  2.0705  1.8013 -1.1632
18560TIP3    H277096   2.464   0.872  14.927 -0.0521 -0.0287 -0.3591
18561TIP3   OH277097   4.072   3.170   6.181 -0.8629  0.1866  0.0994
18561TIP3    H177098   4.036   3.083   6.195  0.0186 -0.5995 -2.0782
18561TIP3    H277099   4.167   3.157   6.184 -0.7090  0.8304 -1.3325
18562TIP3   OH277100   3.589   2.227   2.317  0.3616 -0.4024  0.5686
18562TIP3    H177101   3.659   2.278   2.275  0.0806 -0.9332 -0.5836
18562TIP3    H277102   3.578   2.150   2.261  0.2738 -1.3803  1.8782
18563TIP3   OH277103   1.940   5.274  17.159  0.2467 -0.6959  0.0444
18563TIP3    H177104   1.864   5.229  17.195 -0.1985 -0.7744 -0.9706
18563TIP3    H277105   1.932   5.264  17.064  0.3004  1.2538 -0.2146
18564TIP3   OH277106   6.008   3.512  12.866 -0.0167  0.7874 -0.0972
18564TIP3    H177107   5.970   3.600  12.873 -1.8225 -0.0256  0.7757
18564TIP3    H277108   6.032   3.489  12.955  0.7263  0.4932 -0.3659
18565TIP3   OH277109   6.043   4.123   1.474 -0.0487  0.3561  0.2033
18565TIP3    H177110   6.074   4.206   1.510 -0.0346  0.4550 -0.0392
18565TIP3    H277111   5.953   4.115   1.506  0.4152 -0.2324  1.4416
18566TIP3   OH277112   1.457   6.416  13.006 -0.0039 -0.0706  0.1287
18566TIP3    H177113   1.530   6.471  13.035 -1.1482  0.7491  1.5587
18566TIP3    H277114   1.478   6.329  13.042 -0.1928  0.3867  1.4025
18567TIP3   OH277115   1.665   3.505   2.555 -0.6196 -0.1707  0.4885
18567TIP3    H177116   1.647   3.411   2.557  1.1941 -0.6550 -1.7246
18567TIP3    H277117   1.582   3.544   2.528 -0.7526 -1.4644 -1.1902
18568TIP3   OH277118   0.829   0.724  14.118 -0.1645 -0.0806  0.7338
18568TIP3    H177119   0.876   0.696  14.197  0.6854 -0.4044  0.1352
18568TIP3    H277120   0.748   0.673  14.119  0.6011 -1.3639  0.5367
18569TIP3   OH277121   5.059   5.878  13.177  0.3781 -0.7003  0.0148
18569TIP3    H177122   4.969   5.903  13.156  0.0925  0.0875  1.9142
18569TIP3    H277123   5.113   5.949  13.142  0.2903 -1.1304 -1.0462
18570TIP3   OH277124   2.748   4.361  13.127  0.2132  0.0774 -0.7962
18570TIP3    H177125   2.664   4.335  13.090  0.6067 -1.2157 -0.8319
18570TIP3    H277126   2.807   4.363  13.051  0.9268 -2.1661 -0.3673
18571TIP3   OH277127   0.665   0.963   4.549  0.2958 -0.0311 -0.0563
18571TIP3    H177128   0.587   0.912   4.570 -0.0001  0.5651  0.3237
18571TIP3    H277129   0.670   0.961   4.454  0.6616 -1.3089 -0.0386
18572TIP3   OH277130   3.855   1.006  13.382 -0.8172  0.5536  0.0304
18572TIP3    H177131   3.854   0.953  13.462 -0.5421  2.2226  1.1940
18572TIP3    H277132   3.791   0.964  13.324 -1.8454 -0.0678  1.5574
18573TIP3   OH277133   2.348   6.312  14.465  0.0437 -0.6277 -0.3219
18573TIP3    H177134   2.362   6.404  14.442 -0.8162 -1.0886 -3.0696
18573TIP3    H277135   2.264   6.290  14.424 -1.1860 -1.9894  2.5780
18574TIP3   OH277136   0.508   3.593   6.574  0.1034  0.8652  0.2191
18574TIP3    H177137   0.534   3.674   6.531  2.3420  0.4340  0.6735
18574TIP3    H277138   0.444   3.555   6.514  0.4272  2.0408 -0.9304
18575TIP3   OH277139   3.960   4.474   4.593 -0.2916  0.1990 -0.1738
18575TIP3    H177140   3.950   4.379   4.590  0.6724  0.0640  0.5026
18575TIP3    H277141   3.907   4.502   4.668  0.6659  0.0078  0.5886
18576TIP3   OH277142   2.474   1.055   0.111  0.0433 -0.5188 -0.6277
18576TIP3    H177143   2.545   1.054   0.047  0.5759 -1.1804 -0.0398
18576TIP3    H277144   2.507   1.004   0.185 -1.2666 -1.3716 -0.5936
18577TIP3   OH277145   0.009   6.264  11.638  0.0532  0.4425 -0.0117
18577TIP3    H177146   0.038   6.349  11.605  1.9588 -0.2147 -0.1414
18577TIP3    H277147  -0.043   6.227  11.566  0.3891  0.8979 -0.4974
18578TIP3   OH277148   2.404   1.459   4.073  0.4656  0.0747  0.2726
18578TIP3    H177149   2.380   1.549   4.052  1.5167  0.3355  0.1652
18578TIP3    H277150   2.439   1.463   4.161 -0.2540 -0.3749  0.5875
18579TIP3   OH277151   6.044   4.428  10.343  0.4073 -0.2486  0.0930
18579TIP3    H177152   6.097   4.425  10.423 -0.6817  0.7750  0.8855
18579TIP3    H277153   5.960   4.389  10.369  0.1987 -0.3174 -0.6718
18580TIP3   OH277154   1.031   6.134   3.604  0.2681 -0.3110  0.8697
18580TIP3    H177155   1.057   6.137   3.696  0.8037  1.1995  0.6847
18580TIP3    H277156   1.105   6.091   3.560 -0.1223 -1.3234  1.1580
18581TIP3   OH277157   3.930   2.270   5.516 -0.0603  0.0926  0.1264
18581TIP3    H177158   3.931   2.366   5.512 -0.8620  0.0820 -0.5029
18581TIP3    H277159   3.919   2.250   5.609 -1.2339  0.6338  0.1223
18582TIP3   OH277160   4.063   0.271  12.618 -0.1472 -0.3466 -0.1315
18582TIP3    H177161   3.996   0.223  12.569  0.1609 -0.4161 -0.4948
18582TIP3    H277162   4.126   0.298  12.551 -0.1758  0.3272  0.1136
18583TIP3   OH277163   4.786   4.648  14.778  0.2043 -0.1996 -0.2211
18583TIP3    H177164   4.809   4.590  14.851 -1.1952  0.8889  1.1398
18583TIP3    H277165   4.746   4.589  14.714  1.0504 -1.1121  0.0537
18584TIP3   OH277166   2.719   2.234   0.625  0.2493 -0.0368  0.2035
18584TIP3    H177167   2.775   2.272   0.557  0.4780  0.8155  0.8476
18584TIP3    H277168   2.757   2.148   0.642  1.0618  0.3245  0.2633
18585TIP3   OH277169   0.634   0.203   3.068  0.3128 -0.2218 -0.3974
18585TIP3    H177170   0.643   0.246   3.153 -2.5034  0.1353 -0.1631
18585TIP3    H277171   0.620   0.275   3.007  2.1989 -0.4847 -1.2046
18586TIP3   OH277172   3.792   3.755  12.335 -0.4255 -0.1914  0.3189
18586TIP3    H177173   3.800   3.694  12.261  1.9381  1.9104 -1.3481
18586TIP3    H277174   3.880   3.761  12.370 -0.3278  2.8558 -0.1845
18587TIP3   OH277175   5.954   1.313   2.067  0.5963  0.1902  0.3723
18587TIP3    H177176   6.026   1.306   2.004  3.8893  1.1733  3.6849
18587TIP3    H277177   5.897   1.381   2.030  1.4437 -0.4008 -2.2443
18588TIP3   OH277178   4.360   2.616   4.233  0.5666 -0.8109  0.5337
18588TIP3    H177179   4.382   2.688   4.292 -0.3538 -0.2099  0.1668
18588TIP3    H277180   4.302   2.560   4.284 -2.7669  1.2728 -0.6143
18589TIP3   OH277181   0.716   2.225  12.065  0.1703 -0.8896 -0.2371
18589TIP3    H177182   0.712   2.176  12.147  0.6226  0.2146  0.4577
18589TIP3    H277183   0.625   2.225  12.034 -0.3370  0.1182  1.1402
18590TIP3   OH277184   0.398   5.207   6.180  0.2125  0.2461  0.5182
18590TIP3    H177185   0.493   5.216   6.187  0.3878 -1.3878  0.5907
18590TIP3    H277186   0.367   5.296   6.167  1.7770  0.7805  0.1721
18591TIP3   OH277187   5.915   3.358  14.101  0.0925 -0.0712  0.1907
18591TIP3    H177188   5.868   3.304  14.037 -0.5132 -0.3849  0.8862
18591TIP3    H277189   5.980   3.405  14.049  1.8071 -2.6778 -0.2415
18592TIP3   OH277190   4.735   2.936   3.835  0.6143 -0.0923  0.1153
18592TIP3    H177191   4.783   2.970   3.911  0.8541 -1.9121  0.8198
18592TIP3    H277192   4.649   2.914   3.870  0.1689  0.5710 -0.5335
18593TIP3   OH277193   2.528   5.262  14.065  0.0130  0.1075  0.1954
18593TIP3    H177194   2.522   5.286  14.157  0.8559  1.4732 -0.0757
18593TIP3    H277195   2.469   5.324  14.020  0.3553  0.0949 -0.2795
18594TIP3   OH277196   2.370   3.554   2.390  0.5176  0.0896 -0.1805
18594TIP3    H177197   2.314   3.484   2.425  0.6583  0.0295 -0.0759
18594TIP3    H277198   2.351   3.555   2.296  1.3150 -0.8239 -0.3690
18595TIP3   OH277199   3.224   2.044  13.804 -0.4670 -0.1922  0.1441
18595TIP3    H177200   3.198   2.136  13.794  0.1423  0.0128  0.3768
18595TIP3    H277201   3.195   2.021  13.892  0.4490  0.1533  0.5517
18596TIP3   OH277202   5.202   6.786   0.098 -0.1589 -0.4981 -0.4321
18596TIP3    H177203   5.119   6.784   0.145  0.5067 -0.3472  0.7908
18596TIP3    H277204   5.192   6.720   0.029 -1.3770 -0.3014 -0.4619
18597TIP3   OH277205   0.178   6.432   3.115 -0.0512 -0.5580  0.6261
18597TIP3    H177206   0.141   6.419   3.203  1.6031 -0.4634  1.3648
18597TIP3    H277207   0.153   6.521   3.092 -1.0047 -0.7866  0.7333
18598TIP3   OH277208   0.778   4.676  12.739  0.3745  0.2001  0.5290
18598TIP3    H177209   0.748   4.626  12.814 -0.7298 -1.1021 -0.7236
18598TIP3    H277210   0.742   4.630  12.663  0.9998  1.7661 -0.7839
18599TIP3   OH277211   6.370   0.763  10.707  0.0953 -0.0380  0.2669
18599TIP3    H177212   6.337   0.680  10.673  0.5909 -0.3382  0.5230
18599TIP3    H277213   6.310   0.829  10.669 -1.4593 -0.6431  1.5613
18600TIP3   OH277214   0.380   1.797   2.557  0.5964  0.1319  0.1842
18600TIP3    H177215   0.403   1.719   2.608 -0.8722  0.5093  1.5018
18600TIP3    H277216   0.316   1.843   2.611 -0.2908  1.0837 -1.5819
18601TIP3   OH277217   0.172   1.454   5.448 -0.3688 -0.0673  0.1747
18601TIP3    H177218   0.251   1.401   5.439 -0.6904 -0.4390 -0.5403
18601TIP3    H277219   0.181   1.521   5.380 -0.2545  0.4376  0.6757
18602TIP3   OH277220   1.946   3.881  10.883  0.2825 -0.0516  0.0095
18602TIP3    H177221   1.918   3.798  10.846  0.2948  0.8317 -2.0928
18602TIP3    H277222   1.893   3.892  10.962 -1.7311 -0.7414 -1.1964
18603TIP3   OH277223   2.943   4.511   2.623  0.3537  0.2470 -0.0937
18603TIP3    H177224   2.899   4.434   2.584 -0.9640  0.5869  0.6555
18603TIP3    H277225   2.952   4.572   2.550  0.6208 -0.2778 -0.5087
18604TIP3   OH277226   3.603   0.929   6.273 -0.1217  0.0039  0.3392
18604TIP3    H177227   3.666   0.983   6.321 -0.4916 -0.4390  1.3494
18604TIP3    H277228   3.533   0.989   6.248  0.1780  0.2800  0.1539
18605TIP3   OH277229   0.553   1.811   2.342 -0.1942 -0.1996 -0.0508
18605TIP3    H177230   0.530   1.893   2.298 -2.4543 -1.1437 -0.7939
18605TIP3    H277231   0.489   1.804   2.413 -1.2000 -2.1003 -1.0645
18606TIP3   OH277232   5.843   1.503   2.458  0.0967  0.1724 -0.0864
18606TIP3    H177233   5.765   1.460   2.423  0.3963 -0.5940  0.1641
18606TIP3    H277234   5.890   1.532   2.381 -0.6301  1.0040 -0.2307
18607TIP3   OH277235   5.242   1.646  16.412  0.2828 -0.4637 -0.4165
18607TIP3    H177236   5.287   1.709  16.469  0.7254 -0.7101 -0.4924
18607TIP3    H277237   5.155   1.638  16.451  1.0916 -1.9105  1.2484
18608TIP3   OH277238   0.167   2.367  14.381  0.1127  0.5488 -0.3851
18608TIP3    H177239   0.233   2.419  14.425 -0.4058  0.5422  0.4311
18608TIP3    H277240   0.150   2.294  14.441 -1.9862  1.5562  0.3692
18609TIP3   OH277241   4.370   3.067   5.598 -0.7939  0.3093 -0.1076
18609TIP3    H177242   4.441   3.008   5.624  1.5073  2.6852 -0.5412
18609TIP3    H277243   4.371   3.065   5.503 -2.1813 -0.5336 -0.1277
18610TIP3   OH277244   0.504   3.466   0.289  0.0691 -0.7145  0.1844
18610TIP3    H177245   0.560   3.482   0.364  2.3721 -0.5409 -1.4728
18610TIP3    H277246   0.475   3.553   0.260  2.0369 -0.4425 -1.1353
18611TIP3   OH277247   3.600   2.066  15.389  0.1101  0.1695  0.1330
18611TIP3    H177248   3.623   2.159  15.386  0.7549 -0.0098 -1.1081
18611TIP3    H277249   3.514   2.061  15.348 -0.4571  0.3455  1.2558
18612TIP3   OH277250   6.414   6.626  10.654  0.8280 -0.5764  0.4470
18612TIP3    H177251   6.450   6.703  10.612 -2.2303  0.2949 -0.8928
18612TIP3    H277252   6.402   6.651  10.746 -0.5091  0.7587 -0.0584
18613TIP3   OH277253   0.409   4.093   1.339 -0.0181  0.0791 -0.0155
18613TIP3    H177254   0.434   4.089   1.431 -1.5928  0.7668  0.4692
18613TIP3    H277255   0.454   4.171   1.305  0.2621  0.0392  0.2605
18614TIP3   OH277256   2.830   3.931  17.173  0.4116  0.2851  0.3908
18614TIP3    H177257   2.829   3.942  17.078 -0.2925 -0.9086  0.2464
18614TIP3    H277258   2.816   4.019  17.207 -1.5859  0.4099 -0.6402
18615TIP3   OH277259   2.758   2.015   5.629 -0.7522 -0.0458  0.1309
18615TIP3    H177260   2.759   2.080   5.700 -0.2273  0.8169 -0.6540
18615TIP3    H277261   2.736   2.065   5.551  2.5338 -0.2224 -1.0282
18616TIP3   OH277262   3.267   2.925   1.158  0.5770  0.4150  0.0736
18616TIP3    H177263   3.247   2.845   1.110  0.1994  1.9076 -2.4733
18616TIP3    H277264   3.186   2.945   1.205 -0.3464  0.7131 -1.5363
18617TIP3   OH277265   6.463   3.714  15.343  0.1347 -0.0035 -0.4663
18617TIP3    H177266   6.456   3.793  15.290 -1.4522 -0.7550 -1.4517
18617TIP3    H277267   6.372   3.691  15.364  0.4280 -2.4549 -1.5966
18618TIP3   OH277268   5.654   0.873  15.145 -0.4038  0.4439  0.6080
18618TIP3    H177269   5.582   0.832  15.097 -0.1774  1.6046 -0.7928
18618TIP3    H277270   5.611   0.936  15.203 -0.5388  1.7827 -0.8640
18619TIP3   OH277271   2.419   0.071  12.236 -0.0935 -0.1921  0.6999
18619TIP3    H177272   2.361   0.043  12.165  0.7186 -1.7493  0.5967
18619TIP3    H277273   2.379   0.036  12.315 -0.0396 -0.0480  0.7900
18620TIP3   OH277274   1.501   1.796  12.108  0.3269  0.5202 -0.1518
18620TIP3    H177275   1.458   1.872  12.068  0.0564  0.5994  0.2787
18620TIP3    H277276   1.429   1.734  12.124  0.4606  0.4114  0.0274
18621TIP3   OH277277   2.668   1.515   2.758  0.0804  0.3556  0.6334
18621TIP3    H177278   2.651   1.425   2.729 -1.5688  0.1343  2.1306
18621TIP3    H277279   2.664   1.567   2.678 -0.8786 -0.6656 -0.0081
18622TIP3   OH277280   5.896   0.332  16.132  0.3246  0.2185  0.0692
18622TIP3    H177281   5.897   0.262  16.197 -0.1516 -0.1747 -0.3335
18622TIP3    H277282   5.927   0.410  16.179  1.8176 -0.4698  0.2769
18623TIP3   OH277283   1.891   0.975   3.917  0.7866  0.0590  0.3050
18623TIP3    H177284   1.861   0.915   3.985 -0.5672 -0.1785 -0.4678
18623TIP3    H277285   1.897   0.921   3.838 -0.4653  0.9181 -0.4095
18624TIP3   OH277286   6.235   0.084  11.879 -0.1840 -0.2632 -0.0476
18624TIP3    H177287   6.269   0.057  11.964  1.9039 -0.9614 -1.0501
18624TIP3    H277288   6.214   0.177  11.890 -3.3772 -1.0961  2.1956
18625TIP3   OH277289   5.327   4.442   4.925  0.2452  0.0460 -0.1612
18625TIP3    H177290   5.267   4.368   4.927  2.7293 -2.1738  3.0375
18625TIP3    H277291   5.271   4.519   4.912 -2.7800 -2.1083 -0.8094
18626TIP3   OH277292   2.679   1.667  15.863 -0.6743  0.0908 -0.1859
18626TIP3    H177293   2.767   1.665  15.826 -0.3688  1.3062  0.4401
18626TIP3    H277294   2.672   1.586  15.913 -0.7451 -1.1272 -2.0546
18627TIP3   OH277295   3.265   4.607   3.360 -0.6142  0.0849  0.2467
18627TIP3    H177296   3.218   4.581   3.439  0.1708 -1.7265  0.1634
18627TIP3    H277297   3.223   4.557   3.289  0.5134 -0.5116 -0.0286
18628TIP3   OH277298   1.112   6.378  13.290 -0.3599  0.4771 -0.4869
18628TIP3    H177299   1.069   6.309  13.340 -2.2993  1.2969 -0.9322
18628TIP3    H277300   1.195   6.338  13.261 -1.3182 -1.5990 -0.5850
18629TIP3   OH277301   4.991   5.522   0.625 -0.2847 -0.0228  0.3006
18629TIP3    H177302   5.004   5.440   0.673 -2.6755  0.5318  2.1302
18629TIP3    H277303   5.035   5.588   0.678  0.4456  0.0839 -0.4265
18630TIP3   OH277304   2.449   1.078   3.501  0.4488 -0.1681  0.1277
18630TIP3    H177305   2.516   1.054   3.437  0.3376  2.7935 -1.3077
18630TIP3    H277306   2.495   1.133   3.564 -0.3730  1.0298 -0.2808
18631TIP3   OH277307   5.997   6.376   2.132 -0.0396  0.4339  0.2471
18631TIP3    H177308   5.965   6.452   2.082 -0.7449 -0.3093 -0.4555
18631TIP3    H277309   5.961   6.389   2.219 -0.6615  0.6008 -0.0289
18632TIP3   OH277310   5.080   0.059  12.594 -0.4869  0.1849 -0.1320
18632TIP3    H177311   5.165   0.060  12.639 -1.2358  1.4377  1.3750
18632TIP3    H277312   5.019   0.022  12.658 -1.4524  1.2969 -0.3694
18633TIP3   OH277313   1.183   3.923   5.046  0.0747 -0.2300  0.3844
18633TIP3    H177314   1.271   3.932   5.084  0.0517 -1.7226  0.8481
18633TIP3    H277315   1.198   3.877   4.964 -0.2148  0.1205  0.1348
18634TIP3   OH277316   5.841   6.291   0.185 -0.1565 -0.2044  0.5496
18634TIP3    H177317   5.914   6.246   0.229  2.8078  3.3662 -0.2317
18634TIP3    H277318   5.840   6.254   0.097  3.2674  1.8976 -0.5915
18635TIP3   OH277319   2.250   6.517   4.679  0.0130  0.4525 -0.9851
18635TIP3    H177320   2.300   6.464   4.617  1.4474 -0.1137  0.5960
18635TIP3    H277321   2.197   6.454   4.727  0.7680  0.5643  0.0299
18636TIP3   OH277322   1.537   3.445  11.864  0.6391  0.5284  0.6754
18636TIP3    H177323   1.618   3.397  11.880  1.1936  0.4790 -1.8486
18636TIP3    H277324   1.561   3.537  11.874  1.0321  0.5146 -0.0944
18637TIP3   OH277325   6.168   6.226   2.806  0.5446  0.1861  0.0374
18637TIP3    H177326   6.137   6.315   2.825 -0.4105 -0.0938 -0.1604
18637TIP3    H277327   6.091   6.180   2.773  0.5801 -1.2044  1.7419
18638TIP3   OH277328   0.486   1.192  17.169 -0.5146 -0.9678  0.1161
18638TIP3    H177329   0.511   1.283  17.155  1.3787 -1.4560 -0.0065
18638TIP3    H277330   0.403   1.182  17.123  0.7025 -0.0320 -2.5301
18639TIP3   OH277331   1.397   5.826  16.154  0.0839 -0.2946 -0.2136
18639TIP3    H177332   1.483   5.846  16.117 -0.4983  0.6921 -1.1170
18639TIP3    H277333   1.335   5.849  16.084 -0.9010 -1.3716  0.2569
18640TIP3   OH277334   0.865   0.781   1.586  0.1286  0.2595  0.3758
18640TIP3    H177335   0.785   0.791   1.534 -0.1922  1.6581  1.0861
18640TIP3    H277336   0.846   0.708   1.645 -1.1182  1.3095  1.3431
18641TIP3   OH277337   2.395   3.418  16.744 -0.3649 -0.1921 -0.0706
18641TIP3    H177338   2.438   3.406  16.829 -0.9797 -0.2391  0.2363
18641TIP3    H277339   2.434   3.499  16.710 -2.2286  1.5665  1.6171
18642TIP3   OH277340   3.979   5.372   5.970 -0.1504 -0.1494  0.3758
18642TIP3    H177341   4.070   5.372   6.000 -0.1851  1.6008  0.5627
18642TIP3    H277342   3.951   5.281   5.980  1.2933 -0.5445  1.1675
18643TIP3   OH277343   4.670   0.063  10.680  0.3481 -0.3648  0.5374
18643TIP3    H177344   4.650   0.132  10.616  2.2638 -0.3134 -0.0475
18643TIP3    H277345   4.607   0.078  10.751 -1.4906 -0.1026 -1.0537
18644TIP3   OH277346   3.713   3.122   5.516  0.3598  0.0329  0.1707
18644TIP3    H177347   3.649   3.137   5.585  0.6785  0.9191  0.2822
18644TIP3    H277348   3.798   3.133   5.558  0.5838 -0.5775 -0.1023
18645TIP3   OH277349   2.749   5.391   0.306  0.0862  0.0353  0.3608
18645TIP3    H177350   2.708   5.306   0.321 -0.4819  0.1459 -0.4721
18645TIP3    H277351   2.787   5.415   0.390  0.1992 -1.0104  0.6208
18646TIP3   OH277352   1.072   5.130   0.909  0.5873 -0.8625 -0.0144
18646TIP3    H177353   1.097   5.183   0.985 -0.9396 -2.5635  1.7968
18646TIP3    H277354   1.025   5.190   0.852 -0.6206 -0.0863  1.6997
18647TIP3   OH277355   6.421   4.683   2.612  0.0372  0.0940  0.4303
18647TIP3    H177356   6.382   4.596   2.607  0.3801 -0.1793  1.8174
18647TIP3    H277357   6.361   4.733   2.667 -0.7128  1.0817 -1.2387
18648TIP3   OH277358   2.094   3.203   4.550  0.6729 -0.2427  0.4072
18648TIP3    H177359   2.091   3.162   4.464 -0.2276  2.0195 -0.7331
18648TIP3    H277360   2.180   3.180   4.585  0.8669 -1.6153 -0.8446
18649TIP3   OH277361   3.580   0.430  16.694 -0.5268  0.6018  0.1860
18649TIP3    H177362   3.614   0.477  16.618  0.3426 -0.9922 -0.4767
18649TIP3    H277363   3.659   0.406  16.743 -1.1213  3.2724  2.7299
18650TIP3   OH277364   1.455   3.299  13.214 -1.3816 -0.4311  0.0142
18650TIP3    H177365   1.546   3.290  13.243 -1.1954 -1.7134 -0.8952
18650TIP3    H277366   1.454   3.260  13.126 -2.8767 -0.7037  0.1362
18651TIP3   OH277367   5.960   1.966   0.144  0.0268  0.2397  0.0758
18651TIP3    H177368   5.887   2.027   0.151 -0.8416 -0.8372  0.7353
18651TIP3    H277369   6.001   1.967   0.230  0.1930  0.1088 -0.0011
18652TIP3   OH277370   1.232   5.275   3.422 -0.5341  0.2078  0.1163
18652TIP3    H177371   1.327   5.290   3.427 -0.3713 -0.7676  0.0710
18652TIP3    H277372   1.213   5.218   3.496 -0.8714 -0.6269 -0.5960
18653TIP3   OH277373   2.046   1.550  16.997  0.2941 -0.5094 -0.6343
18653TIP3    H177374   1.995   1.490  16.943  0.3447 -1.6950  0.5929
18653TIP3    H277375   2.131   1.508  17.006  0.0698 -0.6765  0.9152
18654TIP3   OH277376   4.898   4.247   3.139 -0.2173  0.0944  0.0942
18654TIP3    H177377   4.970   4.256   3.201  0.2877  0.1991 -0.4980
18654TIP3    H277378   4.912   4.318   3.076 -0.7095 -0.0248 -0.1536
18655TIP3   OH277379   0.547   0.344   0.753 -0.6469 -0.0086 -0.2558
18655TIP3    H177380   0.507   0.403   0.689 -1.1027  0.4427  0.4342
18655TIP3    H277381   0.502   0.260   0.741 -0.6892  0.0576 -0.5592
18656TIP3   OH277382   4.900   1.186   5.924 -0.1590 -0.2356  0.2822
18656TIP3    H177383   4.848   1.266   5.913 -0.2050 -0.4024 -0.7741
18656TIP3    H277384   4.875   1.154   6.011 -0.4244  0.6908  0.5624
18657TIP3   OH277385   0.710   5.179  11.006  0.0552 -0.4402  0.2442
18657TIP3    H177386   0.747   5.092  11.019  1.1693  0.2181  1.7077
18657TIP3    H277387   0.761   5.216  10.933  1.5597  0.0181  1.4829
18658TIP3   OH277388   5.357   1.825   3.436  0.0788 -0.4732  0.3635
18658TIP3    H177389   5.286   1.836   3.373 -0.2771  0.2956  0.8756
18658TIP3    H277390   5.405   1.908   3.432  0.3413 -0.6035  0.7490
18659TIP3   OH277391   0.453   6.710  13.161 -0.1473 -0.2905  0.5205
18659TIP3    H177392   0.432   6.628  13.116 -1.0804  0.2039  0.0078
18659TIP3    H277393   0.380   6.769  13.137  0.9212  0.9447  0.2027
18660TIP3   OH277394   2.824   2.768   1.902 -0.4334 -0.1096 -0.4844
18660TIP3    H177395   2.826   2.863   1.890 -0.0437 -0.2107 -1.3008
18660TIP3    H277396   2.910   2.747   1.939 -0.9059 -0.0332  0.7009
18661TIP3   OH277397   1.219   5.035  11.336 -0.0389  0.4628 -0.1520
18661TIP3    H177398   1.138   5.015  11.290 -0.6355  3.5081 -0.6372
18661TIP3    H277399   1.287   4.991  11.285 -1.1317  0.0882 -1.3397
18662TIP3   OH277400   3.424   4.226  13.070  0.0907 -0.2599  0.0273
18662TIP3    H177401   3.418   4.318  13.097 -1.9373 -0.8099  1.6973
18662TIP3    H277402   3.388   4.225  12.981 -0.8279  0.4479  0.3744
18663TIP3   OH277403   4.387   3.413   1.678 -0.0685  0.1142  0.1451
18663TIP3    H177404   4.301   3.419   1.636  1.2134  0.8760 -2.6354
18663TIP3    H277405   4.378   3.463   1.759 -2.1699  0.3584 -0.1827
18664TIP3   OH277406   1.249   4.719   4.974  0.0295  0.6153 -0.3322
18664TIP3    H177407   1.197   4.786   5.018 -0.6365  0.3666 -0.7253
18664TIP3    H277408   1.321   4.701   5.034  0.0126  1.4171 -0.0601
18665TIP3   OH277409   6.171   5.349  16.583  0.2371  0.0968 -0.6452
18665TIP3    H177410   6.222   5.275  16.616 -1.8575 -0.5980  1.2972
18665TIP3    H277411   6.223   5.426  16.606  0.8042 -0.6076  0.5363
18666TIP3   OH277412   0.313   4.476  12.466  0.4964 -0.0167 -0.0451
18666TIP3    H177413   0.380   4.414  12.437  1.6917  1.2499 -0.1359
18666TIP3    H277414   0.334   4.494  12.557  1.1895  1.4542 -0.4626
18667TIP3   OH277415   1.538   0.721   0.126  0.0568 -1.2745  0.5829
18667TIP3    H177416   1.587   0.801   0.145 -0.3682 -0.8752  0.0752
18667TIP3    H277417   1.448   0.742   0.153 -0.4168 -0.9354 -1.1349
18668TIP3   OH277418   0.533   3.672  13.419  0.7910  0.2872 -0.5482
18668TIP3    H177419   0.517   3.668  13.325 -0.6237 -2.1588 -0.2891
18668TIP3    H277420   0.585   3.594  13.438 -1.4845 -0.9811  1.0301
18669TIP3   OH277421   4.751   0.045   0.586 -0.4508 -0.2808  0.0232
18669TIP3    H177422   4.718   0.032   0.497 -1.7546 -1.3793  0.6409
18669TIP3    H277423   4.757   0.140   0.596 -1.2865 -0.1212 -0.8783
18670TIP3   OH277424   3.891   4.488   0.938  0.1801 -0.5263 -0.4413
18670TIP3    H177425   3.877   4.564   0.880  0.0665  0.8376  1.2951
18670TIP3    H277426   3.976   4.504   0.978 -0.9178  0.0773  1.8534
18671TIP3   OH277427   0.523   6.477  13.810  0.3106 -0.0452 -0.4581
18671TIP3    H177428   0.456   6.413  13.786 -0.2775  0.8217 -1.1843
18671TIP3    H277429   0.514   6.547  13.745  0.3516  1.1925  0.8188
18672TIP3   OH277430   0.056   5.974  14.667  0.0680  0.0555 -0.1749
18672TIP3    H177431   0.110   6.051  14.684  0.6345 -0.1627 -0.9607
18672TIP3    H277432   0.080   5.912  14.736 -1.4308  1.0817  1.3511
18673TIP3   OH277433   4.985   1.191   1.782 -0.5585  0.0989  0.3194
18673TIP3    H177434   4.927   1.228   1.715 -2.0275  0.8259  1.9275
18673TIP3    H277435   4.956   1.231   1.864  2.0972  0.3243  1.2537
18674TIP3   OH277436   1.819   1.473   4.905  0.2966 -0.1505 -0.3873
18674TIP3    H177437   1.854   1.414   4.972  1.4477  1.7165  0.7380
18674TIP3    H277438   1.729   1.489   4.931  0.2011 -0.8156 -0.2950
18675TIP3   OH277439   1.429   5.771   2.256  0.2000  0.8890  0.1097
18675TIP3    H177440   1.453   5.679   2.270 -0.9411  0.2008 -1.8953
18675TIP3    H277441   1.401   5.802   2.342  0.1098 -0.8127  0.7419
18676TIP3   OH277442   4.455   4.580  12.605 -0.4247 -0.4672  0.2959
18676TIP3    H177443   4.456   4.499  12.553  0.0232 -1.0651  1.2053
18676TIP3    H277444   4.481   4.552  12.693 -1.2991  0.4929  0.8894
18677TIP3   OH277445   0.131   5.561  12.214  0.6291  0.4348  0.2607
18677TIP3    H177446   0.141   5.649  12.179 -0.7823  0.9483  1.0493
18677TIP3    H277447   0.077   5.516  12.149  0.5114  0.4726  0.3308
18678TIP3   OH277448   5.156   3.209   4.846 -0.8853 -0.1590 -0.2646
18678TIP3    H177449   5.200   3.280   4.892  1.7548 -1.0140 -1.3005
18678TIP3    H277450   5.106   3.163   4.914  0.1674  0.6080  1.0732
18679TIP3   OH277451   6.215   3.847  15.629 -0.1873 -0.1622  0.4351
18679TIP3    H177452   6.177   3.935  15.621 -1.8624 -0.8268  0.7180
18679TIP3    H277453   6.307   3.863  15.649 -0.2760  1.5281 -0.2846
18680TIP3   OH277454   2.764   3.919  16.099 -0.0144 -0.4887 -0.2973
18680TIP3    H177455   2.743   3.873  16.180  0.4944  0.0008  0.1126
18680TIP3    H277456   2.734   3.859  16.030 -2.2782 -0.0870  0.2381
18681TIP3   OH277457   2.548   6.506   2.038  0.0270 -0.0934  0.5152
18681TIP3    H177458   2.525   6.452   2.113  0.8346 -2.2177 -0.6993
18681TIP3    H277459   2.504   6.465   1.963  2.6374 -0.6291 -0.8430
18682TIP3   OH277460   6.612   4.193   0.448 -0.1196 -0.1168  0.3475
18682TIP3    H177461   6.537   4.136   0.434  0.9628 -1.2865 -0.8870
18682TIP3    H277462   6.648   4.165   0.533 -1.4983  1.0030  1.3540
18683TIP3   OH277463   5.021   1.289   2.674  0.4508 -0.1036  0.3738
18683TIP3    H177464   4.954   1.334   2.726 -0.2651  0.0256 -0.6200
18683TIP3    H277465   5.013   1.197   2.699  0.0188 -0.0629  0.3940
18684TIP3   OH277466   1.826   4.616  13.704  0.0083 -0.1660 -0.2136
18684TIP3    H177467   1.916   4.644  13.722 -0.0977 -0.4556  0.8189
18684TIP3    H277468   1.811   4.544  13.765 -1.3929  0.8013  0.6510
18685TIP3   OH277469   5.542   1.784   4.702  0.2272  0.6007  0.4377
18685TIP3    H177470   5.537   1.743   4.789 -1.6740 -1.7850 -0.6762
18685TIP3    H277471   5.625   1.754   4.666 -0.3979 -1.0365  0.2832
18686TIP3   OH277472   1.350   4.636  14.684 -0.2045 -0.5149 -0.4320
18686TIP3    H177473   1.438   4.637  14.646 -0.9253 -3.7343 -2.6200
18686TIP3    H277474   1.291   4.649  14.610 -1.6290 -0.2082  0.6972
18687TIP3   OH277475   5.462   2.823  15.521  0.0247 -0.1162  0.1445
18687TIP3    H177476   5.533   2.862  15.572  0.1958  0.7753 -0.7394
18687TIP3    H277477   5.433   2.894  15.463 -2.1244 -0.2235  1.0252
18688TIP3   OH277478   4.892   4.848   3.030 -0.0224  0.8287 -0.9911
18688TIP3    H177479   4.868   4.756   3.042  1.0256  0.7937  1.2297
18688TIP3    H277480   4.809   4.895   3.039 -0.2078  0.2727  0.5328
18689TIP3   OH277481   6.484   3.906  11.277  0.0643 -0.2003  0.3655
18689TIP3    H177482   6.468   3.973  11.211 -1.6808 -1.4101 -0.5141
18689TIP3    H277483   6.447   3.826  11.240 -2.6342 -0.5863  3.4297
18690TIP3   OH277484   4.950   1.099   5.470 -0.1110  0.2669  0.1344
18690TIP3    H177485   5.012   1.083   5.541  0.2152 -1.2979 -0.4444
18690TIP3    H277486   4.987   1.174   5.423  0.1926  0.6950  1.0344
18691TIP3   OH277487   5.379   5.452   0.413 -0.3496 -0.3368  0.6394
18691TIP3    H177488   5.369   5.529   0.469  0.8160  0.1931  0.1651
18691TIP3    H277489   5.414   5.385   0.471 -2.0717 -0.7792  1.2305
18692TIP3   OH277490   2.619   0.830  12.105  0.3381  0.2696 -0.3360
18692TIP3    H177491   2.565   0.752  12.114  1.3252 -0.4226 -0.1914
18692TIP3    H277492   2.637   0.858  12.195 -0.9434  1.3640 -0.3819
18693TIP3   OH277493   1.993   6.500   4.934 -0.0253 -0.4696  0.0980
18693TIP3    H177494   1.915   6.509   4.880  0.8403 -1.4497 -1.3819
18693TIP3    H277495   2.006   6.586   4.973 -1.8530 -0.3087  0.4244
18694TIP3   OH277496   4.968   3.635  11.898 -0.2295  0.0908  0.5606
18694TIP3    H177497   4.874   3.619  11.905 -0.3138  0.4570  0.2811
18694TIP3    H277498   4.993   3.593  11.816 -0.2543  0.4729  0.3559
18695TIP3   OH277499   1.808   0.347  16.905  0.4040 -0.0386 -0.1540
18695TIP3    H177500   1.771   0.330  16.818  2.2037  1.0867 -1.1879
18695TIP3    H277501   1.828   0.260  16.940 -0.2066 -0.4978 -0.9121
18696TIP3   OH277502   6.795   5.250  13.222  0.4905  0.0837 -0.0647
18696TIP3    H177503   6.764   5.249  13.313 -0.8956  1.3708 -0.4899
18696TIP3    H277504   6.859   5.320  13.220  1.3056 -0.6350  0.1328
18697TIP3   OH277505   1.545   4.928   0.077 -0.1623 -0.8035 -0.4246
18697TIP3    H177506   1.546   4.833   0.081  1.4359 -0.9662 -2.9028
18697TIP3    H277507   1.623   4.955   0.125 -0.5218 -0.7008  0.1258
18698TIP3   OH277508   1.998   2.037  11.032  0.3891  0.2254  0.1353
18698TIP3    H177509   2.026   2.035  10.940  0.3861 -0.2932  0.1447
18698TIP3    H277510   2.011   1.948  11.063  0.0060  0.3039  0.5279
18699TIP3   OH277511   2.443   5.190   2.947 -0.2424 -0.2386  0.2480
18699TIP3    H177512   2.435   5.261   2.884 -1.4959  0.4075  1.0770
18699TIP3    H277513   2.500   5.225   3.015 -0.1877 -0.3325  0.2502
18700TIP3   OH277514   2.317   3.834   2.502  0.0467 -0.1390  0.2218
18700TIP3    H177515   2.381   3.767   2.528  2.9722  2.1491 -0.5853
18700TIP3    H277516   2.328   3.841   2.407 -0.9675  0.7790  0.1658
18701TIP3   OH277517   6.041   2.153  15.038  0.2744 -0.0764  0.8100
18701TIP3    H177518   6.094   2.087  14.994 -0.6194  0.1462 -0.6496
18701TIP3    H277519   6.021   2.218  14.970  0.2561  1.1664  1.9542
18702TIP3   OH277520   3.408   4.031  10.580 -0.1678  0.2764  0.1001
18702TIP3    H177521   3.454   3.947  10.574 -1.0009 -0.2678  1.0074
18702TIP3    H277522   3.374   4.033  10.669 -1.3821  0.9299 -0.3608
18703TIP3   OH277523   5.002   5.690   1.626 -0.2458 -0.5085  0.4081
18703TIP3    H177524   5.098   5.688   1.631 -0.2888  0.2037  1.7951
18703TIP3    H277525   4.976   5.766   1.677 -1.5752 -0.7888  0.1975
18704TIP3   OH277526   3.385   0.702  10.903 -0.1939  0.4065  0.3702
18704TIP3    H177527   3.468   0.679  10.861  0.1201  1.0766  0.6095
18704TIP3    H277528   3.324   0.715  10.831  0.4227  1.8802  0.0939
18705TIP3   OH277529   0.556   1.238  16.430 -0.1888  0.2508 -0.5956
18705TIP3    H177530   0.577   1.187  16.352 -0.1034 -0.4069 -0.1526
18705TIP3    H277531   0.473   1.281  16.409 -0.8516 -0.9684 -0.5736
18706TIP3   OH277532   4.341   0.118  13.046  0.8381 -0.4467 -0.2050
18706TIP3    H177533   4.293   0.054  13.098  0.4411  0.0992  0.1135
18706TIP3    H277534   4.294   0.200  13.060  1.2386 -0.1214 -0.7435
18707TIP3   OH277535   5.838   4.964   0.227  0.0975  0.0214  0.1516
18707TIP3    H177536   5.877   4.888   0.183 -0.4584 -0.9361  1.2578
18707TIP3    H277537   5.786   5.007   0.159  1.2088  0.0070 -0.7505
18708TIP3   OH277538   1.137   5.907   5.719 -0.2749 -0.4488 -0.3313
18708TIP3    H177539   1.178   5.935   5.637 -0.0385  0.6452  0.1398
18708TIP3    H277540   1.059   5.962   5.726  0.0103 -0.1329  0.4566
18709TIP3   OH277541   0.086   4.013   1.670  0.0481  0.1588  0.1493
18709TIP3    H177542   0.082   4.003   1.574  0.1475  2.6770 -0.1858
18709TIP3    H277543   0.144   4.088   1.683 -0.6311  0.3700  2.1723
18710TIP3   OH277544   0.414   0.526  10.701 -0.0600  0.2214  0.4172
18710TIP3    H177545   0.410   0.456  10.636  1.1435  1.0442 -0.6158
18710TIP3    H277546   0.323   0.555  10.711 -0.3480 -0.3445 -0.4434
18711TIP3   OH277547   2.385   5.890  16.386  0.0054  0.8126  0.1978
18711TIP3    H177548   2.420   5.803  16.365 -0.0114  1.2755 -2.0531
18711TIP3    H277549   2.310   5.900  16.326 -0.6445  1.9648  1.1633
18712TIP3   OH277550   2.198   5.291  13.966 -0.0317 -0.0274  0.3121
18712TIP3    H177551   2.182   5.347  14.042  1.0017  2.6543 -1.3049
18712TIP3    H277552   2.245   5.347  13.905 -2.0635 -1.5865 -2.9483
18713TIP3   OH277553   1.033   0.050  10.928 -0.4514 -0.1634  0.0318
18713TIP3    H177554   1.014   0.030  10.836 -1.2060  0.7497 -0.0180
18713TIP3    H277555   1.086   0.129  10.926  0.8423 -0.9948  0.3273
18714TIP3   OH277556   1.857   5.838   1.404  0.6414 -0.0983 -0.4257
18714TIP3    H177557   1.910   5.808   1.330  0.8117  1.4924 -0.9990
18714TIP3    H277558   1.834   5.758   1.451 -0.3388 -1.2930 -2.7594
18715TIP3   OH277559   0.228   3.995  12.002 -0.1459 -0.1675 -0.1063
18715TIP3    H177560   0.149   3.945  12.018 -1.1015  1.3334  0.0637
18715TIP3    H277561   0.217   4.075  12.054  0.4770  1.0469 -1.7486
18716TIP3   OH277562   2.474   4.465   0.955 -0.4890 -0.2818  0.1880
18716TIP3    H177563   2.548   4.495   1.007  0.8069  0.9873 -2.1881
18716TIP3    H277564   2.398   4.507   0.995  0.8259  3.3372 -0.6975
18717TIP3   OH277565   3.070   6.125  15.063 -0.0661  0.1858  0.2448
18717TIP3    H177566   2.992   6.077  15.089 -0.2396 -1.1782 -2.4245
18717TIP3    H277567   3.134   6.106  15.131 -1.5155 -0.0415  1.6087
18718TIP3   OH277568   5.432   1.732   0.188  0.5190 -0.4862  0.2429
18718TIP3    H177569   5.386   1.800   0.238 -0.7738 -0.2576 -1.2053
18718TIP3    H277570   5.523   1.763   0.183 -0.0689  1.2213 -0.5074
18719TIP3   OH277571   1.819   2.514   0.342  0.8644  0.2324  0.1070
18719TIP3    H177572   1.849   2.543   0.428  1.3768 -0.0663  0.0305
18719TIP3    H277573   1.842   2.421   0.338 -1.3088 -0.3752  0.5895
18720TIP3   OH277574   2.028   6.684  13.615  0.6681 -0.2478  0.2329
18720TIP3    H177575   2.060   6.610  13.563  0.7599 -1.2269  1.6434
18720TIP3    H277576   1.933   6.680  13.606  0.7194  0.2945 -0.7636
18721TIP3   OH277577   0.644   4.124   5.169 -0.4520 -0.4932  0.3132
18721TIP3    H177578   0.724   4.124   5.117  0.0614  0.7177  1.0709
18721TIP3    H277579   0.598   4.045   5.142 -0.0630 -0.0721 -1.7699
18722TIP3   OH277580   4.771   5.510   2.186  0.3260 -0.1944 -0.4866
18722TIP3    H177581   4.756   5.429   2.137 -0.3136 -0.9775  0.9424
18722TIP3    H277582   4.825   5.564   2.127  2.5613 -2.4724 -0.6868
18723TIP3   OH277583   4.748   6.064  16.132 -0.1113  0.1563 -0.1270
18723TIP3    H177584   4.693   6.100  16.202 -0.8946 -1.5097  0.1688
18723TIP3    H277585   4.688   6.051  16.058  0.4536  0.7627 -0.7021
18724TIP3   OH277586   2.441   2.732  13.190 -0.1793 -0.5337 -0.6653
18724TIP3    H177587   2.400   2.772  13.113 -0.2756 -0.1520 -0.4156
18724TIP3    H277588   2.369   2.715  13.250  0.1471  1.3109  0.3121
18725TIP3   OH277589   2.992   5.141   1.984 -0.2824 -0.1274  0.3775
18725TIP3    H177590   3.007   5.070   1.921 -0.8874  0.7148 -0.7442
18725TIP3    H277591   3.036   5.111   2.064 -0.4655 -1.7329 -0.0820
18726TIP3   OH277592   1.329   2.860  13.660 -0.0469  0.1651 -0.3584
18726TIP3    H177593   1.375   2.918  13.600  0.0553 -0.2117 -0.6495
18726TIP3    H277594   1.306   2.784  13.607  2.8657 -1.6687  0.7884
18727TIP3   OH277595   5.422   5.148   5.191 -0.6528  0.0776 -0.1795
18727TIP3    H177596   5.502   5.187   5.225 -0.7929 -0.8836  1.3466
18727TIP3    H277597   5.444   5.056   5.177 -1.4857 -0.1988  0.2722
18728TIP3   OH277598   4.501   3.892  12.013  0.3009  0.2810  0.1538
18728TIP3    H177599   4.581   3.861  12.056  0.4753 -2.6024 -1.9709
18728TIP3    H277600   4.431   3.868  12.073  0.7553 -0.9894  0.2105
18729TIP3   OH277601   5.216   1.575   5.915  0.4510 -0.1939  0.5882
18729TIP3    H177602   5.217   1.664   5.879  0.8453 -0.1733  0.6448
18729TIP3    H277603   5.167   1.524   5.851 -2.0180  0.5437  1.7239
18730TIP3   OH277604   2.259   4.716   3.422  0.0899 -0.0026 -1.0764
18730TIP3    H177605   2.321   4.711   3.349 -0.3605 -0.3948 -1.4349
18730TIP3    H277606   2.261   4.629   3.462 -0.2899 -0.0418 -1.1393
18731TIP3   OH277607   5.927   1.489  11.698  0.8034  0.0313 -0.9005
18731TIP3    H177608   5.850   1.459  11.648  0.4146  1.1366 -0.9925
18731TIP3    H277609   5.927   1.435  11.776  0.1433 -0.2413 -1.0790
18732TIP3   OH277610   3.876   3.662  15.808  0.2230  0.4153  0.3880
18732TIP3    H177611   3.957   3.696  15.770  0.6756 -1.3840 -0.4055
18732TIP3    H277612   3.906   3.603  15.878 -0.4970  1.3130  1.4745
18733TIP3   OH277613   1.370   1.842   4.114  0.0293 -0.5341 -0.5831
18733TIP3    H177614   1.325   1.867   4.033  0.0956 -1.2512 -0.8492
18733TIP3    H277615   1.410   1.757   4.094  0.7823 -0.3043 -0.0732
18734TIP3   OH277616   4.054   6.677  13.573  0.0125  0.7317 -0.3109
18734TIP3    H177617   4.116   6.667  13.645 -0.3626 -0.6104 -0.1449
18734TIP3    H277618   3.968   6.679  13.616 -0.1568  0.9855 -0.6547
18735TIP3   OH277619   0.899   2.151  12.959 -0.3221  0.9217  0.1748
18735TIP3    H177620   0.952   2.153  12.880 -1.9215  0.7676 -0.9694
18735TIP3    H277621   0.861   2.063  12.960 -2.2842  1.7122 -0.2980
18736TIP3   OH277622   0.971   2.254   2.282 -0.0747 -0.4903 -0.2328
18736TIP3    H177623   0.989   2.344   2.255 -1.9243 -0.0172 -0.0170
18736TIP3    H277624   0.879   2.254   2.307 -0.0178 -2.3664  0.1467
18737TIP3   OH277625   5.213   4.005  15.948 -0.1187 -0.5995 -0.4219
18737TIP3    H177626   5.130   3.962  15.967  1.0417 -2.1762  1.3987
18737TIP3    H277627   5.189   4.079  15.891 -3.0344  0.2364  1.6350
18738TIP3   OH277628   2.612   3.948  11.323 -0.1439  0.2697 -0.3341
18738TIP3    H177629   2.668   3.966  11.398  1.4825  0.7897 -1.6277
18738TIP3    H277630   2.637   3.859  11.295  1.5499  1.2435 -2.1216
18739TIP3   OH277631   6.658   4.322  13.463 -0.5205 -0.7035 -0.9737
18739TIP3    H177632   6.699   4.275  13.390  1.2083  0.2518 -0.6642
18739TIP3    H277633   6.712   4.400  13.475 -0.6434 -0.9322  1.4653
18740TIP3   OH277634   3.612   2.967   1.923  0.5838  0.6810  0.2942
18740TIP3    H177635   3.570   3.052   1.938  1.2889  1.1284 -0.2335
18740TIP3    H277636   3.539   2.905   1.919  0.0524  1.2776  0.5314
18741TIP3   OH277637   3.397   0.132  14.293 -0.6883  0.3740 -0.3531
18741TIP3    H177638   3.332   0.068  14.263 -0.1014 -0.7214  0.6261
18741TIP3    H277639   3.461   0.136  14.222  0.2853 -1.6136  0.3251
18742TIP3   OH277640   6.126   4.327   5.121  0.2210 -0.8505 -0.5349
18742TIP3    H177641   6.036   4.305   5.143 -1.0790  3.0149 -1.2354
18742TIP3    H277642   6.122   4.359   5.031  1.8756  1.1298 -0.0046
18743TIP3   OH277643   6.212   5.684   1.400 -0.3029  0.1931  0.0713
18743TIP3    H177644   6.177   5.765   1.363 -0.4905  1.1920  2.2746
18743TIP3    H277645   6.183   5.685   1.491  1.4451 -1.3386  0.6953
18744TIP3   OH277646   5.792   6.088   2.168  0.2049 -0.6144 -0.0299
18744TIP3    H177647   5.845   6.052   2.239 -0.2607  0.8402  1.1086
18744TIP3    H277648   5.706   6.048   2.180 -0.1852  0.4637  0.9521
18745TIP3   OH277649   5.121   5.543   3.425 -0.0907 -0.2420  0.2101
18745TIP3    H177650   5.077   5.527   3.509  0.9195 -0.9409  0.6236
18745TIP3    H277651   5.154   5.633   3.432 -0.8448  0.0466  0.1650
18746TIP3   OH277652   4.418   1.712  10.996  0.5424 -0.0488 -0.4484
18746TIP3    H177653   4.395   1.666  10.915  0.6640 -0.6908 -0.1256
18746TIP3    H277654   4.513   1.719  10.994  0.4178  2.3892 -1.6640
18747TIP3   OH277655   0.497   0.290  12.490  0.2668  0.5274  0.1541
18747TIP3    H177656   0.570   0.343  12.458  0.1532  0.4565 -0.2405
18747TIP3    H277657   0.420   0.345  12.477 -0.1390 -0.4445 -2.2259
18748TIP3   OH277658   6.160   1.198   0.315  0.2873 -0.9784  0.1782
18748TIP3    H177659   6.146   1.104   0.322  0.6699 -1.0672 -0.2490
18748TIP3    H277660   6.168   1.215   0.221  3.2669 -0.9890  0.3267
18749TIP3   OH277661   4.361   1.449  16.580  0.1948  0.5592  0.5211
18749TIP3    H177662   4.306   1.382  16.539 -0.7094  0.7004  1.4543
18749TIP3    H277663   4.311   1.530  16.572  1.1986  1.1151 -0.4278
18750TIP3   OH277664   6.010   4.739  14.746 -0.0948 -0.0502 -0.4618
18750TIP3    H177665   6.002   4.699  14.659  0.1027 -0.3620 -0.3387
18750TIP3    H277666   5.977   4.828  14.734 -1.2410 -0.4723 -0.5734
18751TIP3   OH277667   2.730   1.429   0.956  0.2339  0.2535 -0.1163
18751TIP3    H177668   2.672   1.356   0.979  0.2015  0.2998 -0.0485
18751TIP3    H277669   2.792   1.392   0.894 -1.7443  0.9330 -2.6427
18752TIP3   OH277670   0.415   5.079   0.878  0.2318 -0.1037 -0.1195
18752TIP3    H177671   0.492   5.035   0.914 -0.2069 -1.5932 -0.9079
18752TIP3    H277672   0.436   5.091   0.785 -0.5142 -0.6180 -0.3641
18753TIP3   OH277673   3.234   6.325  11.433  0.0076 -0.2798  0.4851
18753TIP3    H177674   3.325   6.351  11.423 -0.8738  2.7733 -0.8025
18753TIP3    H277675   3.220   6.324  11.528  1.3935 -1.0792  0.7131
18754TIP3   OH277676   5.155   1.142  15.237  0.2661  0.2356  0.5542
18754TIP3    H177677   5.181   1.050  15.234  1.0703  0.4793 -0.5231
18754TIP3    H277678   5.238   1.190  15.235 -0.1858  1.0073 -1.1117
18755TIP3   OH277679   5.536   6.455  13.354  0.0809  0.2482 -0.0018
18755TIP3    H177680   5.621   6.498  13.346 -0.4354  1.0443 -1.4715
18755TIP3    H277681   5.551   6.385  13.419  2.5968 -1.4226 -2.1747
18756TIP3   OH277682   5.528   3.328  11.382 -0.1819 -0.5063  0.0263
18756TIP3    H177683   5.598   3.392  11.393  0.4301 -1.0418 -0.6908
18756TIP3    H277684   5.573   3.245  11.368 -0.9157 -0.5825 -2.2500
18757TIP3   OH277685   1.578   2.133  14.266 -0.3732 -0.0467  0.0515
18757TIP3    H177686   1.648   2.178  14.313 -0.6294  0.7879 -0.3530
18757TIP3    H277687   1.623   2.083  14.198 -0.1833  0.5605 -0.2674
18758TIP3   OH277688   3.307   1.010   6.398  0.4978  0.0985  0.0614
18758TIP3    H177689   3.300   0.915   6.399  0.1983  0.1242  0.4970
18758TIP3    H277690   3.370   1.030   6.467 -0.0825  0.2670  0.5451
18759TIP3   OH277691   5.393   0.573   3.774 -0.0116  0.4701  0.1635
18759TIP3    H177692   5.484   0.598   3.789 -0.6669  4.2164 -1.1954
18759TIP3    H277693   5.344   0.619   3.842 -1.1421  0.8533 -0.8891
18760TIP3   OH277694   5.804   4.165   1.603  0.4182 -0.0045  0.5438
18760TIP3    H177695   5.774   4.078   1.629 -1.1509  0.4591  0.3910
18760TIP3    H277696   5.846   4.201   1.682  1.6167 -1.0957  0.4329
18761TIP3   OH277697   4.728   6.283  14.795  0.0392 -0.0305  0.0872
18761TIP3    H177698   4.776   6.224  14.852  1.9590 -0.2674 -1.6699
18761TIP3    H277699   4.789   6.356  14.779 -0.4999  0.1233 -1.4619
18762TIP3   OH277700   6.210   4.990   0.903  0.1115  0.2835  0.2430
18762TIP3    H177701   6.116   5.003   0.915 -0.0286 -0.4031 -0.0791
18762TIP3    H277702   6.249   5.072   0.933 -0.6917  1.1654 -0.9988
18763TIP3   OH277703   5.241   4.805  11.700  0.2016 -0.0841 -0.2011
18763TIP3    H177704   5.266   4.718  11.729  1.3479  0.3367  0.1241
18763TIP3    H277705   5.313   4.862  11.728 -0.7774  1.0657  0.1064
18764TIP3   OH277706   6.140   6.622   0.426  0.6924  0.5072 -0.5765
18764TIP3    H177707   6.217   6.677   0.415  0.9575  0.1476 -0.5587
18764TIP3    H277708   6.120   6.592   0.337 -2.0623  4.0323 -1.3547
18765TIP3   OH277709   3.891   3.787   0.739 -0.4696 -0.1683  0.3966
18765TIP3    H177710   3.925   3.811   0.653 -1.1302 -1.6858 -0.3156
18765TIP3    H277711   3.797   3.778   0.727 -0.5186 -0.8492  1.1580
18766TIP3   OH277712   3.139   4.335  15.221  0.3649  0.0107 -0.0308
18766TIP3    H177713   3.066   4.346  15.282  0.3810  2.0684 -0.3173
18766TIP3    H277714   3.216   4.323  15.278  0.3393  1.6351  0.3845
18767TIP3   OH277715   5.796   2.321   3.859  0.5703  0.4152 -0.5856
18767TIP3    H177716   5.825   2.411   3.848  0.7253  0.2877 -1.2776
18767TIP3    H277717   5.785   2.288   3.769  0.2792 -0.1738 -0.3400
18768TIP3   OH277718   4.163   0.900   7.042  0.2578  0.0077 -0.4306
18768TIP3    H177719   4.252   0.880   7.013  0.5813 -1.2914  1.3270
18768TIP3    H277720   4.115   0.819   7.027  0.4003 -0.6616  2.3524
18769TIP3   OH277721   1.480   4.102   3.473 -0.1566  0.8698  0.2871
18769TIP3    H177722   1.463   4.030   3.534  1.0799  1.3594  1.2702
18769TIP3    H277723   1.561   4.141   3.506 -0.8689  2.7838 -0.1422
18770TIP3   OH277724   3.721   3.397  14.067  0.2466 -0.1307 -0.5672
18770TIP3    H177725   3.644   3.452  14.053  1.3744  1.5313 -0.5087
18770TIP3    H277726   3.781   3.420  13.996  1.4294 -0.0222  0.4375
18771TIP3   OH277727   6.737   2.975  14.456 -0.2168 -0.1524 -0.4147
18771TIP3    H177728   6.798   3.048  14.460  1.5854 -1.6261  0.3480
18771TIP3    H277729   6.691   2.977  14.540 -1.7523  1.3069 -1.2122
18772TIP3   OH277730   1.630   3.155  10.858 -0.1699 -0.5453 -0.3373
18772TIP3    H177731   1.620   3.067  10.893 -1.7426 -0.9336 -1.6701
18772TIP3    H277732   1.688   3.145  10.783 -0.6687 -0.5029 -0.7268
18773TIP3   OH277733   1.937   1.280  14.233 -0.7414 -0.2280 -0.1529
18773TIP3    H177734   1.858   1.227  14.230 -0.1281 -1.1398 -0.9314
18773TIP3    H277735   1.937   1.328  14.150  0.5727 -1.8602 -1.1588
18774TIP3   OH277736   5.081   4.617  12.257 -0.9015 -0.8165  0.0565
18774TIP3    H177737   5.135   4.598  12.180  0.4098 -0.1849  0.7938
18774TIP3    H277738   5.085   4.712  12.266  0.4089 -1.0139  1.9142
18775TIP3   OH277739   4.948   5.774  16.319  0.1478  1.0333 -0.0892
18775TIP3    H177740   4.868   5.826  16.308  0.2694  1.6115  1.4515
18775TIP3    H277741   4.932   5.721  16.397  0.6932 -0.0021 -0.6574
18776TIP3   OH277742   2.933   0.014  15.375 -0.2601 -0.0727  0.3038
18776TIP3    H177743   2.910   0.090  15.428 -1.4712  0.2394 -0.6217
18776TIP3    H277744   2.923  -0.060  15.435  1.2165  0.4794  1.2980
18777TIP3   OH277745   5.732   4.589   6.328 -0.0628 -0.3166  0.2961
18777TIP3    H177746   5.694   4.566   6.243 -0.3467 -0.3460  0.4304
18777TIP3    H277747   5.767   4.507   6.363  0.7776 -0.1653 -0.1464
18778TIP3   OH277748   2.948   2.655   6.290 -0.6189 -0.4854 -0.4864
18778TIP3    H177749   2.885   2.698   6.348 -0.2777  0.1180 -0.5527
18778TIP3    H277750   2.925   2.686   6.203  0.7914  1.0785 -0.3495
18779TIP3   OH277751   2.661   4.610  11.198  0.1132  0.3732 -0.2011
18779TIP3    H177752   2.671   4.621  11.293  1.2060 -0.0850 -0.2524
18779TIP3    H277753   2.589   4.669  11.175 -2.1177 -1.5167  1.3420
18780TIP3   OH277754   5.898   1.428   4.476 -0.0578  0.6944  0.5018
18780TIP3    H177755   5.901   1.356   4.413 -0.6293  1.0281  0.0853
18780TIP3    H277756   5.973   1.482   4.454  2.0603 -1.1622  2.5572
18781TIP3   OH277757   4.032   4.018   2.040  0.2921  0.1229  0.3408
18781TIP3    H177758   4.071   4.087   1.986  2.0208 -0.3662  0.8937
18781TIP3    H277759   4.014   4.060   2.124  0.7271  0.0748  0.4611
18782TIP3   OH277760   0.708   5.209   6.163 -0.0795 -0.0201  0.4652
18782TIP3    H177761   0.758   5.196   6.082 -0.9355 -0.5771  0.0039
18782TIP3    H277762   0.726   5.300   6.188  2.2100 -0.5714  1.0804
18783TIP3   OH277763   0.189   4.659   2.224  0.3069  0.4179 -0.3209
18783TIP3    H177764   0.281   4.634   2.222  0.3658  0.6883 -1.0778
18783TIP3    H277765   0.142   4.575   2.232  0.6338  0.3250  0.7511
18784TIP3   OH277766   3.712   6.031   4.631  0.2907 -0.0770 -0.2558
18784TIP3    H177767   3.653   5.960   4.657 -0.2729  0.3562 -0.3235
18784TIP3    H277768   3.665   6.111   4.656  0.6748  0.2865 -0.6851
18785TIP3   OH277769   4.030   2.086   5.958  0.0146 -0.5123  0.2632
18785TIP3    H177770   4.030   2.173   5.997 -0.8601 -0.0230 -0.7859
18785TIP3    H277771   3.947   2.047   5.987  1.1838 -1.7267  2.2183
18786TIP3   OH277772   5.504   1.858   6.115  0.0503  0.0040 -0.4585
18786TIP3    H177773   5.434   1.793   6.128  2.0753 -2.0441  1.0742
18786TIP3    H277774   5.481   1.930   6.174 -0.7139 -0.7108  0.1449
18787TIP3   OH277775   4.269   2.336  16.900  0.4077 -0.0455  0.1958
18787TIP3    H177776   4.303   2.365  16.815 -0.4174 -0.4493 -0.2860
18787TIP3    H277777   4.281   2.241  16.899  1.4802  0.0637  1.0316
18788TIP3   OH277778   3.774   4.374   2.264 -0.3448  0.0589  0.3155
18788TIP3    H177779   3.772   4.455   2.213 -0.1566 -0.1938 -0.0913
18788TIP3    H277780   3.725   4.396   2.344 -0.2294  0.5964  0.2458
18789TIP3   OH277781   4.546   1.680  14.212 -0.6799  0.9351  0.5481
18789TIP3    H177782   4.549   1.755  14.152 -1.7823  0.4882 -0.0895
18789TIP3    H277783   4.587   1.609  14.162 -0.2817  0.9278  0.8818
18790TIP3   OH277784   1.555   6.109  10.421 -1.0143  0.0369  0.1767
18790TIP3    H177785   1.462   6.095  10.400 -0.5706 -0.4789 -1.5235
18790TIP3    H277786   1.570   6.053  10.497 -1.7022 -1.1485 -0.5321
18791TIP3   OH277787   6.525   2.280  12.181  0.2249 -0.3240  0.2301
18791TIP3    H177788   6.511   2.373  12.200 -0.5258 -0.4210  0.1699
18791TIP3    H277789   6.592   2.253  12.244  0.4248  0.2486  0.2719
18792TIP3   OH277790   6.621   6.288  14.195  0.1945 -0.0967 -0.1686
18792TIP3    H177791   6.635   6.213  14.253 -2.2641 -1.5310 -1.2299
18792TIP3    H277792   6.665   6.263  14.113  0.6855  0.3356 -0.0391
18793TIP3   OH277793   3.639   2.995  16.405  0.1118  0.3060 -0.1698
18793TIP3    H177794   3.545   2.976  16.400 -0.0904  1.2832 -0.3350
18793TIP3    H277795   3.646   3.087  16.380  0.6828  1.3742  3.3363
18794TIP3   OH277796   6.677   4.814   4.310 -0.1098  0.3912 -0.4082
18794TIP3    H177797   6.603   4.771   4.267  0.1549 -2.5999  1.7625
18794TIP3    H277798   6.752   4.792   4.255 -0.5297  1.9124 -1.6528
18795TIP3   OH277799   3.810   4.583  14.999  0.4952 -0.1083 -0.1208
18795TIP3    H177800   3.818   4.567  14.905  1.8621 -1.5234  0.2085
18795TIP3    H277801   3.809   4.496  15.038 -0.7724  0.4375  1.1546
18796TIP3   OH277802   5.799   1.933   4.790  0.0511 -0.2910  0.0298
18796TIP3    H177803   5.875   1.881   4.765 -0.5064 -0.5908 -1.0982
18796TIP3    H277804   5.770   1.895   4.873  0.8610 -0.4607  0.2420
18797TIP3   OH277805   1.173   0.404   3.132  0.0248 -0.3325 -0.2975
18797TIP3    H177806   1.264   0.397   3.103 -0.3699  0.9568 -2.0254
18797TIP3    H277807   1.178   0.439   3.220  1.2348 -2.2129  0.4555
18798TIP3   OH277808   2.061   3.908  14.203  0.5432 -0.7443 -0.0115
18798TIP3    H177809   2.068   3.977  14.269  0.0476 -0.5788 -0.1258
18798TIP3    H277810   2.041   3.829  14.253 -2.3759 -0.1640 -0.1288
18799TIP3   OH277811   4.941   6.534   0.860  0.2123  0.3273 -0.2799
18799TIP3    H177812   4.950   6.605   0.924 -1.7804 -0.7255  1.2746
18799TIP3    H277813   5.003   6.467   0.888  1.2111  0.9133 -1.0282
18800TIP3   OH277814   1.340   6.585  11.860 -0.6362 -0.0850  0.3827
18800TIP3    H177815   1.314   6.618  11.773 -0.7336 -0.1966  0.3684
18800TIP3    H277816   1.257   6.566  11.903 -0.5709 -1.4143 -0.0343
18801TIP3   OH277817   0.109   5.205   3.265  0.3875  0.1329 -0.4649
18801TIP3    H177818   0.042   5.266   3.234 -0.2769  0.4458  1.4806
18801TIP3    H277819   0.167   5.193   3.190 -0.4236  1.8385 -1.4104
18802TIP3   OH277820   4.847   2.685  11.264  0.0766  0.1455  0.2840
18802TIP3    H177821   4.810   2.741  11.196  1.1559 -0.3425 -0.7520
18802TIP3    H277822   4.929   2.728  11.288  0.3681 -0.3997  0.2798
18803TIP3   OH277823   1.573   1.169   0.082  0.2570 -0.1144 -0.0430
18803TIP3    H177824   1.625   1.236   0.037 -1.0165  0.2836 -0.9821
18803TIP3    H277825   1.544   1.212   0.163 -2.4739  1.3970 -1.6850
18804TIP3   OH277826   2.453   2.896  15.408  0.6255  0.1865 -0.0834
18804TIP3    H177827   2.388   2.913  15.339  1.3341 -1.9015 -1.3541
18804TIP3    H277828   2.534   2.934  15.374  0.7820 -0.0650  0.0046
18805TIP3   OH277829   2.597   4.955   1.400 -0.3969  0.2901  0.5518
18805TIP3    H177830   2.544   5.008   1.340 -1.1281  0.9005  1.7200
18805TIP3    H277831   2.680   5.003   1.406  0.3769 -0.7071 -1.3352
18806TIP3   OH277832   3.184   5.071  10.169  0.7850  0.8305 -0.1670
18806TIP3    H177833   3.105   5.124  10.182  0.2897  0.1466 -0.3265
18806TIP3    H277834   3.254   5.122  10.211  0.3873  1.7648 -0.6022
18807TIP3   OH277835   4.859   6.274   2.509 -0.2274 -0.1273  0.6696
18807TIP3    H177836   4.936   6.328   2.523  0.5906 -0.7360 -1.1388
18807TIP3    H277837   4.787   6.323   2.549  0.7472  1.4802  0.5344
18808TIP3   OH277838   2.210   3.546   1.296  0.0669 -0.3067 -0.0435
18808TIP3    H177839   2.214   3.547   1.201 -1.4902  0.4106 -0.1181
18808TIP3    H277840   2.277   3.481   1.322  1.9276  0.9190 -1.5034
18809TIP3   OH277841   4.171   4.588  13.643  0.2975  0.4419 -0.4628
18809TIP3    H177842   4.179   4.645  13.719 -0.2456  1.4030 -1.1163
18809TIP3    H277843   4.083   4.552  13.648  0.0537  0.9620 -0.9457
18810TIP3   OH277844   4.861   0.567  14.489  0.0434  0.0213 -0.1126
18810TIP3    H177845   4.794   0.500  14.475  0.4742 -0.2750 -0.8001
18810TIP3    H277846   4.820   0.649  14.463 -1.1098  0.3417  2.4058
18811TIP3   OH277847   2.202   1.453   1.581 -0.1840 -0.4265  0.0264
18811TIP3    H177848   2.122   1.502   1.598  0.3318  0.3675  0.2125
18811TIP3    H277849   2.272   1.510   1.611  0.5995 -0.2152 -2.0484
18812TIP3   OH277850   3.145   6.420   3.817 -0.4078  0.1371 -0.1616
18812TIP3    H177851   3.110   6.498   3.774 -1.8056 -0.7295 -0.6678
18812TIP3    H277852   3.121   6.430   3.909 -1.3125 -0.0656 -0.3683
18813TIP3   OH277853   6.714   3.404  14.513 -0.1048 -0.4365 -0.6131
18813TIP3    H177854   6.652   3.477  14.522  0.7960  0.4171 -1.0909
18813TIP3    H277855   6.725   3.394  14.419  1.2525  0.1234 -0.5346
18814TIP3   OH277856   3.431   3.988   4.383  0.4603  0.3565  0.3959
18814TIP3    H177857   3.517   4.027   4.402  1.3679 -0.0680 -2.2874
18814TIP3    H277858   3.442   3.895   4.403  0.7838  0.2360 -0.3042
18815TIP3   OH277859   0.182   2.460   2.211  0.2759  0.1581 -0.4819
18815TIP3    H177860   0.123   2.417   2.273  0.1826 -1.1540 -1.4536
18815TIP3    H277861   0.267   2.459   2.255  0.0516 -0.0124 -0.0437
18816TIP3   OH277862   2.375   5.815   1.383  0.4508 -0.9902  0.0136
18816TIP3    H177863   2.453   5.836   1.434  1.0196 -0.6223 -0.9720
18816TIP3    H277864   2.316   5.889   1.398  1.6159  0.4067 -1.7822
18817TIP3   OH277865   2.329   3.167  14.147  0.4986  0.2046 -0.5483
18817TIP3    H177866   2.410   3.116  14.139  0.9042  1.0427 -2.1970
18817TIP3    H277867   2.346   3.228  14.218 -0.1713 -2.1834  1.8271
18818TIP3   OH277868   2.154   2.213   5.458 -0.0183  0.1939  0.0236
18818TIP3    H177869   2.074   2.258   5.485 -0.1585  0.6137 -1.0257
18818TIP3    H277870   2.140   2.195   5.365  0.4067 -1.2522  0.2260
18819TIP3   OH277871   5.001   3.195   0.648  0.6437  0.7006 -0.3525
18819TIP3    H177872   5.092   3.200   0.618 -0.0649  1.6627 -2.5852
18819TIP3    H277873   4.960   3.131   0.590 -0.8450  2.7995 -1.7956
18820TIP3   OH277874   5.083   1.654   0.097  0.0042 -0.4487 -0.2213
18820TIP3    H177875   5.144   1.720   0.129 -1.6479  0.7701  0.5706
18820TIP3    H277876   5.131   1.608   0.028  1.6380  0.7265  0.0741
18821TIP3   OH277877   2.853   6.235   4.727 -0.2735  0.0114 -0.1044
18821TIP3    H177878   2.841   6.231   4.822  2.6707 -0.2987  0.3336
18821TIP3    H277879   2.893   6.151   4.704  0.9267  0.8658 -1.2987
18822TIP3   OH277880   3.741   4.486   2.549  0.2605 -0.5364  0.9545
18822TIP3    H177881   3.651   4.454   2.555 -0.1725  0.4055 -0.1084
18822TIP3    H277882   3.766   4.505   2.640 -1.5865  1.7173  1.0699
18823TIP3   OH277883   1.467   0.008   0.540  0.4244  0.3456  0.4179
18823TIP3    H177884   1.484   0.098   0.510 -0.4170  0.6489  0.8197
18823TIP3    H277885   1.464   0.014   0.635  0.1252 -0.0694  0.4381
18824TIP3   OH277886   3.661   1.483  10.835  0.0818 -0.3832 -0.8832
18824TIP3    H177887   3.647   1.407  10.891 -0.5139 -0.6217 -1.3484
18824TIP3    H277888   3.581   1.535  10.844  0.3290  0.0033 -0.8640
18825TIP3   OH277889   2.929   2.258   3.637 -0.4247 -0.8490  0.1570
18825TIP3    H177890   2.850   2.285   3.589 -0.2824  0.2612  0.5167
18825TIP3    H277891   2.909   2.276   3.729  0.0315 -1.1153  0.3125
18826TIP3   OH277892   0.125   2.249   3.561  0.2294  0.3116  0.3430
18826TIP3    H177893   0.053   2.258   3.499  0.6683  1.0946 -0.0567
18826TIP3    H277894   0.082   2.231   3.645 -0.5264  2.3202  0.4377
18827TIP3   OH277895   4.158   2.898  14.582 -0.4742 -0.5685 -0.0380
18827TIP3    H177896   4.091   2.964  14.562 -0.1573 -0.3589 -0.4228
18827TIP3    H277897   4.118   2.842  14.648 -0.1553  0.9793  1.5096
18828TIP3   OH277898   1.046   0.837   3.381  0.1581 -0.0131 -0.6705
18828TIP3    H177899   0.990   0.813   3.455  1.3816 -0.5411  0.1288
18828TIP3    H277900   1.007   0.794   3.305 -0.4248 -0.4864 -0.1139
18829TIP3   OH277901   3.405   5.540  13.188 -0.0800 -0.5675  0.6991
18829TIP3    H177902   3.371   5.565  13.103  3.0471  0.9253 -0.2852
18829TIP3    H277903   3.329   5.540  13.246 -2.1646 -0.7574 -1.8510
18830TIP3   OH277904   3.693   4.812   5.548 -0.2689  0.0766  0.5124
18830TIP3    H177905   3.655   4.822   5.461  0.1398  1.0062  0.4334
18830TIP3    H277906   3.756   4.883   5.555  0.3669 -0.5423  1.2205
18831TIP3   OH277907   4.701   1.923  15.142  0.1498 -0.1862  1.0298
18831TIP3    H177908   4.634   1.990  15.150 -0.4960 -0.9080  1.7692
18831TIP3    H277909   4.673   1.869  15.068 -0.3792 -0.8041  1.6721
18832TIP3   OH277910   3.049   2.226   6.123 -0.1175  0.5479  0.0740
18832TIP3    H177911   2.994   2.199   6.197 -0.7510 -0.6166 -0.7871
18832TIP3    H277912   2.988   2.270   6.064  0.5881  2.4560  0.6908
18833TIP3   OH277913   0.126   4.820   4.184 -0.1540  0.7172 -0.1915
18833TIP3    H177914   0.183   4.772   4.124 -2.5139 -0.7699 -1.4314
18833TIP3    H277915   0.146   4.783   4.270  1.3935  0.9283 -0.4435
18834TIP3   OH277916   0.410   1.820   1.714 -0.3162 -0.1008  0.3442
18834TIP3    H177917   0.367   1.735   1.700  1.8889 -1.5686  1.8605
18834TIP3    H277918   0.361   1.881   1.658 -2.2998 -2.2380 -0.4234
18835TIP3   OH277919   1.910   3.334  15.190 -0.0592 -0.2024 -0.7905
18835TIP3    H177920   1.917   3.289  15.106 -0.7699 -2.8191  0.4530
18835TIP3    H277921   1.985   3.303  15.240  1.5908  2.9430 -1.0342
18836TIP3   OH277922   5.507   1.850   0.720  0.3576 -0.7707  0.2038
18836TIP3    H177923   5.555   1.933   0.717  0.6158 -0.9309 -0.2287
18836TIP3    H277924   5.481   1.834   0.629 -0.4542 -0.7238  0.4211
18837TIP3   OH277925   0.566   4.731  16.153 -0.3455  0.0588 -0.0323
18837TIP3    H177926   0.486   4.784  16.152 -0.4780 -0.0124  2.0645
18837TIP3    H277927   0.538   4.647  16.116 -1.1373  0.2043  0.1987
18838TIP3   OH277928   2.332   1.234   4.533 -0.6823  0.2272 -0.4374
18838TIP3    H177929   2.288   1.236   4.448 -1.2628  0.8809 -0.1311
18838TIP3    H277930   2.423   1.256   4.514 -0.7512  0.0907 -0.9233
18839TIP3   OH277931   1.027   2.476  13.282 -0.0004  0.2790  0.2467
18839TIP3    H177932   0.978   2.397  13.260 -0.1262  0.2130  0.7704
18839TIP3    H277933   0.993   2.542  13.220 -0.2286  0.0489  0.1232
18840TIP3   OH277934   1.192   1.059  16.288 -0.3033  0.3741 -0.1269
18840TIP3    H177935   1.277   1.015  16.293  1.1871  2.9545 -0.7305
18840TIP3    H277936   1.159   1.036  16.201  0.6563  0.7316 -0.6132
18841TIP3   OH277937   6.443   0.876   6.412  0.4265 -0.0612 -0.0956
18841TIP3    H177938   6.462   0.929   6.490  1.2585 -1.5864  0.8014
18841TIP3    H277939   6.353   0.847   6.424  0.4820 -0.1176  0.1963
18842TIP3   OH277940   0.706   2.980   1.455  0.5617 -0.2395 -0.1775
18842TIP3    H177941   0.750   3.045   1.509  0.9083  0.6163 -1.4291
18842TIP3    H277942   0.613   3.001   1.463  0.7492  2.3832 -2.7707
18843TIP3   OH277943   1.462   0.259   6.302  0.4411  0.3109  0.2110
18843TIP3    H177944   1.449   0.186   6.362  0.8936 -1.2560 -1.5088
18843TIP3    H277945   1.553   0.284   6.314  0.5515 -0.0531  0.1488
18844TIP3   OH277946   1.613   4.933  16.213 -0.1081  0.1027  0.1540
18844TIP3    H177947   1.643   4.845  16.236 -0.0653  0.1812  0.4085
18844TIP3    H277948   1.602   4.932  16.118 -0.4032 -0.2690  0.1895
18845TIP3   OH277949   5.919   1.744   6.589 -0.3117 -0.3083 -0.5564
18845TIP3    H177950   5.880   1.832   6.597  0.7901  0.1006  0.6240
18845TIP3    H277951   5.946   1.738   6.498 -0.3700  0.5982 -0.6435
18846TIP3   OH277952   3.307   3.672   4.921 -0.0710 -0.2749  0.5320
18846TIP3    H177953   3.369   3.603   4.945 -0.6777 -0.8656  0.4293
18846TIP3    H277954   3.230   3.655   4.976  0.3429  1.2609  1.6748
18847TIP3   OH277955   0.238   1.600   2.048  0.2435 -0.5068 -0.5718
18847TIP3    H177956   0.149   1.567   2.041 -1.3932  3.2440 -0.0481
18847TIP3    H277957   0.247   1.626   2.139  1.3048  0.4625 -0.9209
18848TIP3   OH277958   4.617   3.152   1.394  0.7133  0.1046  0.3064
18848TIP3    H177959   4.602   3.143   1.488  0.1158  1.8844  0.4113
18848TIP3    H277960   4.666   3.073   1.370 -0.7519 -1.3374  1.7398
18849TIP3   OH277961   2.951   3.201   2.530 -0.1331 -0.1651  0.2394
18849TIP3    H177962   2.979   3.127   2.584  1.5549  1.0244  1.1000
18849TIP3    H277963   3.027   3.221   2.476 -0.2334  1.4673  0.6442
18850TIP3   OH277964   3.848   3.446   1.638 -0.3919  0.0199 -0.6818
18850TIP3    H177965   3.911   3.436   1.710  0.2712 -1.0166 -1.3849
18850TIP3    H277966   3.875   3.382   1.573 -0.9766  0.9557 -1.8831
18851TIP3   OH277967   2.109   0.112   5.526  0.1413  0.0038  0.2623
18851TIP3    H177968   2.092   0.049   5.457 -0.2613  0.2337  0.1456
18851TIP3    H277969   2.180   0.166   5.492  0.9297 -0.7827  0.6307
18852TIP3   OH277970   1.832   1.380   0.189 -0.5845 -0.3617 -0.1308
18852TIP3    H177971   1.774   1.432   0.133  0.3883  0.3188 -0.5383
18852TIP3    H277972   1.798   1.393   0.278  0.8547  2.8453  0.1048
18853TIP3   OH277973   3.352   2.248  12.054 -0.9024 -0.1584  0.3039
18853TIP3    H177974   3.320   2.274  11.967 -2.5924 -1.8567  0.3383
18853TIP3    H277975   3.355   2.152  12.050  1.1567 -0.2001  1.4411
18854TIP3   OH277976   1.639   6.424   4.517 -1.2805  0.3995  0.6800
18854TIP3    H177977   1.557   6.375   4.524 -1.7608  1.2697  1.1947
18854TIP3    H277978   1.617   6.513   4.543 -0.3089  0.7992  0.2010
18855TIP3   OH277979   0.914   1.285   1.801  0.3151 -0.1211 -0.2066
18855TIP3    H177980   0.891   1.371   1.836 -0.3182 -0.2443 -0.3098
18855TIP3    H277981   1.008   1.291   1.784  0.2996  0.5130 -0.1115
18856TIP3   OH277982   5.934   0.459  12.706  0.1775 -0.5117  0.6853
18856TIP3    H177983   5.946   0.405  12.629  1.9175 -1.0149  1.2581
18856TIP3    H277984   5.843   0.446  12.732  0.1427 -1.9236 -0.0957
18857TIP3   OH277985   3.979   2.331   3.565  0.1645 -0.5150  0.1823
18857TIP3    H177986   4.055   2.275   3.551  0.2124 -0.7619  1.3633
18857TIP3    H277987   3.909   2.272   3.594 -0.1115 -0.1203  0.3398
18858TIP3   OH277988   2.640   2.298  17.059 -0.3604 -0.5309  0.4687
18858TIP3    H177989   2.559   2.258  17.030 -2.0743  2.1337  1.2382
18858TIP3    H277990   2.666   2.355  16.986  0.7719 -1.1959  0.3129
18859TIP3   OH277991   5.266   6.025  15.281 -0.6183 -0.2889  0.7573
18859TIP3    H177992   5.212   6.079  15.224  1.9566  1.3496 -0.3107
18859TIP3    H277993   5.273   5.941  15.236 -1.1313 -0.0583  0.2381
18860TIP3   OH277994   5.775   1.882   2.185  0.1338  0.6419  0.0325
18860TIP3    H177995   5.723   1.802   2.174  1.6453 -0.3659 -0.0649
18860TIP3    H277996   5.806   1.879   2.275 -0.2233  1.3859  0.1826
18861TIP3   OH277997   0.277   1.053  12.819  0.1652 -0.3779  0.1938
18861TIP3    H177998   0.209   1.095  12.767 -0.1581 -1.5826 -0.3749
18861TIP3    H277999   0.351   1.043  12.759  0.1997 -0.7341  0.2961
18862TIP3   OH278000   4.359   3.387  15.415  0.2021 -0.3281 -0.1650
18862TIP3    H178001   4.415   3.332  15.470  0.3845 -1.4361 -1.4271
18862TIP3    H278002   4.420   3.438  15.362  0.0203  0.0310 -0.0313
18863TIP3   OH278003   4.991   6.624   5.248  0.0431  0.1559 -0.3540
18863TIP3    H178004   5.052   6.691   5.279  0.4664  0.3146 -1.4924
18863TIP3    H278005   4.905   6.656   5.276  0.4775 -0.2899  1.6507
18864TIP3   OH278006   1.741   1.825   1.469 -0.3655 -0.2013  0.1990
18864TIP3    H178007   1.654   1.824   1.430 -0.2868 -0.1234  0.0234
18864TIP3    H278008   1.753   1.915   1.500 -0.3787 -0.2321  0.2952
18865TIP3   OH278009   4.443   5.071   4.050 -0.3361 -0.4649  0.5892
18865TIP3    H178010   4.412   5.029   3.970 -1.9267 -1.3660  1.6163
18865TIP3    H278011   4.374   5.054   4.114  0.4614  1.0206  1.9183
18866TIP3   OH278012   1.000   2.557  15.921 -0.0792 -0.9680 -0.1389
18866TIP3    H178013   1.014   2.469  15.886  0.6564 -1.1405  0.5579
18866TIP3    H278014   1.009   2.547  16.016 -0.2450 -0.1884 -0.0320
18867TIP3   OH278015   6.417   5.698   5.013 -0.0638 -0.1715 -0.3687
18867TIP3    H178016   6.446   5.664   5.098 -0.8414  0.6578  0.2514
18867TIP3    H278017   6.482   5.765   4.991  0.6208 -0.9809 -0.8585
18868TIP3   OH278018   3.613   5.514  13.353 -0.0367 -0.0400  0.1562
18868TIP3    H178019   3.548   5.536  13.286 -1.0564  0.3776  1.2328
18868TIP3    H278020   3.630   5.421  13.341  0.8272  0.2983 -1.5216
18869TIP3   OH278021   0.275   4.988   3.788 -0.1807 -0.0228  0.1326
18869TIP3    H178022   0.208   4.959   3.727 -1.4007  3.0014 -0.1734
18869TIP3    H278023   0.228   5.043   3.851  1.6357  0.0967  1.4862
18870TIP3   OH278024   3.877   5.430  13.224  0.9236 -0.3322 -0.0370
18870TIP3    H178025   3.917   5.356  13.269 -1.5503  0.2271  3.5153
18870TIP3    H278026   3.808   5.391  13.170  0.7870 -0.7582  0.4352
18871TIP3   OH278027   2.646   4.909  11.619 -0.3788 -1.1630 -0.0511
18871TIP3    H178028   2.689   4.880  11.699  0.2574 -4.0762 -1.3316
18871TIP3    H278029   2.716   4.944  11.565 -0.5448 -0.7418 -0.0015
18872TIP3   OH278030   0.218   1.765  11.700  0.0705  0.3384 -0.3135
18872TIP3    H178031   0.168   1.841  11.730 -0.9278 -0.6481  0.5989
18872TIP3    H278032   0.290   1.802  11.650  1.9015  2.1573  3.3131
18873TIP3   OH278033   3.161   6.526   1.714  0.6765  0.6819  0.0949
18873TIP3    H178034   3.129   6.437   1.729  0.1028  0.6773 -1.0463
18873TIP3    H278035   3.222   6.518   1.641 -0.2228  1.3680 -0.7646
18874TIP3   OH278036   4.353   6.094   1.055  0.4108 -0.2814  0.8205
18874TIP3    H178037   4.445   6.099   1.032  0.4672  1.1225  1.2586
18874TIP3    H278038   4.343   6.156   1.127 -1.4074  1.7094 -1.0224
18875TIP3   OH278039   5.358   0.228   0.043  0.0092 -0.8905 -0.2592
18875TIP3    H178040   5.294   0.287   0.084  0.8354 -0.1916  0.0582
18875TIP3    H278041   5.371   0.159   0.108 -0.6862 -1.2374 -0.4763
18876TIP3   OH278042   3.582   3.247  14.273 -0.5440 -0.8074  0.0042
18876TIP3    H178043   3.647   3.280  14.211 -1.4250  2.0184  0.4524
18876TIP3    H278044   3.629   3.245  14.357 -0.2481 -1.6129 -0.1670
18877TIP3   OH278045   0.761   3.508   5.075  0.3368  0.1431  0.0659
18877TIP3    H178046   0.798   3.586   5.035  0.6391 -0.8112 -1.6260
18877TIP3    H278047   0.666   3.522   5.072  0.4191  0.8523  0.6743
18878TIP3   OH278048   4.922   3.154  14.425  0.1306 -0.2686 -0.1466
18878TIP3    H178049   4.833   3.129  14.398 -0.2012  1.2529 -0.5865
18878TIP3    H278050   4.955   3.078  14.473 -1.2402 -1.0406 -0.3651
18879TIP3   OH278051   5.958   0.055   5.428  0.4056  0.6280 -0.2956
18879TIP3    H178052   5.932   0.029   5.516 -0.1765  1.5980 -0.1692
18879TIP3    H278053   6.053   0.045   5.428  0.4523  0.9568  0.5689
18880TIP3   OH278054   5.403   1.470   4.595  0.1236 -0.0250  0.1928
18880TIP3    H178055   5.470   1.475   4.663 -0.6433  0.5398  0.9157
18880TIP3    H278056   5.409   1.555   4.550 -1.4643  0.8707  1.5787
18881TIP3   OH278057   6.083   0.915  15.997 -0.4635  0.0012  0.0732
18881TIP3    H178058   6.004   0.963  16.021  0.4375  1.4788  0.1672
18881TIP3    H278059   6.101   0.859  16.073 -0.4011  1.0087  0.8184
18882TIP3   OH278060   4.214   2.246  12.759 -0.5207  0.1655  0.5501
18882TIP3    H178061   4.248   2.315  12.700  0.4963  1.3262  2.4008
18882TIP3    H278062   4.126   2.277  12.782 -0.3884  0.4187  0.7220
18883TIP3   OH278063   0.272   6.038  11.639  0.2545 -0.1645 -0.0393
18883TIP3    H178064   0.199   6.021  11.699 -0.5460 -0.7706 -1.1596
18883TIP3    H278065   0.302   6.126  11.661 -2.8232  1.3894 -1.5974
18884TIP3   OH278066   4.102   0.858   5.583 -0.2185  0.1557 -0.1073
18884TIP3    H178067   4.018   0.897   5.605 -0.7732 -1.1644  0.2037
18884TIP3    H278068   4.150   0.928   5.537 -0.9024  1.4004  0.9882
18885TIP3   OH278069   6.410   4.189   2.877 -0.6105 -0.1250  0.1991
18885TIP3    H178070   6.503   4.190   2.896 -0.4452  1.3371 -0.5037
18885TIP3    H278071   6.372   4.130   2.941  0.7085 -0.1778  0.9503
18886TIP3   OH278072   4.603   6.076  11.177  0.3513  0.2640 -0.1667
18886TIP3    H178073   4.532   6.023  11.141 -0.3126  1.1021 -0.1282
18886TIP3    H278074   4.632   6.029  11.254 -0.5424  0.1864  0.1320
18887TIP3   OH278075   4.912   3.183  13.276 -0.4907 -0.4851  0.1539
18887TIP3    H178076   4.825   3.172  13.238 -0.7244  1.8682 -0.1627
18887TIP3    H278077   4.972   3.147  13.212 -1.1334 -0.3165 -0.5514
18888TIP3   OH278078   2.836   2.021   2.883 -0.3722  0.3033  0.7243
18888TIP3    H178079   2.872   2.037   2.970 -1.8555  2.4788  1.0044
18888TIP3    H278080   2.748   2.059   2.886 -0.5184  0.2843 -1.6813
18889TIP3   OH278081   2.026   2.995  12.001 -0.0740  0.9740  0.2554
18889TIP3    H178082   2.042   3.085  12.030 -1.7035  1.0604  0.9900
18889TIP3    H278083   2.063   2.941  12.071 -1.8724  1.1569  1.4280
18890TIP3   OH278084   1.011   6.010   1.467  0.0078 -0.0913  0.6686
18890TIP3    H178085   0.941   6.073   1.451  1.0322  0.8035 -0.5675
18890TIP3    H278086   1.002   5.986   1.559 -3.4328 -1.9562  0.0059
18891TIP3   OH278087   0.915   1.608  16.151  0.3084  0.1127 -0.1572
18891TIP3    H178088   0.950   1.599  16.239  1.1131  0.1200 -0.4670
18891TIP3    H278089   0.963   1.682  16.113 -0.0025  0.0874 -0.6119
18892TIP3   OH278090   3.555   4.108   2.774 -0.2754  1.0038  0.0951
18892TIP3    H178091   3.650   4.103   2.764 -0.3902  0.0218 -0.7110
18892TIP3    H278092   3.538   4.069   2.860 -0.0575 -0.3624 -0.4574
18893TIP3   OH278093   0.691   6.712   3.850  0.1352 -0.0262 -0.1738
18893TIP3    H178094   0.618   6.719   3.789 -1.2536  0.4103  1.4631
18893TIP3    H278095   0.681   6.625   3.889  1.6626 -0.7561 -1.2821
18894TIP3   OH278096   1.901   1.927  15.128 -0.7921 -0.4839 -0.1497
18894TIP3    H178097   1.813   1.961  15.110 -1.2287 -1.3279  0.3060
18894TIP3    H278098   1.922   1.958  15.216  0.7942  2.5310 -1.4474
18895TIP3   OH278099   3.905   4.096  15.124 -0.1810  0.0424  0.4264
18895TIP3    H178100   3.921   4.189  15.107 -0.0822 -0.1847 -0.8319
18895TIP3    H278101   3.969   4.072  15.191  1.1919  0.4082 -0.7152
18896TIP3   OH278102   3.640   3.479  11.837  0.0867 -0.3412 -0.5173
18896TIP3    H178103   3.729   3.502  11.862 -0.0932 -1.5919  1.4482
18896TIP3    H278104   3.629   3.389  11.867 -1.4727 -0.6138 -1.7852
18897TIP3   OH278105   0.935   3.677  13.837  0.0220  0.4342  0.0612
18897TIP3    H178106   1.010   3.645  13.888  1.3118  2.8051 -0.1916
18897TIP3    H278107   0.870   3.701  13.903  0.0036 -0.3832  0.3509
18898TIP3   OH278108   1.577   2.645   3.013 -0.1451 -0.4508 -0.0623
18898TIP3    H178109   1.620   2.652   3.098  0.8730 -0.5076 -0.5490
18898TIP3    H278110   1.631   2.583   2.964 -1.1775 -1.0344 -0.4830
18899TIP3   OH278111   4.388   1.283  13.103  0.5373  0.1256  0.2055
18899TIP3    H178112   4.310   1.338  13.099 -0.6201 -1.5297 -1.4337
18899TIP3    H278113   4.395   1.244  13.016  1.7751 -1.7067  1.0438
18900TIP3   OH278114   3.417   0.882  12.149 -0.1192  0.7528 -0.3305
18900TIP3    H178115   3.504   0.874  12.188 -0.9446  0.7714  1.6769
18900TIP3    H278116   3.432   0.882  12.055  1.8493 -1.5319 -0.1128
18901TIP3   OH278117   1.712   2.013   4.948  0.0459  0.0523 -0.0990
18901TIP3    H178118   1.637   2.033   4.891  0.7903  1.4260 -0.6467
18901TIP3    H278119   1.721   1.918   4.943 -0.9150 -0.0117 -0.9739
18902TIP3   OH278120   0.095   2.844   0.776  0.1208 -0.2785  0.2052
18902TIP3    H178121   0.054   2.785   0.712 -0.8203 -1.8804  2.1572
18902TIP3    H278122   0.022   2.885   0.821  0.7724  2.0226 -0.6864
18903TIP3   OH278123   5.965   1.782  16.768 -0.6654  0.1005 -0.3557
18903TIP3    H178124   6.044   1.828  16.795 -0.1325  0.5909 -2.5794
18903TIP3    H278125   5.982   1.690  16.790  0.0112  0.3657  0.2714
18904TIP3   OH278126   4.350   4.199   3.869  0.0610 -0.6232  0.6211
18904TIP3    H178127   4.263   4.190   3.908 -1.4360  2.5615 -1.4955
18904TIP3    H278128   4.401   4.247   3.935 -1.2908  1.4916  0.2226
18905TIP3   OH278129   3.500   3.677   0.663  0.3698  0.1986 -0.2581
18905TIP3    H178130   3.577   3.691   0.607 -0.8579  2.1178 -1.5988
18905TIP3    H278131   3.432   3.731   0.623 -1.5715 -1.1091  1.1343
18906TIP3   OH278132   3.179   5.084  16.067  0.2169 -0.1466 -0.5892
18906TIP3    H178133   3.233   5.011  16.098  0.1338  0.0283 -0.0347
18906TIP3    H278134   3.140   5.051  15.986  0.7588 -0.4542 -0.7318
18907TIP3   OH278135   4.826   2.920  12.888 -0.1017  0.0305  0.2322
18907TIP3    H178136   4.869   2.835  12.879 -0.0105  0.1361 -0.3398
18907TIP3    H278137   4.824   2.957  12.799  0.4955  0.9353  0.5746
18908TIP3   OH278138   1.200   5.016  13.063  0.0022 -0.6093  0.5483
18908TIP3    H178139   1.193   4.941  13.122 -0.5021 -2.6030 -1.8727
18908TIP3    H278140   1.242   4.981  12.984 -1.2009  1.3875 -1.0927
18909TIP3   OH278141   2.645   5.481   4.993 -0.1631 -0.4663  0.1626
18909TIP3    H178142   2.588   5.467   5.068  0.5940  1.0684  1.0753
18909TIP3    H278143   2.623   5.568   4.962  1.5231  0.0958  0.4303
18910TIP3   OH278144   6.211   1.756  16.186  0.3566  0.3795 -0.4726
18910TIP3    H178145   6.181   1.743  16.276  0.2445 -0.2607 -0.5951
18910TIP3    H278146   6.131   1.766  16.135  0.3888 -0.0461 -0.6131
18911TIP3   OH278147   3.137   3.834  13.742 -0.3465 -0.1879 -0.5186
18911TIP3    H178148   3.206   3.786  13.788  0.5740  1.2176 -0.3674
18911TIP3    H278149   3.172   3.846  13.654  0.0189  1.2960 -0.1941
18912TIP3   OH278150   1.602   5.077   3.073 -0.1362  0.3853  0.0028
18912TIP3    H178151   1.576   5.126   2.996  2.5190 -0.1612 -1.3343
18912TIP3    H278152   1.620   4.989   3.041  1.4780  0.2622  1.1254
18913TIP3   OH278153   0.852   6.424  16.691 -0.1570 -0.6405 -0.1846
18913TIP3    H178154   0.765   6.431  16.728 -1.4611  1.4217 -3.2016
18913TIP3    H278155   0.853   6.339  16.647 -0.1140 -1.2383  0.9414
18914TIP3   OH278156   3.089   3.422   4.803 -0.2734 -0.4632  0.0427
18914TIP3    H178157   3.092   3.343   4.857 -0.9237  0.1898  1.0673
18914TIP3    H278158   3.035   3.397   4.728 -1.2463 -0.7347  0.8142
18915TIP3   OH278159   4.273   6.651  14.630  0.5600 -0.1177  0.0494
18915TIP3    H178160   4.198   6.674  14.575 -0.1739 -1.5716  0.4085
18915TIP3    H278161   4.286   6.727  14.687 -2.2653 -0.7522  1.7229
18916TIP3   OH278162   4.511   2.512  11.080 -0.3742 -0.4611 -0.2999
18916TIP3    H178163   4.432   2.529  11.131 -1.7286  0.5891 -2.6186
18916TIP3    H278164   4.495   2.427  11.038 -0.0569 -0.4598 -0.4276
18917TIP3   OH278165   3.912   2.482   0.156 -0.4406  0.3551 -0.3166
18917TIP3    H178166   3.943   2.444   0.238  1.1415  0.2697 -0.9222
18917TIP3    H278167   3.954   2.429   0.088  0.7936  2.3441 -1.1767
18918TIP3   OH278168   3.550   3.034  14.657 -0.4116  0.1699  0.0371
18918TIP3    H178169   3.573   2.995  14.573 -5.1202 -0.9365 -1.0243
18918TIP3    H278170   3.519   2.960  14.710 -1.9067  1.4520  1.0270
18919TIP3   OH278171   2.049   0.771   1.702 -0.0019  0.6340  0.0728
18919TIP3    H178172   2.040   0.689   1.749 -1.8780  1.6195  1.5938
18919TIP3    H278173   2.099   0.749   1.623  0.2029 -1.7721  0.8099
18920TIP3   OH278174   6.075   1.694   0.463 -0.0375  0.8941 -0.0512
18920TIP3    H178175   6.086   1.722   0.554  0.7157  0.0351  0.1437
18920TIP3    H278176   6.005   1.630   0.466 -0.6019  1.4953 -0.2233
18921TIP3   OH278177   2.901   4.633   5.222  0.1032 -0.0783 -0.6308
18921TIP3    H178178   2.864   4.632   5.134 -0.5012  0.1337 -0.3811
18921TIP3    H278179   2.995   4.626   5.208  0.2430  2.4185 -1.4038
18922TIP3   OH278180   5.717   1.217   2.159  0.1295 -0.8747 -0.4062
18922TIP3    H178181   5.806   1.241   2.135 -0.3054  0.5823 -0.6744
18922TIP3    H278182   5.698   1.139   2.106  1.3009 -1.3319 -0.1782
18923TIP3   OH278183   0.221   2.793  13.093 -0.1091  0.1124 -0.0373
18923TIP3    H178184   0.177   2.863  13.141  1.2264  0.9091  0.0767
18923TIP3    H278185   0.185   2.712  13.130 -1.7574  0.7112 -0.2545
18924TIP3   OH278186   3.177   3.657   4.514 -0.1377 -0.1618 -0.4429
18924TIP3    H178187   3.179   3.683   4.422  1.7522  0.5055 -0.2589
18924TIP3    H278188   3.100   3.601   4.522  1.2798 -2.7875 -3.1591
18925TIP3   OH278189   4.002   2.723   0.891  0.2082  0.1184  0.0122
18925TIP3    H178190   4.077   2.686   0.844  1.6737  0.9054  1.6260
18925TIP3    H278191   4.016   2.699   0.982 -3.0639 -2.1873  0.0813
18926TIP3   OH278192   4.991   1.171   3.852 -0.2173  0.1116 -0.3189
18926TIP3    H178193   5.064   1.155   3.793 -0.8848 -4.0810 -0.2783
18926TIP3    H278194   5.026   1.235   3.915  2.7852 -0.3631 -1.3123
18927TIP3   OH278195   1.307   1.242   4.537 -0.1426 -0.2250  0.3966
18927TIP3    H178196   1.290   1.328   4.498 -0.5002 -0.1526  0.7162
18927TIP3    H278197   1.233   1.227   4.595  0.2201 -0.4869  0.7903
18928TIP3   OH278198   1.044   2.656  15.514  0.0574 -0.3678 -0.4483
18928TIP3    H178199   1.121   2.599  15.517  0.8492  0.6954  0.9915
18928TIP3    H278200   1.065   2.727  15.575 -1.5296  0.6519 -1.0300
18929TIP3   OH278201   1.400   3.799  14.422 -0.1392  0.4675 -0.0042
18929TIP3    H178202   1.421   3.892  14.423  0.4622  0.3372  0.1226
18929TIP3    H278203   1.449   3.763  14.496  1.4135 -0.3090 -1.3359
18930TIP3   OH278204   3.629   2.503  12.694  0.2530 -0.3209 -0.3939
18930TIP3    H178205   3.540   2.472  12.714 -0.6594  0.8421 -2.3609
18930TIP3    H278206   3.653   2.557  12.770 -1.2391  0.3287 -0.3468
18931TIP3   OH278207   3.978   2.332   4.695 -0.1954  0.0916 -0.2884
18931TIP3    H178208   3.948   2.400   4.756 -0.8325 -0.7202  0.3172
18931TIP3    H278209   4.041   2.281   4.746 -1.3239 -1.0844 -0.0096
18932TIP3   OH278210   3.401   1.003  16.251  0.2608 -0.1195  0.6434
18932TIP3    H178211   3.369   0.932  16.196  0.9314 -1.5966  2.0529
18932TIP3    H278212   3.478   1.037  16.205 -0.4466  0.1570 -0.3590
18933TIP3   OH278213   0.114   2.480  12.238 -0.3376 -0.6686 -0.3240
18933TIP3    H178214   0.206   2.470  12.262 -0.6649 -0.6736  1.0011
18933TIP3    H278215   0.113   2.552  12.175  0.5660 -0.6405 -0.3154
18934TIP3   OH278216   6.731   3.167  11.078  0.5893  0.1365  0.4335
18934TIP3    H178217   6.809   3.211  11.112  1.8890 -2.2290  0.7129
18934TIP3    H278218   6.692   3.230  11.017  3.7499  0.7663 -1.1194
18935TIP3   OH278219   0.159   6.006   2.677 -1.0405 -1.0944 -0.3703
18935TIP3    H178220   0.087   5.950   2.649 -0.5838 -1.9010  0.0023
18935TIP3    H278221   0.229   5.944   2.700  0.1112 -0.3055 -1.6412
18936TIP3   OH278222   5.222   3.201  14.422  0.1463  0.0617 -0.3877
18936TIP3    H178223   5.133   3.228  14.444 -0.0573  0.3785 -1.5163
18936TIP3    H278224   5.227   3.212  14.327  1.0889 -0.8595 -0.4583
18937TIP3   OH278225   1.238   4.574  13.397 -0.2625  0.2654  0.1742
18937TIP3    H178226   1.289   4.646  13.433 -0.1821  0.1461  0.3007
18937TIP3    H278227   1.265   4.497  13.447  1.6169 -0.3883 -1.7116
18938TIP3   OH278228   6.577   4.641   4.576 -0.6532  0.1162 -0.2416
18938TIP3    H178229   6.554   4.643   4.669  0.0379  0.4977 -0.0680
18938TIP3    H278230   6.653   4.699   4.569  0.1496 -0.9685 -0.8033
18939TIP3   OH278231   6.389   2.244  13.400  0.1406 -0.0412  0.9143
18939TIP3    H178232   6.349   2.157  13.407 -0.4218  0.3028  2.4135
18939TIP3    H278233   6.483   2.229  13.410  0.2830 -0.6932 -1.0662
18940TIP3   OH278234   6.012   3.966  12.211  0.0791 -0.2403  0.3810
18940TIP3    H178235   5.961   4.013  12.145  0.3846 -1.5720 -0.8544
18940TIP3    H278236   6.067   4.034  12.252  0.5149  0.5102 -1.3380
18941TIP3   OH278237   3.201   0.545   4.319 -0.4095  0.5293  0.3403
18941TIP3    H178238   3.137   0.478   4.293 -0.7373  0.9827 -0.0397
18941TIP3    H278239   3.152   0.603   4.377  0.0448  0.0953  1.1783
18942TIP3   OH278240   0.881   1.185   3.645 -0.7589  1.0855 -0.1618
18942TIP3    H178241   0.942   1.258   3.650  0.0432  0.3845  0.5843
18942TIP3    H278242   0.820   1.199   3.718 -0.0469  0.5418  0.5589
18943TIP3   OH278243   6.548   4.004  12.943  0.3435  0.2756 -0.0821
18943TIP3    H178244   6.579   4.046  12.863 -0.4659  1.1489  0.0428
18943TIP3    H278245   6.592   4.051  13.014 -1.0841  1.4357  0.0904
18944TIP3   OH278246   3.050   3.733  15.518 -0.0655  0.0992  0.2175
18944TIP3    H178247   3.057   3.646  15.556  1.0128  0.1217  0.1049
18944TIP3    H278248   2.957   3.745  15.502 -0.3534 -0.5798  1.2821
18945TIP3   OH278249   1.721   3.000   5.846  0.0466 -0.2460 -0.9297
18945TIP3    H178250   1.716   2.908   5.823  0.7588 -0.4392 -0.3433
18945TIP3    H278251   1.814   3.021   5.842  0.3197 -0.4354  2.1671
18946TIP3   OH278252   4.345   0.002   1.674 -0.3153  0.5590  0.0902
18946TIP3    H178253   4.397   0.033   1.748 -1.6637 -0.0532  1.3474
18946TIP3    H278254   4.409  -0.009   1.604  1.4260 -0.8751  1.7569
18947TIP3   OH278255   0.990   5.241   2.563 -0.1921  0.5986  0.2571
18947TIP3    H178256   0.903   5.201   2.556 -0.0054 -0.1261  1.7372
18947TIP3    H278257   1.000   5.260   2.656  0.4193  2.5863 -0.1858
18948TIP3   OH278258   6.437   0.613  12.508  0.4724 -0.0861 -0.0187
18948TIP3    H178259   6.431   0.627  12.603  0.7683 -2.9724  0.5240
18948TIP3    H278260   6.358   0.563  12.486  1.2841 -1.0224 -0.9138
18949TIP3   OH278261   5.163   0.694   1.789 -0.0800  0.5387 -0.7652
18949TIP3    H178262   5.134   0.605   1.809  0.9926  0.3187 -0.1316
18949TIP3    H278263   5.198   0.728   1.871  1.6551  0.6917 -1.5001
18950TIP3   OH278264   6.755   4.501   4.202 -0.0866  0.2682  0.6322
18950TIP3    H178265   6.824   4.537   4.257  0.6202 -2.1408  1.4245
18950TIP3    H278266   6.686   4.476   4.264 -0.3954 -0.0849  0.1532
18951TIP3   OH278267   2.785   6.312  14.416  0.2588  0.0365 -0.2198
18951TIP3    H178268   2.718   6.293  14.482  0.4383 -3.3396 -0.8358
18951TIP3    H278269   2.825   6.393  14.446 -3.1530  1.4932  0.8992
18952TIP3   OH278270   3.445   1.586   0.337 -0.1191 -0.3171  0.2928
18952TIP3    H178271   3.507   1.535   0.284 -1.4294 -0.1386 -1.5026
18952TIP3    H278272   3.462   1.559   0.427  2.2877 -0.5607 -0.1584
18953TIP3   OH278273   1.328   5.213  15.277 -0.4596  0.2072  0.3407
18953TIP3    H178274   1.399   5.271  15.303  1.5150 -2.1111  0.4169
18953TIP3    H278275   1.282   5.194  15.359  1.4729 -1.5517  1.1125
18954TIP3   OH278276   4.288   6.397  14.276  0.2670  0.2650  0.2923
18954TIP3    H178277   4.217   6.387  14.339 -1.0473 -0.3334 -1.1945
18954TIP3    H278278   4.368   6.396  14.328 -0.8051  0.9466  2.0271
18955TIP3   OH278279   3.794   3.086   4.094  0.0703 -0.0551 -0.0319
18955TIP3    H178280   3.729   3.019   4.112  0.8609 -0.9030 -0.2669
18955TIP3    H278281   3.844   3.093   4.175 -0.3712  0.6788  0.1879
18956TIP3   OH278282   3.832   1.123  10.707 -0.4112  0.1742  0.4441
18956TIP3    H178283   3.786   1.200  10.675 -1.2796 -0.1069  0.9656
18956TIP3    H278284   3.924   1.139  10.686 -0.9283 -0.1612 -2.5212
18957TIP3   OH278285   2.644   1.955  11.428  0.4571  0.0354 -0.3642
18957TIP3    H178286   2.644   1.947  11.333 -1.5478 -0.3195 -0.3739
18957TIP3    H278287   2.578   1.892  11.458 -0.5518  1.6663  1.0739
18958TIP3   OH278288   2.786   1.861   2.181  0.2490 -0.3415 -0.0352
18958TIP3    H178289   2.837   1.780   2.188  1.7530  0.6135  0.6607
18958TIP3    H278290   2.696   1.832   2.164  0.9795 -2.0990 -1.1337
18959TIP3   OH278291   6.743   6.529  11.855 -0.1237 -0.2110 -0.5481
18959TIP3    H178292   6.738   6.538  11.760 -1.2215 -3.9549 -1.0217
18959TIP3    H278293   6.665   6.573  11.888 -0.0081  0.6708 -1.4198
18960TIP3   OH278294   1.117   4.308  14.168  0.2946  0.2528  0.0202
18960TIP3    H178295   1.094   4.263  14.086 -0.0082  0.6414 -0.1149
18960TIP3    H278296   1.033   4.325  14.210  0.4105  0.5957  0.1184
18961TIP3   OH278297   2.490   2.634  16.916 -0.1683 -0.1503 -0.2962
18961TIP3    H178298   2.569   2.587  16.886 -0.7930  0.3371 -2.8903
18961TIP3    H278299   2.430   2.564  16.943  1.0862 -0.5309  1.7424
18962TIP3   OH278300   5.633   3.755  16.280 -0.1589 -0.2997 -0.0543
18962TIP3    H178301   5.645   3.727  16.371  3.4320 -1.4646 -0.7483
18962TIP3    H278302   5.558   3.704  16.250 -2.5843  1.3497  2.5879
18963TIP3   OH278303   2.064   0.115  14.035 -0.8294  0.4353 -0.5810
18963TIP3    H178304   2.027   0.141  13.951 -0.3378 -0.1281 -0.9848
18963TIP3    H278305   2.154   0.150  14.033 -0.0287 -1.5148 -1.2899
18964TIP3   OH278306   2.524   2.304   0.456  0.0130 -0.0263 -0.4757
18964TIP3    H178307   2.577   2.329   0.381  0.9506  2.1434  0.7954
18964TIP3    H278308   2.587   2.281   0.524 -0.7905 -4.6837 -0.9990
18965TIP3   OH278309   0.074   4.110   2.528  0.4719  0.0023  0.3757
18965TIP3    H178310   0.019   4.086   2.602 -3.1476  1.1838 -1.6559
18965TIP3    H278311   0.109   4.196   2.550  0.4200 -0.1837  1.2001
18966TIP3   OH278312   2.586   1.572  14.074 -0.6799  0.1415  0.5109
18966TIP3    H178313   2.679   1.586  14.054 -0.6714 -0.0636  0.4039
18966TIP3    H278314   2.540   1.630  14.014 -0.5709  1.5993  1.7894
18967TIP3   OH278315   3.288   6.514  13.851 -0.3558  0.4663 -0.5393
18967TIP3    H178316   3.324   6.425  13.853  0.3988  0.7293 -1.4597
18967TIP3    H278317   3.198   6.504  13.883 -0.0872 -0.5267 -0.0540
18968TIP3   OH278318   1.594   6.621   0.802 -0.1431  0.1983  0.4230
18968TIP3    H178319   1.636   6.634   0.717  0.4750  0.6893  0.7929
18968TIP3    H278320   1.508   6.584   0.781  0.1867 -0.1332 -0.3847
18969TIP3   OH278321   0.652   0.070   3.468 -0.3758 -0.0974  0.5180
18969TIP3    H178322   0.697   0.139   3.517  0.0156 -0.2872  0.4272
18969TIP3    H278323   0.722   0.025   3.421 -0.7764  0.3235 -0.5183
18970TIP3   OH278324   3.782   1.555  11.891  0.9469  0.3360 -0.2996
18970TIP3    H178325   3.850   1.619  11.909  0.4535  0.7934 -0.0582
18970TIP3    H278326   3.799   1.483  11.952  0.5236  0.9629  0.5690
18971TIP3   OH278327   3.928   1.533   0.291 -0.1057  0.5988  0.6711
18971TIP3    H178328   3.923   1.552   0.197 -2.2827 -0.4139  0.5304
18971TIP3    H278329   3.921   1.438   0.297  1.5134  0.5089  1.8248
18972TIP3   OH278330   0.955   0.783  17.111  0.0608 -0.0342  0.2606
18972TIP3    H178331   0.874   0.733  17.107 -0.1670  0.2764  0.8207
18972TIP3    H278332   1.016   0.734  17.056 -0.0999 -1.0458  0.9503
18973TIP3   OH278333   3.622   6.622   6.273  0.2202  0.1202  0.4051
18973TIP3    H178334   3.659   6.695   6.324  0.5023 -1.1824  2.1881
18973TIP3    H278335   3.545   6.658   6.231 -0.3925  1.1620  2.3013
18974TIP3   OH278336   3.041   4.903  15.886  0.1202 -0.3345 -0.0913
18974TIP3    H178337   2.956   4.907  15.930  0.1569  1.4338 -0.1047
18974TIP3    H278338   3.020   4.920  15.794  0.4908  0.1968 -0.0795
18975TIP3   OH278339   1.039   5.884  11.769  0.7699 -0.2128 -0.5302
18975TIP3    H178340   1.019   5.859  11.679  2.1577  1.2833 -1.3179
18975TIP3    H278341   1.111   5.826  11.795 -0.4422 -1.4810  0.0997
18976TIP3   OH278342   3.785   3.941  17.118 -0.7060  0.2432  0.1125
18976TIP3    H178343   3.738   3.893  17.049  0.1175 -0.8711  0.3076
18976TIP3    H278344   3.877   3.922  17.102 -0.1770  2.8959 -0.6413
18977TIP3   OH278345   1.650   0.391  13.003 -0.0489 -0.5995  0.5459
18977TIP3    H178346   1.740   0.425  13.002  0.0118 -0.6086  2.3022
18977TIP3    H278347   1.611   0.425  12.923  1.1914  0.3465  0.3081
18978TIP3   OH278348   3.858   6.790  11.406  0.0343 -0.6092  0.5889
18978TIP3    H178349   3.881   6.736  11.482  3.2775  1.0593  0.9757
18978TIP3    H278350   3.908   6.871  11.418 -2.0556  1.1702 -1.6258
18979TIP3   OH278351   4.688   4.885  14.701  0.3598  0.2893  0.5945
18979TIP3    H178352   4.691   4.809  14.759  0.1013  0.1690  0.4523
18979TIP3    H278353   4.612   4.870  14.645 -0.9581  1.6836  1.9442
18980TIP3   OH278354   1.021   0.959  13.938  0.4070  0.7476  0.3493
18980TIP3    H178355   0.990   0.973  13.848  0.9332 -1.6049 -0.2796
18980TIP3    H278356   0.941   0.953  13.990 -0.1075 -1.2158 -0.5760
18981TIP3   OH278357   6.519   0.483   0.071 -0.1311  0.1868  0.4330
18981TIP3    H178358   6.564   0.399   0.070  0.1295  0.3306  0.0960
18981TIP3    H278359   6.433   0.464   0.111 -0.7245 -0.5670 -1.1323
18982TIP3   OH278360   1.871   5.584   4.967 -0.0768  0.8282 -0.0238
18982TIP3    H178361   1.798   5.600   5.026 -0.5062  0.2281 -0.3834
18982TIP3    H278362   1.943   5.636   5.004 -0.2323  0.1858  1.2287
18983TIP3   OH278363   3.750   3.667   1.335 -0.4574  0.2880 -0.4885
18983TIP3    H178364   3.752   3.762   1.332 -1.0711  0.4016  1.3602
18983TIP3    H278365   3.842   3.641   1.345 -0.5084  0.9243  2.4582
18984TIP3   OH278366   4.542   3.529  16.104 -0.8837 -0.0110 -0.4380
18984TIP3    H178367   4.501   3.604  16.148  1.5129  1.4237 -0.4823
18984TIP3    H278368   4.508   3.533  16.014 -1.3729  0.5649 -0.2379
18985TIP3   OH278369   6.146   3.592   4.342 -0.3481 -0.2212  0.2586
18985TIP3    H178370   6.144   3.647   4.421  1.4388  2.8115 -1.6147
18985TIP3    H278371   6.239   3.578   4.326 -0.5167  1.1498 -2.4604
18986TIP3   OH278372   1.955   1.169  10.836 -0.9974 -0.7863  0.1718
18986TIP3    H178373   1.955   1.205  10.748  0.9895  1.3998  0.9547
18986TIP3    H278374   1.920   1.080  10.827  0.6716 -1.2342 -3.0476
18987TIP3   OH278375   0.611   4.239   2.761 -0.5035 -0.2806 -0.0269
18987TIP3    H178376   0.585   4.325   2.795 -1.0179 -0.9719  1.3984
18987TIP3    H278377   0.557   4.227   2.683 -2.7499 -0.6253  1.4983
18988TIP3   OH278378   1.891   0.559   3.869 -0.0335 -0.3386  0.4337
18988TIP3    H178379   1.890   0.637   3.813  1.0125  0.9025  2.0563
18988TIP3    H278380   1.946   0.497   3.822  0.3012  0.4362 -0.2241
18989TIP3   OH278381   4.412   1.563  10.755  0.4681 -0.3824 -0.6232
18989TIP3    H178382   4.410   1.593  10.663 -1.6078 -1.0040 -0.8424
18989TIP3    H278383   4.369   1.477  10.753  0.7037 -0.5609  0.8937
18990TIP3   OH278384   5.382   6.451   0.941 -0.3098  0.3496  0.3624
18990TIP3    H178385   5.377   6.361   0.974 -2.1364  0.0791 -0.5155
18990TIP3    H278386   5.396   6.505   1.019 -0.9379 -0.5540  1.1210
18991TIP3   OH278387   6.428   3.310   2.700 -0.6226  0.0991  0.0677
18991TIP3    H178388   6.423   3.246   2.771 -1.5464  1.0497  0.8933
18991TIP3    H278389   6.367   3.379   2.726  0.2568  1.2563 -0.8547
18992TIP3   OH278390   4.995   5.560  11.532 -0.6469 -0.0171  0.3222
18992TIP3    H178391   5.087   5.554  11.504 -0.1696  0.8634  1.6092
18992TIP3    H278392   4.951   5.602  11.458 -0.4458 -2.2058 -1.1292
18993TIP3   OH278393   3.988   4.609  15.240  0.4403  0.5506 -0.1486
18993TIP3    H178394   3.959   4.593  15.330  0.7349  1.7309  0.1669
18993TIP3    H278395   3.909   4.636  15.194 -0.4471 -3.0714 -1.1060
18994TIP3   OH278396   5.414   4.040  16.341 -0.1324 -0.7938  0.4586
18994TIP3    H178397   5.375   3.990  16.413  0.5942  0.3633  1.6975
18994TIP3    H278398   5.341   4.089  16.303 -0.7762 -2.3947 -0.5087
18995TIP3   OH278399   0.942   0.387  13.753  0.2460 -0.4231 -0.4825
18995TIP3    H178400   0.935   0.432  13.668  0.6661  3.5278  1.3645
18995TIP3    H278401   1.031   0.353  13.754 -0.1860 -1.7266 -2.0988
18996TIP3   OH278402   0.550   5.576   5.215  0.1180  0.2613  0.0714
18996TIP3    H178403   0.538   5.484   5.236 -0.6323  0.6056  1.2659
18996TIP3    H278404   0.594   5.576   5.130  0.7119 -1.1941  0.3451
18997TIP3   OH278405   2.631   2.393   4.253 -0.2635 -0.0283  0.1306
18997TIP3    H178406   2.620   2.479   4.212  0.4499  0.9718  1.9411
18997TIP3    H278407   2.721   2.368   4.232  0.1418  0.5389  1.1231
18998TIP3   OH278408   5.384   0.038   2.614  0.0334 -0.0467  0.4725
18998TIP3    H178409   5.477   0.064   2.614 -0.0143  0.1309  0.8185
18998TIP3    H278410   5.337   0.120   2.628 -0.1812 -0.1334  0.2738
18999TIP3   OH278411   5.015   2.783  15.488 -1.1480  0.4494  0.0693
18999TIP3    H178412   4.930   2.755  15.523 -1.1624  0.4519  0.0360
18999TIP3    H278413   5.066   2.808  15.566 -0.4350 -1.5368  0.2869
19000TIP3   OH278414   5.450   4.272   0.230  0.3215 -0.4661  0.4368
19000TIP3    H178415   5.409   4.185   0.224  0.0653 -0.3168 -0.0165
19000TIP3    H278416   5.544   4.254   0.224  0.2203 -0.6085 -1.0301
19001TIP3   OH278417   0.983   4.617  14.711  0.0161 -0.0433 -0.3723
19001TIP3    H178418   1.007   4.668  14.789 -0.6610  1.9494 -1.3896
19001TIP3    H278419   1.038   4.539  14.716  1.6353  1.0969  0.9212
19002TIP3   OH278420   3.351   0.898  17.084  0.1842  0.4970 -0.7345
19002TIP3    H178421   3.444   0.909  17.106  0.0405 -0.1598  0.2766
19002TIP3    H278422   3.314   0.986  17.091  0.4502  0.5474  0.2902
19003TIP3   OH278423   3.020   6.738   3.444 -0.4720  0.2361  0.1480
19003TIP3    H178424   3.081   6.809   3.464  0.4042  0.0664 -1.7296
19003TIP3    H278425   2.933   6.776   3.458 -0.1507  2.5368 -3.0200
19004TIP3   OH278426   4.008   3.194   0.024 -0.1094  0.1239  0.3457
19004TIP3    H178427   4.074   3.131  -0.006  0.1197 -0.5974  2.2280
19004TIP3    H278428   3.962   3.220  -0.055  1.0560 -0.9692 -0.7352
19005TIP3   OH278429   4.041   3.072   6.454 -0.0596 -0.2426  0.3158
19005TIP3    H178430   3.972   3.060   6.389 -0.4751 -0.5402  0.8002
19005TIP3    H278431   4.117   3.027   6.418  0.0103  0.4232 -0.4045
19006TIP3   OH278432   2.043   2.021  13.136  0.1420 -0.4004  0.5512
19006TIP3    H178433   1.956   1.982  13.138 -0.3075  0.6126  1.2451
19006TIP3    H278434   2.077   2.011  13.225  0.7764 -0.8490  0.2733
19007TIP3   OH278435   4.783   4.546  11.999 -0.0754 -0.2701  0.0704
19007TIP3    H178436   4.869   4.580  11.973 -0.0737  0.0476  0.4700
19007TIP3    H278437   4.722   4.582  11.936  0.2567 -1.6639 -1.0989
19008TIP3   OH278438   3.128   4.336  12.785  0.4129  0.3930  0.2173
19008TIP3    H178439   3.212   4.291  12.774 -0.3267 -1.1415  0.5949
19008TIP3    H278440   3.094   4.347  12.696  0.4081 -0.1859  0.1472
19009TIP3   OH278441   5.448   6.786  15.860  0.0549  0.0036  0.8388
19009TIP3    H178442   5.438   6.791  15.765 -0.8298  1.3114  0.9832
19009TIP3    H278443   5.433   6.693  15.880  0.0671 -0.2545 -0.2642
19010TIP3   OH278444   0.744   3.556  14.439 -0.4960  0.0249 -0.1233
19010TIP3    H178445   0.780   3.637  14.403  1.0071 -1.3368 -1.8707
19010TIP3    H278446   0.705   3.512  14.363 -2.5187 -0.3132  1.0400
19011TIP3   OH278447   3.645   0.501  16.056 -0.1213 -0.0907 -0.1384
19011TIP3    H178448   3.712   0.472  16.118  0.9784  0.9251 -0.8149
19011TIP3    H278449   3.669   0.591  16.035 -0.9397 -0.1462 -1.4123
19012TIP3   OH278450   4.349   0.395   5.350  0.0207 -0.6626  0.4531
19012TIP3    H178451   4.373   0.445   5.427 -0.2331 -2.6198  1.8693
19012TIP3    H278452   4.427   0.345   5.328  0.4753  0.7122 -1.3247
19013TIP3   OH278453   4.971   2.977  15.852 -0.9702 -0.3411 -0.5267
19013TIP3    H178454   4.939   2.992  15.941  1.5212  0.1774  0.3714
19013TIP3    H278455   5.015   3.059  15.828 -1.6056 -0.4713 -2.2630
19014TIP3   OH278456   1.699   3.819   4.575 -0.2672 -0.9889  0.4198
19014TIP3    H178457   1.793   3.815   4.556 -0.1442  0.7040  0.5641
19014TIP3    H278458   1.694   3.857   4.663 -1.1126 -0.6426  0.2291
19015TIP3   OH278459   3.447   0.643  13.840  0.0799  0.0494  0.5845
19015TIP3    H178460   3.535   0.607  13.832  0.2813  0.7388 -0.5631
19015TIP3    H278461   3.457   0.719  13.898  0.1112 -0.2726  1.0029
19016TIP3   OH278462   2.777   0.822  11.542 -0.0412  0.0237  0.5153
19016TIP3    H178463   2.848   0.778  11.589  0.9286 -2.5058 -2.8696
19016TIP3    H278464   2.697   0.785  11.579  0.6284 -1.2320  0.7709
19017TIP3   OH278465   2.609   1.613  11.465  0.1643 -0.6852  0.2525
19017TIP3    H178466   2.683   1.665  11.495 -0.3949 -0.4032  1.1781
19017TIP3    H278467   2.532   1.663  11.490 -0.3858 -1.7952  0.8904
19018TIP3   OH278468   0.158   5.800  10.734 -0.4928 -0.3375 -0.3264
19018TIP3    H178469   0.239   5.797  10.683 -1.2224 -1.6539 -1.4515
19018TIP3    H278470   0.094   5.753  10.682 -1.3475 -1.5662  1.7017
19019TIP3   OH278471   6.410   2.425  10.741  0.7747 -0.4232 -0.3326
19019TIP3    H178472   6.454   2.371  10.806  2.8994  2.4245  0.8455
19019TIP3    H278473   6.443   2.393  10.657  1.9605 -0.9985  0.3266
19020TIP3   OH278474   4.059   0.728   1.199  0.4686  0.0101  0.4059
19020TIP3    H178475   3.982   0.765   1.243  0.5250 -0.2693  0.7380
19020TIP3    H278476   4.127   0.726   1.266  0.1839 -1.6101  0.6851
19021TIP3   OH278477   4.760   3.915   1.181  0.6435  0.4535  0.0746
19021TIP3    H178478   4.758   3.983   1.113  2.6673  0.5147  0.0325
19021TIP3    H278479   4.851   3.889   1.186 -0.0263 -2.0663  0.3246
19022TIP3   OH278480   6.510   2.747   0.594  0.7032 -0.6122  0.2937
19022TIP3    H178481   6.533   2.833   0.631  0.5077 -0.3907 -0.0876
19022TIP3    H278482   6.485   2.767   0.504  0.1311 -1.0039  0.3658
19023TIP3   OH278483   2.358   4.641  11.401  0.4366  1.0393 -0.3794
19023TIP3    H178484   2.449   4.614  11.384  0.8987  1.7674  0.8021
19023TIP3    H278485   2.363   4.692  11.482 -1.3955 -0.9261  1.0935
19024TIP3   OH278486   3.231   1.222  13.200  0.2109 -0.5108  0.5769
19024TIP3    H178487   3.152   1.205  13.251  0.8315 -0.9856  1.4170
19024TIP3    H278488   3.203   1.219  13.109 -0.7745 -0.4415  0.8707
19025TIP3   OH278489   1.703   1.904   0.725  0.6464  0.5704  0.2125
19025TIP3    H178490   1.680   1.983   0.676 -1.8503 -0.6680 -0.8221
19025TIP3    H278491   1.662   1.918   0.811 -2.7610 -0.8190 -1.0137
19026TIP3   OH278492   3.770   4.620   1.723  0.0319  0.3306  0.1465
19026TIP3    H178493   3.759   4.525   1.717  0.4784  0.3309 -0.9652
19026TIP3    H278494   3.725   4.644   1.803 -1.7801 -0.5875 -0.5294
19027TIP3   OH278495   1.663   3.953   0.743  0.1844  0.3694  0.3064
19027TIP3    H178496   1.709   4.018   0.689  0.6914 -0.5929 -0.4661
19027TIP3    H278497   1.576   3.990   0.756  0.1763  0.8058 -0.8702
19028TIP3   OH278498   2.866   1.169  11.790 -0.3468  0.1326  0.1544
19028TIP3    H178499   2.874   1.256  11.753 -0.2348 -0.6070 -1.6483
19028TIP3    H278500   2.910   1.175  11.875 -0.7336  1.9198  0.2662
19029TIP3   OH278501   2.130   1.011  13.996  0.5395  0.2383 -0.6856
19029TIP3    H178502   2.095   1.066  13.926  0.5647 -0.6916 -1.4516
19029TIP3    H278503   2.153   1.072  14.065  1.0860  1.2643 -1.7301
19030TIP3   OH278504   4.839   2.399   5.530  0.4239  0.7293 -0.1771
19030TIP3    H178505   4.851   2.474   5.588  0.9690  0.6862 -0.2360
19030TIP3    H278506   4.766   2.350   5.569 -0.2346  1.5220 -0.3825
19031TIP3   OH278507   6.559   3.495  13.020 -0.1131 -0.0842 -0.3229
19031TIP3    H178508   6.513   3.578  13.007 -0.6447 -0.2384  0.5192
19031TIP3    H278509   6.632   3.516  13.079 -1.1388 -0.4794  1.1401
19032TIP3   OH278510   5.271   6.513   6.337  0.3336  0.6554  0.2465
19032TIP3    H178511   5.231   6.428   6.318 -0.3947  0.7269  1.3983
19032TIP3    H278512   5.312   6.502   6.423 -1.1048  1.8873  1.1467
19033TIP3   OH278513   3.952   3.287  13.657  0.0893 -0.1298  0.0669
19033TIP3    H178514   3.990   3.292  13.569 -0.4002  0.0854 -0.1325
19033TIP3    H278515   3.866   3.246  13.644 -0.4538  0.9040  0.2976
19034TIP3   OH278516   1.560   3.705  11.919  0.1190  0.2054  0.5364
19034TIP3    H178517   1.499   3.709  11.993  1.2873 -0.5611  1.6002
19034TIP3    H278518   1.514   3.748  11.847 -1.4960 -0.0040  1.3980
19035TIP3   OH278519   3.977   5.489  12.882 -0.2520  0.0720  0.0914
19035TIP3    H178520   4.056   5.449  12.919  0.3073 -0.8637 -1.9552
19035TIP3    H278521   3.937   5.536  12.955  1.9096  0.1246  1.3139
19036TIP3   OH278522   2.691   5.239   3.023  0.4902 -0.5083 -0.4351
19036TIP3    H178523   2.735   5.299   2.964 -0.5062  1.1147  0.4023
19036TIP3    H278524   2.723   5.263   3.110 -1.9311  0.7313  0.2071
19037TIP3   OH278525   3.023   6.342   5.690  0.3244  0.2657  0.2672
19037TIP3    H178526   2.992   6.430   5.709  0.0347 -0.0540  1.3446
19037TIP3    H278527   2.974   6.285   5.749  0.7178 -0.5920 -0.2016
19038TIP3   OH278528   3.576   1.380   4.516  0.2243 -0.2720 -0.0560
19038TIP3    H178529   3.522   1.306   4.490 -0.8741  0.3462  0.4052
19038TIP3    H278530   3.524   1.427   4.582  1.4104  0.2185  0.5794
19039TIP3   OH278531   3.214   5.470   1.005  0.4705 -0.4969  0.6597
19039TIP3    H178532   3.211   5.547   0.949 -2.3579 -0.9555  0.0552
19039TIP3    H278533   3.243   5.400   0.948 -2.3187 -0.9442 -0.3437
19040TIP3   OH278534   3.061   5.600   4.893  0.0262 -0.2191 -0.0521
19040TIP3    H178535   3.066   5.524   4.836 -0.8888 -1.4051  1.3893
19040TIP3    H278536   3.101   5.572   4.976  0.2345  1.0619  0.3143
19041TIP3   OH278537   1.165   0.242   6.312 -0.1523  0.3329 -0.0134
19041TIP3    H178538   1.136   0.333   6.323  0.8371  0.9876 -2.3237
19041TIP3    H278539   1.260   0.245   6.324 -0.2824 -0.7372  1.5775
19042TIP3   OH278540   6.374   4.872  16.734  0.3757  0.0282  0.2960
19042TIP3    H178541   6.433   4.850  16.807  0.8306 -1.0079 -0.3541
19042TIP3    H278542   6.385   4.800  16.672  0.7696  1.3743 -1.2710
19043TIP3   OH278543   0.533   0.666  12.363  0.2773 -0.4295  0.1417
19043TIP3    H178544   0.570   0.743  12.319  0.9512 -1.2700 -0.7853
19043TIP3    H278545   0.497   0.613  12.293  1.1896 -1.6965  0.5945
19044TIP3   OH278546   4.461   2.889  13.073  0.1029 -0.3445  0.2755
19044TIP3    H178547   4.538   2.943  13.092 -0.5842  1.1203 -0.8565
19044TIP3    H278548   4.444   2.904  12.980 -1.1728 -1.1537  0.3552
19045TIP3   OH278549   6.411   5.134  12.956 -0.0009 -0.4058 -0.0708
19045TIP3    H178550   6.455   5.211  12.921 -1.2358 -0.5039 -2.0254
19045TIP3    H278551   6.468   5.061  12.934  1.1379 -0.1221  1.7245
19046TIP3   OH278552   6.036   0.688   0.863  0.5604 -0.0584  0.0646
19046TIP3    H178553   6.125   0.701   0.831  0.2092 -0.2375 -1.0243
19046TIP3    H278554   6.040   0.714   0.956  1.4630  1.0848 -0.2637
19047TIP3   OH278555   5.945   5.953   1.547  0.2416 -0.2916 -0.7136
19047TIP3    H178556   6.030   5.967   1.587 -0.6817  1.3195  0.8185
19047TIP3    H278557   5.946   5.861   1.519  2.1963 -0.4883 -0.1106
19048TIP3   OH278558   3.677   5.030  11.353  0.0699  0.4130 -0.1054
19048TIP3    H178559   3.665   5.083  11.432  0.2043  0.5773 -0.1962
19048TIP3    H278560   3.716   4.949  11.385 -1.1331 -0.0760  0.1823
19049TIP3   OH278561   5.548   0.702   1.264  0.2598 -1.0375  0.2610
19049TIP3    H178562   5.617   0.648   1.302  0.7793  0.4228  1.4745
19049TIP3    H278563   5.570   0.792   1.289 -0.6472 -0.2361 -1.5749
19050TIP3   OH278564   6.350   3.593  13.622  0.2895  0.2893  0.3286
19050TIP3    H178565   6.317   3.610  13.710 -2.1358  1.2061 -0.6863
19050TIP3    H278566   6.301   3.517  13.592  0.3855  0.5778 -0.5883
19051TIP3   OH278567   3.411   5.398   1.790 -0.3809  0.1035 -0.3566
19051TIP3    H178568   3.374   5.318   1.828 -0.7030  0.2875 -0.2748
19051TIP3    H278569   3.479   5.367   1.731 -0.6947 -0.2501 -0.5408
19052TIP3   OH278570   4.060   0.456  14.970  0.1365 -0.8816 -0.1171
19052TIP3    H178571   4.032   0.472  15.060 -0.2949 -2.2072  0.0063
19052TIP3    H278572   4.088   0.541  14.938  0.4692 -0.4183  1.3294
19053TIP3   OH278573   3.263   0.304  13.973 -0.4521 -0.1335 -0.4216
19053TIP3    H178574   3.323   0.230  13.985  0.0229  0.6134  2.9719
19053TIP3    H278575   3.280   0.360  14.049 -5.2438  0.2900  0.6533
19054TIP3   OH278576   5.743   5.948   5.246  0.1738 -0.4349  0.0386
19054TIP3    H178577   5.721   5.896   5.168 -2.4418  0.7462 -0.1208
19054TIP3    H278578   5.701   5.901   5.318  0.5306 -0.2257  0.3880
19055TIP3   OH278579   5.326   3.947  13.362  0.8600  0.6632 -0.4766
19055TIP3    H178580   5.310   3.902  13.445  1.0356  0.8275 -0.3504
19055TIP3    H278581   5.422   3.952  13.356  0.8439  1.9668  0.0377
19056TIP3   OH278582   5.068   2.102  14.006 -0.4641  0.3020 -0.2645
19056TIP3    H178583   5.076   2.029  14.067  1.9259  1.8801  1.5289
19056TIP3    H278584   4.985   2.144  14.029  0.2810  0.7448  1.9083
19057TIP3   OH278585   6.707   2.517   2.890 -0.0085 -0.0744 -0.0936
19057TIP3    H178586   6.699   2.607   2.919  0.9401 -0.5693  1.8788
19057TIP3    H278587   6.783   2.517   2.833  1.8492 -0.0806  2.2424
19058TIP3   OH278588   0.443   3.156  15.548 -0.2050  0.3966  0.2546
19058TIP3    H178589   0.482   3.145  15.635 -0.8460  0.2745  0.5376
19058TIP3    H278590   0.391   3.237  15.555 -0.8309  0.0061  0.2111
19059TIP3   OH278591   1.975   0.642  11.578  0.2655  0.2457  0.5709
19059TIP3    H178592   1.956   0.550  11.562 -0.6256  0.6683 -0.9894
19059TIP3    H278593   2.060   0.641  11.623  0.2318 -1.3265  0.6649
19060TIP3   OH278594   1.108   0.957   1.303 -0.7751 -0.1387  0.8303
19060TIP3    H178595   1.013   0.964   1.295 -0.7039  1.0756  0.8652
19060TIP3    H278596   1.124   0.863   1.315 -1.9688 -0.3519  0.9084
19061TIP3   OH278597   4.219   0.566  12.719  0.1892 -0.2355  0.1474
19061TIP3    H178598   4.299   0.519  12.745  0.6455  0.2818 -0.2907
19061TIP3    H278599   4.251   0.647  12.680 -0.5109 -0.5995 -1.2316
19062TIP3   OH278600   3.538   3.195   0.679 -0.6635 -0.5094 -0.5620
19062TIP3    H178601   3.548   3.219   0.587 -0.4299  3.7488  0.3683
19062TIP3    H278602   3.623   3.162   0.705 -0.6472 -1.4746 -1.7829
19063TIP3   OH278603   5.404   2.136   4.328 -0.5310 -0.7786  0.6015
19063TIP3    H178604   5.409   2.157   4.421 -1.1903  1.1187  0.2575
19063TIP3    H278605   5.491   2.102   4.307  1.1491  2.7244  1.1013
19064TIP3   OH278606   6.336   1.687   6.186  0.1154  0.0503 -0.0445
19064TIP3    H178607   6.297   1.731   6.111 -0.4480  1.3800  0.9885
19064TIP3    H278608   6.316   1.744   6.261  1.8958 -0.4794  0.9108
19065TIP3   OH278609   1.076   3.036   3.158 -0.2931 -0.1172  0.3653
19065TIP3    H178610   1.145   3.102   3.169  0.2736 -0.4979 -0.7816
19065TIP3    H278611   1.117   2.954   3.183 -0.4500 -0.2893  0.0636
19066TIP3   OH278612   3.120   4.449   2.809  0.3099 -0.5060  0.5241
19066TIP3    H178613   3.186   4.518   2.801 -1.6598  1.6472  1.3785
19066TIP3    H278614   3.059   4.465   2.737 -0.4929 -0.9671  1.0799
19067TIP3   OH278615   0.846   5.716  15.621 -0.3103 -0.3362 -0.1385
19067TIP3    H178616   0.880   5.667  15.695  0.2421 -0.0587 -0.2060
19067TIP3    H278617   0.844   5.807  15.650 -1.4065 -0.3998  0.0144
19068TIP3   OH278618   6.467   1.312   3.467  0.7575  0.0701 -0.5866
19068TIP3    H178619   6.394   1.287   3.410  0.5751 -0.6824 -0.0332
19068TIP3    H278620   6.476   1.239   3.528  2.7044 -0.4063 -1.3477
19069TIP3   OH278621   3.642   1.705   3.817 -0.5288 -0.0603  0.0236
19069TIP3    H178622   3.657   1.697   3.723 -1.8062 -0.1142 -0.1830
19069TIP3    H278623   3.717   1.659   3.856  1.2884  1.9603 -0.8858
19070TIP3   OH278624   6.306   3.441   5.237 -0.7220  0.0863  0.1654
19070TIP3    H178625   6.371   3.498   5.278 -1.1890  0.4690  0.3837
19070TIP3    H278626   6.268   3.391   5.309  1.4367 -2.3776 -0.2760
19071TIP3   OH278627   6.269   5.624  11.711 -0.1670  0.1105 -0.1847
19071TIP3    H178628   6.318   5.706  11.713  1.3401 -0.7573  0.8717
19071TIP3    H278629   6.200   5.639  11.646 -0.8990  2.7084  1.0649
19072TIP3   OH278630   3.799   4.353   1.644 -0.1092 -0.3110  0.0528
19072TIP3    H178631   3.803   4.313   1.557  0.1708  0.1252 -0.1440
19072TIP3    H278632   3.884   4.334   1.683 -0.4528 -1.0078  0.4624
19073TIP3   OH278633   1.984   6.129  15.728 -0.4504 -0.1411 -0.2121
19073TIP3    H178634   1.897   6.119  15.689 -0.5362  0.6251 -0.2372
19073TIP3    H278635   1.975   6.095  15.817 -1.3074  1.6222  0.4399
19074TIP3   OH278636   3.226   0.110  11.725  0.3499  0.2487  0.1018
19074TIP3    H178637   3.132   0.107  11.708  0.4017  0.5928 -0.2631
19074TIP3    H278638   3.261   0.030  11.687 -0.1708 -1.3343  2.7290
19075TIP3   OH278639   0.849   5.256   1.734 -0.3243 -0.5239 -0.5976
19075TIP3    H178640   0.783   5.263   1.803 -0.3205  1.5245 -0.7181
19075TIP3    H278641   0.798   5.254   1.653 -0.2779 -0.2362 -0.6353
19076TIP3   OH278642   3.533   4.587  11.930 -0.0867 -0.0254 -0.3275
19076TIP3    H178643   3.484   4.637  11.995 -1.3782 -0.8488 -0.6351
19076TIP3    H278644   3.551   4.650  11.860 -0.0247  0.4783  0.1376
19077TIP3   OH278645   4.328   2.775  12.165 -0.0807 -0.1949 -0.2399
19077TIP3    H178646   4.354   2.862  12.135  0.5253 -0.2702  0.0621
19077TIP3    H278647   4.372   2.714  12.105 -1.3527 -0.2887 -1.1271
19078TIP3   OH278648   3.511   1.853   3.199  0.1966 -0.3683 -0.1518
19078TIP3    H178649   3.542   1.927   3.251  0.1250 -1.2615  1.2300
19078TIP3    H278650   3.416   1.850   3.216  0.2127 -0.8260 -0.1231
19079TIP3   OH278651   6.218   1.148   1.479  0.3541  0.3536 -0.1217
19079TIP3    H178652   6.138   1.109   1.513  0.0537  0.2650 -0.9045
19079TIP3    H278653   6.268   1.074   1.445 -0.1483  0.6100 -1.4709
19080TIP3   OH278654   4.607   5.919   1.858 -0.2214  0.3740  0.5412
19080TIP3    H178655   4.646   5.832   1.854 -0.8263 -0.0968  2.9408
19080TIP3    H278656   4.582   5.939   1.768  0.7232 -1.5452 -0.2041
19081TIP3   OH278657   1.161   2.085   0.394  0.7451 -0.3414  0.3429
19081TIP3    H178658   1.119   2.094   0.479  1.7511 -1.1893  0.9496
19081TIP3    H278659   1.191   2.174   0.372 -0.1065  0.0033  0.5457
19082TIP3   OH278660   2.794   5.185  11.986 -0.8709  0.1478  0.7179
19082TIP3    H178661   2.815   5.103  12.032 -1.2823  0.8201  2.1757
19082TIP3    H278662   2.862   5.245  12.014 -0.0844  0.1053 -1.0095
19083TIP3   OH278663   3.178   6.570  12.997 -0.0732  0.2601 -0.0082
19083TIP3    H178664   3.243   6.641  12.995 -0.1618  0.3867 -2.9222
19083TIP3    H278665   3.184   6.534  13.085  0.8418  3.0879  1.2047
19084TIP3   OH278666   1.206   1.850   2.097 -0.0389  0.2482 -0.5876
19084TIP3    H178667   1.128   1.886   2.053 -1.2432 -0.2348  1.0633
19084TIP3    H278668   1.278   1.903   2.063 -1.0934  0.8758 -1.9941
19085TIP3   OH278669   0.945   0.515   4.260  0.0493  0.3949 -0.4262
19085TIP3    H178670   0.936   0.461   4.182 -1.8576 -0.0429  0.0569
19085TIP3    H278671   0.862   0.506   4.306  1.8938 -1.4278  3.0132
19086TIP3   OH278672   1.628   1.994  12.623 -0.1214  0.1085  0.5662
19086TIP3    H178673   1.572   1.918  12.636  0.9225 -0.6640  0.6723
19086TIP3    H278674   1.567   2.066  12.606 -1.1182 -0.7886  0.2306
19087TIP3   OH278675   3.851   2.615   1.936 -0.7666  0.1243  0.1585
19087TIP3    H178676   3.756   2.622   1.927 -0.6390  2.4191 -0.0176
19087TIP3    H278677   3.870   2.651   2.023  0.0821  1.6790 -0.6310
19088TIP3   OH278678   3.600   4.429  16.442  0.1081 -0.0240 -0.4544
19088TIP3    H178679   3.685   4.404  16.406 -0.3802 -0.8557 -1.0579
19088TIP3    H278680   3.552   4.465  16.368 -0.5710 -0.8893 -0.4528
19089TIP3   OH278681   6.346   2.767   6.204  0.5125 -0.4011 -0.3739
19089TIP3    H178682   6.290   2.691   6.192  0.7628 -1.0363  2.1395
19089TIP3    H278683   6.307   2.834   6.148 -0.0696 -2.1302 -2.1643
19090TIP3   OH278684   1.771   6.521   3.424 -0.3393  0.4917  0.1490
19090TIP3    H178685   1.690   6.497   3.379 -0.1516 -0.9457  0.5271
19090TIP3    H278686   1.748   6.521   3.517  0.0040  0.4406  0.2362
19091TIP3   OH278687   4.868   0.562   0.223  0.0040 -0.2123  0.4831
19091TIP3    H178688   4.922   0.495   0.266  1.0803  1.9571  2.7245
19091TIP3    H278689   4.784   0.557   0.268  0.2660  0.2935  1.0357
19092TIP3   OH278690   5.480   2.342  14.037  0.2408  0.5970 -0.4368
19092TIP3    H178691   5.450   2.432  14.025  0.3365  0.6157 -0.5303
19092TIP3    H278692   5.466   2.325  14.131 -0.3791  0.4900 -0.5445
19093TIP3   OH278693   2.930   4.710  12.378  0.0307  0.6338  0.6545
19093TIP3    H178694   2.963   4.714  12.467  0.5905 -0.5348  0.5308
19093TIP3    H278695   3.004   4.675  12.327 -1.5693 -3.1022  0.5367
19094TIP3   OH278696   1.001   3.276  16.211  0.1344  0.0283  0.3099
19094TIP3    H178697   0.952   3.296  16.290 -1.3823 -2.2654  0.0199
19094TIP3    H278698   0.995   3.181  16.201  0.7038  0.1777 -2.2784
19095TIP3   OH278699   5.769   3.675   2.498  0.4986 -0.6389  0.2420
19095TIP3    H178700   5.677   3.685   2.523  0.5934  0.5700  0.1549
19095TIP3    H278701   5.778   3.581   2.480 -0.6838 -0.8002  0.3584
19096TIP3   OH278702   3.319   4.787   3.699  0.1519 -0.0579 -1.3574
19096TIP3    H178703   3.242   4.739   3.668  0.3746  0.2740 -2.4519
19096TIP3    H278704   3.379   4.788   3.625  1.3995 -0.6623 -0.3817
19097TIP3   OH278705   4.674   6.249  11.452 -0.1697 -0.6538  0.1279
19097TIP3    H178706   4.758   6.264  11.496 -0.0988 -0.6274 -0.0145
19097TIP3    H278707   4.674   6.156  11.431 -0.0581 -0.5999 -0.1131
19098TIP3   OH278708   6.672   1.931  15.747  0.0413 -0.6520 -0.4879
19098TIP3    H178709   6.665   1.924  15.652 -1.1499 -0.9716 -0.3934
19098TIP3    H278710   6.592   1.889  15.780  0.1114  0.0631  0.6322
19099TIP3   OH278711   3.454   1.455  15.018 -0.1519 -0.2272  0.0452
19099TIP3    H178712   3.546   1.432  15.031  0.2392  1.0055 -0.3896
19099TIP3    H278713   3.426   1.486  15.104 -0.2933 -0.9946  0.2843
19100TIP3   OH278714   6.099   4.427  16.358 -0.7123  0.0981 -0.8945
19100TIP3    H178715   6.140   4.340  16.365  0.0677  0.5545  0.6041
19100TIP3    H278716   6.042   4.433  16.434 -0.2574  1.1437 -0.6184
19101TIP3   OH278717   0.227   3.683  15.188  0.2225 -0.0136 -0.0737
19101TIP3    H178718   0.208   3.683  15.282 -1.8826  0.9646 -0.4573
19101TIP3    H278719   0.280   3.761  15.175  1.1671 -0.5555  0.3816
19102TIP3   OH278720   5.461   5.040   3.568 -0.4454  0.4476 -0.3237
19102TIP3    H178721   5.551   5.064   3.548  0.5852 -2.3940  0.4668
19102TIP3    H278722   5.454   5.048   3.663 -0.2615 -1.5719 -0.1152
19103TIP3   OH278723   3.964   5.740   4.132 -0.2507  0.5668 -0.3262
19103TIP3    H178724   4.030   5.671   4.131  0.6501  1.3657  0.7411
19103TIP3    H278725   3.967   5.774   4.222 -3.5635 -0.7168  0.3992
19104TIP3   OH278726   3.600   0.389   5.231  0.3641 -0.2405 -0.3914
19104TIP3    H178727   3.607   0.293   5.232  1.1968 -0.2527 -2.5041
19104TIP3    H278728   3.524   0.408   5.287  0.5573 -2.0718  0.5703
19105TIP3   OH278729   5.079   4.821  11.245 -0.2625 -0.3326  0.0171
19105TIP3    H178730   5.116   4.787  11.327 -0.7518  1.8381  1.2096
19105TIP3    H278731   5.151   4.872  11.206 -1.0480  1.5760  0.9386
19106TIP3   OH278732   5.367   3.379   2.029  0.1747 -0.3950 -0.6543
19106TIP3    H178733   5.277   3.346   2.027 -0.2928  0.8582 -0.8279
19106TIP3    H278734   5.397   3.373   1.938  0.3275 -0.9328 -0.5751
19107TIP3   OH278735   0.561   6.529   4.057  0.1014 -0.1822  0.5758
19107TIP3    H178736   0.471   6.556   4.036 -0.8467 -3.1321  0.4113
19107TIP3    H278737   0.581   6.575   4.138 -2.5600 -1.3084  1.9949
19108TIP3   OH278738   3.982   3.134  10.333 -0.2326 -0.1633  0.6049
19108TIP3    H178739   4.011   3.223  10.315 -1.5065  0.5547  1.9588
19108TIP3    H278740   3.961   3.134  10.426 -2.7571 -1.1439  0.1045
19109TIP3   OH278741   1.080   6.343   1.527  0.0003  0.1684  0.1055
19109TIP3    H178742   1.162   6.293   1.537  0.9626  1.6186 -0.1367
19109TIP3    H278743   1.080   6.370   1.435 -2.7256 -2.9781 -0.9864
19110TIP3   OH278744   5.448   6.255   4.546 -0.1095 -0.4179  0.5390
19110TIP3    H178745   5.433   6.187   4.481  1.3924 -0.4919  0.2504
19110TIP3    H278746   5.394   6.329   4.517  1.3070 -0.0893 -1.3637
19111TIP3   OH278747   2.245   5.406   6.463  0.0803 -0.2464 -0.7515
19111TIP3    H178748   2.240   5.492   6.506 -1.9084 -0.3478 -0.6614
19111TIP3    H278749   2.191   5.417   6.384  0.5555 -1.1558 -1.2091
19112TIP3   OH278750   2.300   2.138   5.007  0.0046  0.4818 -0.1254
19112TIP3    H178751   2.298   2.043   5.018  2.8420  0.4277  0.5432
19112TIP3    H278752   2.306   2.151   4.912 -0.6462  0.0298 -0.2350
19113TIP3   OH278753   2.818   1.276  14.463 -0.2132 -0.4628  0.4174
19113TIP3    H178754   2.844   1.368  14.455  0.9124 -0.8256 -0.3216
19113TIP3    H278755   2.889   1.235  14.511  0.1930 -1.2986 -0.8391
19114TIP3   OH278756   3.674   5.980  12.873  0.3353  0.1733 -0.4605
19114TIP3    H178757   3.764   6.012  12.869  0.4362 -0.0783 -0.2120
19114TIP3    H278758   3.620   6.058  12.860  0.5885  0.3065 -0.7310
19115TIP3   OH278759   2.488   5.511   1.820 -0.7090 -0.3797  0.4088
19115TIP3    H178760   2.522   5.570   1.753  1.6140 -1.9132  0.0982
19115TIP3    H278761   2.503   5.423   1.783 -0.8381 -1.2147  2.2644
19116TIP3   OH278762   2.912   1.541  16.972 -0.1966 -0.3828 -0.6495
19116TIP3    H178763   2.911   1.453  16.936 -1.2386 -0.0960 -1.3648
19116TIP3    H278764   3.005   1.561  16.986  0.0597 -1.4733 -0.7529
19117TIP3   OH278765   5.524   1.479  13.179  0.3589  0.0259  0.0357
19117TIP3    H178766   5.494   1.526  13.257 -1.5928 -0.0288 -0.6140
19117TIP3    H278767   5.527   1.387  13.205  1.4661  0.1862  0.5250
19118TIP3   OH278768   5.301   4.788   2.263  0.0697 -0.0491 -0.7219
19118TIP3    H178769   5.276   4.876   2.294 -1.1343 -0.9151  0.9337
19118TIP3    H278770   5.366   4.759   2.327 -0.4898 -0.8448 -0.5038
19119TIP3   OH278771   3.548   1.550  12.168 -0.0771 -0.0521  0.3625
19119TIP3    H178772   3.537   1.455  12.166  2.2326 -0.5190 -4.2392
19119TIP3    H278773   3.487   1.583  12.102  1.7821  1.0964 -0.8873
19120TIP3   OH278774   2.087   5.479  12.235  0.4709  0.2281  0.2485
19120TIP3    H178775   2.091   5.467  12.330  0.2053  1.0135  0.3636
19120TIP3    H278776   2.086   5.390  12.200 -0.3975 -0.0781  1.0212
19121TIP3   OH278777   0.712   4.789   5.349  0.3321 -0.2643  0.7634
19121TIP3    H178778   0.630   4.743   5.330 -0.4225  0.3679  2.2745
19121TIP3    H278779   0.737   4.758   5.436  1.2424  0.1899  0.6727
19122TIP3   OH278780   6.419   6.051   1.850  0.6040  0.1424 -0.3989
19122TIP3    H178781   6.428   6.145   1.865  0.8458 -0.0564  0.7647
19122TIP3    H278782   6.505   6.023   1.818 -0.0948  0.6781 -2.9318
19123TIP3   OH278783   4.011   2.810   1.292 -0.0450  0.1958 -0.2134
19123TIP3    H178784   3.923   2.820   1.255  0.3181 -0.6651 -1.3577
19123TIP3    H278785   4.000   2.827   1.386 -1.4886 -0.1931 -0.2929
19124TIP3   OH278786   5.391   0.469   1.401 -0.7880 -0.4406 -0.3608
19124TIP3    H178787   5.381   0.443   1.492  1.4528 -1.0617 -0.2496
19124TIP3    H278788   5.391   0.565   1.403 -3.2585 -0.3812 -0.0763
19125TIP3   OH278789   5.494   5.961  16.975 -0.0956  0.2827  0.0156
19125TIP3    H178790   5.427   5.893  16.967  0.6014 -0.7136  1.7760
19125TIP3    H278791   5.472   6.006  17.057  1.9738 -0.8888  1.3307
19126TIP3   OH278792   2.693   0.173   5.252  0.6117  0.5272  0.5042
19126TIP3    H178793   2.657   0.101   5.303  0.3644 -0.7095 -1.3163
19126TIP3    H278794   2.687   0.143   5.161  1.0541  2.6110 -0.2648
19127TIP3   OH278795   3.114   6.684  15.717  0.1434  0.0441 -0.1389
19127TIP3    H178796   3.052   6.649  15.654  1.3261 -0.3210 -1.1346
19127TIP3    H278797   3.062   6.742  15.773 -1.0964 -0.3385 -0.8768
19128TIP3   OH278798   1.435   5.441   2.532 -0.2332  0.1612 -0.0840
19128TIP3    H178799   1.516   5.398   2.559 -0.9104 -0.5815  0.8305
19128TIP3    H278800   1.372   5.417   2.600 -1.9991 -1.6665 -2.2169
19129TIP3   OH278801   5.990   0.186  14.985 -0.5260  0.1559  0.6436
19129TIP3    H178802   5.997   0.123  15.058  2.3443  0.0382  0.3778
19129TIP3    H278803   6.043   0.260  15.013 -0.3717  0.6187 -0.8400
19130TIP3   OH278804   0.371   3.505  11.254 -0.1162  0.5462  0.0400
19130TIP3    H178805   0.397   3.596  11.243  0.5990  0.2796 -0.4723
19130TIP3    H278806   0.447   3.461  11.291  0.1923 -0.2266 -1.4343
19131TIP3   OH278807   5.093   4.280  11.616  0.4614 -0.2542 -0.3796
19131TIP3    H178808   5.024   4.221  11.588 -1.6498  2.1274 -0.5548
19131TIP3    H278809   5.075   4.297  11.709  0.5652  0.6702 -0.5119
19132TIP3   OH278810   0.604   4.931  12.315 -0.4131  0.3519  0.0765
19132TIP3    H178811   0.602   4.901  12.406 -0.6177 -2.7496 -0.8280
19132TIP3    H278812   0.555   4.864  12.267 -1.4207  2.5435 -2.1857
19133TIP3   OH278813   4.956   1.468  11.926  0.0070  0.2780  0.6294
19133TIP3    H178814   4.972   1.405  11.856 -0.0279 -0.9132  1.6586
19133TIP3    H278815   5.039   1.515  11.936  0.0361  0.4034 -0.1375
19134TIP3   OH278816   4.157   4.697   0.852  0.1195 -0.5631  0.1533
19134TIP3    H178817   4.163   4.776   0.906  1.6829 -0.3170 -0.3312
19134TIP3    H278818   4.134   4.628   0.914 -1.0382  0.2122  0.6250
19135TIP3   OH278819   0.933   0.499  16.715  0.3534  0.8164  0.0125
19135TIP3    H178820   0.928   0.574  16.655 -0.4583  0.8437  0.1083
19135TIP3    H278821   0.873   0.521  16.786 -1.3838 -0.7293 -0.8777
19136TIP3   OH278822   2.891   4.578   4.464 -0.2257 -0.1012 -0.3699
19136TIP3    H178823   2.895   4.635   4.387  2.1798 -1.1602 -1.1314
19136TIP3    H278824   2.885   4.490   4.427 -0.8156 -0.5388  0.7348
19137TIP3   OH278825   4.609   6.083  14.046  0.2349 -0.1346  0.4395
19137TIP3    H178826   4.582   6.173  14.067  1.5958  0.5970 -0.8181
19137TIP3    H278827   4.538   6.049  13.991 -0.7778 -0.2276  1.7373
19138TIP3   OH278828   3.811   0.918   0.360  0.5316  0.5963 -0.0391
19138TIP3    H178829   3.888   0.885   0.407  1.2225  1.3734 -0.5962
19138TIP3    H278830   3.776   0.987   0.416  0.2092  0.2095  0.2374
19139TIP3   OH278831   3.673   1.074  12.626  0.0053 -0.4020 -0.0291
19139TIP3    H178832   3.634   1.086  12.539 -1.3071 -1.1874  0.4111
19139TIP3    H278833   3.757   1.033  12.609  0.8360  1.5720 -1.0383
19140TIP3   OH278834   6.498   0.465  15.715 -0.0640  0.5288 -0.1047
19140TIP3    H178835   6.567   0.458  15.781 -1.8997  2.1808  2.1660
19140TIP3    H278836   6.506   0.553  15.681  0.0800  0.1014 -1.2168
19141TIP3   OH278837   2.399   4.475   1.660  0.4523 -0.7211  0.4933
19141TIP3    H178838   2.315   4.520   1.655 -0.2304 -1.7373  1.9067
19141TIP3    H278839   2.403   4.422   1.580  0.4073  0.3905 -0.2559
19142TIP3   OH278840   2.809   5.727   0.410  0.2386 -0.2919 -0.1014
19142TIP3    H178841   2.733   5.686   0.371  0.4572 -0.1560 -0.6741
19142TIP3    H278842   2.802   5.819   0.384 -0.6174  0.2076  1.7274
19143TIP3   OH278843   5.590   3.213   1.594  0.2402  0.1087 -0.3006
19143TIP3    H178844   5.572   3.283   1.531 -2.3869  1.8955  2.1368
19143TIP3    H278845   5.528   3.144   1.571 -0.4665  0.6089  0.0391
19144TIP3   OH278846   5.363   5.466  14.723  0.1653  0.0277  0.1412
19144TIP3    H178847   5.432   5.457  14.658  1.0756 -4.8836  1.3822
19144TIP3    H278848   5.283   5.442  14.677 -0.2368  2.3094 -0.4484
19145TIP3   OH278849   5.853   0.519  14.390  0.5730  0.4232 -0.4546
19145TIP3    H178850   5.775   0.562  14.426  0.2716 -1.6504  1.6947
19145TIP3    H278851   5.823   0.431  14.368  2.0247 -0.0164 -0.7868
19146TIP3   OH278852   2.780   4.592  16.074 -0.3344  0.4102 -0.0331
19146TIP3    H178853   2.849   4.542  16.032  0.8444  0.4470  1.7725
19146TIP3    H278854   2.700   4.542  16.057  0.3667 -0.5117 -0.7250
19147TIP3   OH278855   2.468   1.649   3.625  0.3300  0.1712  0.3191
19147TIP3    H178856   2.446   1.650   3.532 -0.2615  0.3617  0.4573
19147TIP3    H278857   2.417   1.577   3.661  1.1679 -0.4135  0.3567
19148TIP3   OH278858   2.747   5.323  13.709 -0.0832 -0.4111 -0.4421
19148TIP3    H178859   2.722   5.379  13.637  1.8560  0.5106 -0.4509
19148TIP3    H278860   2.760   5.237  13.670  1.2612  0.1516 -1.2812
19149TIP3   OH278861   6.633   3.165   4.081  0.2156  0.0157 -0.0763
19149TIP3    H178862   6.612   3.254   4.108 -0.1394 -0.3740  0.9744
19149TIP3    H278863   6.643   3.171   3.986  0.2473  1.1805 -0.0133
19150TIP3   OH278864   5.314   1.003   1.231 -1.1972  0.0836 -0.5743
19150TIP3    H178865   5.386   1.053   1.269 -0.6295 -0.3655 -1.0355
19150TIP3    H278866   5.355   0.952   1.160 -1.5590 -1.7675  0.4767
19151TIP3   OH278867   1.472   3.085   3.630  0.0930  0.0385 -0.1248
19151TIP3    H178868   1.470   2.989   3.622  0.5625  0.1053 -1.2434
19151TIP3    H278869   1.382   3.112   3.616 -0.2627 -0.2867  1.2852
19152TIP3   OH278870   5.137   3.211   2.561 -0.3677 -0.4565 -0.4111
19152TIP3    H178871   5.192   3.235   2.486  0.6616 -1.2776  0.0657
19152TIP3    H278872   5.079   3.142   2.527 -1.5952  0.8539 -1.0890
19153TIP3   OH278873   4.100   1.467   4.196  0.0835  0.0280 -0.8736
19153TIP3    H178874   4.036   1.404   4.164 -1.0505  0.3501  0.6581
19153TIP3    H278875   4.168   1.413   4.237 -1.5044 -0.2790  1.5849
19154TIP3   OH278876   4.054   4.062  12.107  0.3243  0.2049 -0.5754
19154TIP3    H178877   4.140   4.072  12.068  0.8956 -0.9961  0.3012
19154TIP3    H278878   4.003   4.013  12.043  0.5150  0.2904 -0.7910
19155TIP3   OH278879   1.971   1.877  14.277 -0.4853 -0.0636  0.2074
19155TIP3    H178880   1.896   1.859  14.221  2.0132 -2.0542 -2.8571
19155TIP3    H278881   1.995   1.967  14.257 -0.8443 -0.0890 -0.3558
19156TIP3   OH278882   4.129   3.043  16.893  0.0038 -0.5539 -0.3799
19156TIP3    H178883   4.153   3.121  16.844  0.3505  0.2096  0.9516
19156TIP3    H278884   4.034   3.045  16.896  0.0255  0.1522  0.1358
19157TIP3   OH278885   6.598   4.820   2.373 -0.0258 -0.6655  0.0564
19157TIP3    H178886   6.531   4.768   2.418 -1.4872  0.0580 -1.2003
19157TIP3    H278887   6.623   4.766   2.298 -0.0402 -0.4332 -0.1144
19158TIP3   OH278888   1.864   5.455   2.616  0.8165 -1.1129  0.1715
19158TIP3    H178889   1.877   5.378   2.560  2.0763 -0.4622 -0.4589
19158TIP3    H278890   1.940   5.510   2.599 -0.4501  0.6577 -0.0044
19159TIP3   OH278891   3.203   2.349   0.384 -0.4125  0.3078 -0.2470
19159TIP3    H178892   3.178   2.345   0.292  0.3167 -0.1900 -0.4301
19159TIP3    H278893   3.252   2.431   0.393  0.5997 -0.2420 -0.5907
19160TIP3   OH278894   5.910   5.107   1.273 -0.0546 -0.3923  0.6105
19160TIP3    H178895   5.887   5.191   1.314  2.3685  1.5518 -1.6659
19160TIP3    H278896   6.005   5.101   1.283  0.0303 -2.0342 -0.7834
19161TIP3   OH278897   1.365   3.751  17.071  0.0916  0.0117 -0.2235
19161TIP3    H178898   1.390   3.676  17.018 -1.5535 -0.4387 -0.4323
19161TIP3    H278899   1.336   3.714  17.155 -1.8468  0.2297 -0.7328
19162TIP3   OH278900   4.063   3.749   1.188  0.2350  0.6548 -0.2738
19162TIP3    H178901   4.149   3.783   1.212  0.5638  1.7112 -2.7533
19162TIP3    H278902   4.058   3.664   1.233  1.9223  1.2132  1.0919
19163TIP3   OH278903   3.801   2.204   1.949  0.2052  0.3688  0.0499
19163TIP3    H178904   3.752   2.199   1.867  0.1991  1.6353 -0.0331
19163TIP3    H278905   3.877   2.259   1.928  1.4207 -1.1428  0.3018
19164TIP3   OH278906   4.911   6.640   2.854  0.0083 -0.7222 -0.4221
19164TIP3    H178907   4.998   6.679   2.861  0.0000 -0.6375 -0.7940
19164TIP3    H278908   4.855   6.711   2.822 -0.3194 -0.6096  0.3504
19165TIP3   OH278909   5.052   6.041  11.175  0.0012  0.6935 -0.6941
19165TIP3    H178910   5.037   6.119  11.227  2.3730  0.5559  0.3451
19165TIP3    H278911   5.089   6.074  11.093  0.8819  0.7008 -0.3063
19166TIP3   OH278912   3.407   3.903  14.404 -0.4286 -0.2769  0.4449
19166TIP3    H178913   3.318   3.914  14.440 -1.4361  2.3420 -2.4045
19166TIP3    H278914   3.463   3.948  14.467 -1.1113 -1.5712  2.0637
19167TIP3   OH278915   4.497   5.891  12.153 -0.5121 -0.3148  0.3860
19167TIP3    H178916   4.435   5.891  12.079 -0.3780  0.0458  0.2701
19167TIP3    H278917   4.582   5.874  12.113 -0.5019 -0.5531  0.5116
19168TIP3   OH278918   3.454   2.567   3.239  0.2116  0.3977  0.4355
19168TIP3    H178919   3.493   2.652   3.218 -0.0374  1.0693  2.4511
19168TIP3    H278920   3.527   2.505   3.236  0.2946  0.5236 -1.6410
19169TIP3   OH278921   0.175   6.098  14.307  0.1188 -0.7508 -0.1244
19169TIP3    H178922   0.081   6.094  14.327  0.0026 -0.0315 -0.5097
19169TIP3    H278923   0.217   6.062  14.385 -0.4558 -0.6733  0.2312
19170TIP3   OH278924   4.867   1.239   0.427 -0.0695  0.3878 -0.2557
19170TIP3    H178925   4.934   1.182   0.466  0.2239 -0.3851 -1.7942
19170TIP3    H278926   4.917   1.308   0.383 -0.2569 -0.1160 -1.2958
19171TIP3   OH278927   1.160   5.999  15.706  0.3640  0.2689  0.2413
19171TIP3    H178928   1.068   5.988  15.731  0.5879  0.6818  1.2970
19171TIP3    H278929   1.183   6.087  15.736  1.0417  0.2630 -0.2334
19172TIP3   OH278930   6.371   3.684  11.131 -0.0685  0.3654 -0.3311
19172TIP3    H178931   6.340   3.709  11.044 -0.2412  0.9126 -0.1144
19172TIP3    H278932   6.457   3.645  11.116 -0.2059  0.2303 -0.7741
19173TIP3   OH278933   2.171   0.669   3.596 -0.6987  0.3822  0.1256
19173TIP3    H178934   2.178   0.726   3.519  2.4963 -1.5121 -1.1502
19173TIP3    H278935   2.107   0.602   3.570 -0.4498  0.3712 -0.4850
19174TIP3   OH278936   3.620   1.634  16.165 -0.4832 -0.1109 -0.5932
19174TIP3    H178937   3.545   1.640  16.106 -0.6247 -1.4434 -0.5881
19174TIP3    H278938   3.672   1.561  16.130  0.7825  0.7501 -0.5569
19175TIP3   OH278939   5.754   6.513   2.602  0.7196  0.0951  0.2641
19175TIP3    H178940   5.663   6.530   2.578  0.6677  0.0078  0.3954
19175TIP3    H278941   5.769   6.568   2.679  0.6144 -0.2863  0.5637
19176TIP3   OH278942   3.003   3.262  13.020  0.3218 -0.3345  0.5864
19176TIP3    H178943   3.008   3.261  12.924  0.4055  0.9891  0.5550
19176TIP3    H278944   2.978   3.173  13.044 -1.4817 -0.2487 -0.7723
19177TIP3   OH278945   4.063   2.913  12.238  0.6284 -0.5576 -0.3057
19177TIP3    H178946   3.978   2.872  12.223 -0.1503  1.4389 -1.8419
19177TIP3    H278947   4.108   2.905  12.153  2.4321 -2.4426  0.7375
19178TIP3   OH278948   1.562   6.426  14.601  0.2533  0.0318 -0.0381
19178TIP3    H178949   1.526   6.500  14.650 -1.1731  0.9516 -2.2937
19178TIP3    H278950   1.623   6.466  14.539 -0.2421 -0.7153 -1.0303
19179TIP3   OH278951   2.265   3.376   4.772 -0.3280 -0.4553  0.4765
19179TIP3    H178952   2.220   3.396   4.690  1.6629 -0.0937 -0.5930
19179TIP3    H278953   2.256   3.455   4.825 -0.5760 -0.2409  0.1198
19180TIP3   OH278954   4.326   6.327  13.254  0.3761  0.5516  0.1990
19180TIP3    H178955   4.249   6.345  13.201  0.6236  1.7849  0.2449
19180TIP3    H278956   4.397   6.316  13.190  0.3378  0.2885  0.1997
19181TIP3   OH278957   4.783   0.966  12.905 -0.1408  0.0202 -0.2400
19181TIP3    H178958   4.797   0.964  12.811  0.0084  1.8406 -0.3020
19181TIP3    H278959   4.691   0.944  12.917  0.3029 -2.2190 -0.6223
19182TIP3   OH278960   2.312   6.651  12.083  0.0749 -0.2170  0.4274
19182TIP3    H178961   2.283   6.560  12.087  0.1871 -0.2780 -0.0802
19182TIP3    H278962   2.242   6.700  12.127 -0.1267 -0.5135  0.4397
19183TIP3   OH278963   3.456   0.414  12.058 -0.1720  0.1945 -0.3826
19183TIP3    H178964   3.524   0.452  12.114  1.2574 -2.9975  0.2553
19183TIP3    H278965   3.412   0.490  12.020  0.8235  2.4846  2.6075
19184TIP3   OH278966   4.654   1.227   4.770 -0.7109 -0.5780 -0.2390
19184TIP3    H178967   4.646   1.187   4.857 -1.5065  0.7165  0.3138
19184TIP3    H278968   4.673   1.319   4.788 -0.9143 -0.2854 -1.4382
19185TIP3   OH278969   2.359   2.218   2.304 -0.2006 -0.0256  0.1444
19185TIP3    H178970   2.415   2.210   2.226 -0.4993 -0.4026 -0.0365
19185TIP3    H278971   2.418   2.198   2.377 -0.0199 -0.0948 -0.0176
19186TIP3   OH278972   1.718   4.006   3.230 -0.3284 -0.3888 -0.3556
19186TIP3    H178973   1.807   4.042   3.221 -1.1903  1.5114 -2.1692
19186TIP3    H278974   1.696   4.019   3.322  1.0061 -0.2730 -0.0302
19187TIP3   OH278975   2.635   6.620   0.735  0.3126  0.3439 -0.2029
19187TIP3    H178976   2.589   6.542   0.703  0.8538 -0.4113  0.8282
19187TIP3    H278977   2.716   6.622   0.684  0.2315  0.3334 -0.3346
19188TIP3   OH278978   6.529   0.278  10.944 -0.1767 -0.1492  0.2600
19188TIP3    H178979   6.554   0.186  10.933 -2.4431 -0.6658 -1.1852
19188TIP3    H278980   6.611   0.327  10.932  0.5674 -1.8138 -2.1781
19189TIP3   OH278981   6.303   0.665  14.822 -0.3979  0.2593 -0.4369
19189TIP3    H178982   6.382   0.715  14.803  0.1895 -0.1136  0.8748
19189TIP3    H278983   6.248   0.725  14.872  0.5520 -0.4774  1.6508
19190TIP3   OH278984   0.963   1.665   5.896 -0.0912 -0.1836  0.3261
19190TIP3    H178985   0.883   1.630   5.856  0.7923 -1.4941 -0.3865
19190TIP3    H278986   0.994   1.594   5.952  1.5589 -0.4475 -0.8498
19191TIP3   OH278987   4.349   1.287   5.803 -0.2449  0.3150 -0.4053
19191TIP3    H178988   4.331   1.227   5.730 -0.9788 -2.5079  1.8980
19191TIP3    H278989   4.270   1.285   5.856  0.7466  1.1730  1.1909
19192TIP3   OH278990   4.547   5.502   0.416  0.8424  0.1881 -0.2180
19192TIP3    H178991   4.565   5.409   0.432 -0.9359 -0.2081 -0.3243
19192TIP3    H278992   4.496   5.503   0.335  3.1351  1.5235 -1.7464
19193TIP3   OH278993   4.412   5.449   1.170 -0.1078 -0.1385 -0.2434
19193TIP3    H178994   4.382   5.535   1.143 -2.2017 -1.0786 -1.1079
19193TIP3    H278995   4.501   5.442   1.134  0.0686  1.5745 -0.2321
19194TIP3   OH278996   0.661   4.498  12.570 -0.0523  0.1377  0.5297
19194TIP3    H178997   0.714   4.420  12.590  1.2224  0.3361 -1.7493
19194TIP3    H278998   0.587   4.464  12.521 -0.8230  0.1284  1.6671
19195TIP3   OH278999   4.303   0.667  15.311 -0.3397  0.2323 -0.4875
19195TIP3    H179000   4.333   0.721  15.238  1.7435  1.6845  1.3451
19195TIP3    H279001   4.266   0.729  15.373  1.7500 -0.4010  1.5052
19196TIP3   OH279002   1.173   4.575  12.270 -0.3032  0.1599  0.4233
19196TIP3    H179003   1.186   4.615  12.356  0.8510 -0.6299  0.6415
19196TIP3    H279004   1.234   4.501  12.269 -1.9205 -1.2193 -0.2047
19197TIP3   OH279005   1.973   6.640  16.818  0.1745  0.4039 -0.6469
19197TIP3    H179006   1.904   6.583  16.852  0.9222 -0.3230 -0.2987
19197TIP3    H279007   2.016   6.588  16.750  0.3680  0.8574 -0.8784
19198TIP3   OH279008   0.706   5.631  13.957  0.5803  0.1418  0.5647
19198TIP3    H179009   0.741   5.542  13.950 -0.3953 -0.2972  0.9943
19198TIP3    H279010   0.754   5.681  13.891 -1.0660 -1.4601 -2.0231
19199TIP3   OH279011   2.351   4.411  17.048  0.9584  0.4341 -0.1171
19199TIP3    H179012   2.443   4.407  17.076  0.6018 -0.7832  0.9632
19199TIP3    H279013   2.355   4.400  16.953  1.9299  0.3377 -0.0781
19200TIP3   OH279014   0.375   4.881  10.922 -0.7713 -0.1120 -0.5229
19200TIP3    H179015   0.296   4.875  10.869  0.3384 -0.8520 -2.1671
19200TIP3    H279016   0.359   4.822  10.996 -2.4520  1.1547  0.1719
19201TIP3   OH279017   2.021   2.214   5.878  0.1125  0.6206 -0.0986
19201TIP3    H179018   2.092   2.277   5.888  0.2085  0.5108 -0.0974
19201TIP3    H279019   1.954   2.245   5.940 -0.1215  1.1146 -0.5855
19202TIP3   OH279020   6.054   0.213   3.432  0.4807 -0.3702 -0.0292
19202TIP3    H179021   6.134   0.223   3.380 -0.7971 -0.5892 -2.1186
19202TIP3    H279022   5.983   0.241   3.374 -0.9691  0.1601  1.8900
19203TIP3   OH279023   5.773   1.497   1.934  0.0005  0.2844 -0.1583
19203TIP3    H179024   5.725   1.534   1.860  0.2353 -1.5890 -1.3144
19203TIP3    H279025   5.789   1.572   1.992  0.1118  1.9069 -2.1456
19204TIP3   OH279026   0.668   3.678   4.149  0.1714 -0.2903 -0.3765
19204TIP3    H179027   0.740   3.617   4.165 -0.4547 -0.9238  0.0760
19204TIP3    H279028   0.600   3.651   4.210  0.5327  1.9909  1.1259
19205TIP3   OH279029   4.873   1.835   2.166 -0.1241 -0.0012  0.0204
19205TIP3    H179030   4.859   1.929   2.164  0.8405  0.1776  0.9468
19205TIP3    H279031   4.858   1.810   2.257  1.2195 -0.4652  0.1434
19206TIP3   OH279032   4.675   0.678  12.386 -0.4366  0.0610 -0.3685
19206TIP3    H179033   4.651   0.624  12.462 -1.2844  1.2526  0.2414
19206TIP3    H279034   4.602   0.666  12.325  0.7292 -1.7429 -1.5278
19207TIP3   OH279035   2.328   0.886  16.214 -0.0778 -0.2721 -0.2888
19207TIP3    H179036   2.366   0.892  16.301  1.3235 -0.7958 -0.8270
19207TIP3    H279037   2.343   0.795  16.188  1.2301  0.3298 -1.7879
19208TIP3   OH279038   3.860   1.269  17.093 -0.1710  0.4549 -0.5978
19208TIP3    H179039   3.955   1.264  17.079 -0.0641 -1.1800  0.4101
19208TIP3    H279040   3.822   1.249  17.007  0.4434 -1.6855 -0.4285
19209TIP3   OH279041   4.115   3.786  15.750  0.0463  0.1729 -0.1457
19209TIP3    H179042   4.133   3.880  15.748  0.0221  0.1838  0.0621
19209TIP3    H279043   4.141   3.755  15.664  0.4791  0.2968 -0.0664
19210TIP3   OH279044   6.484   2.399   4.963 -0.4801 -0.2715  0.6358
19210TIP3    H179045   6.537   2.464   5.009 -0.6722 -0.5581  1.2681
19210TIP3    H279046   6.487   2.427   4.871  0.7042 -0.2454  0.6692
19211TIP3   OH279047   2.129   2.540  16.674  0.1711  0.2605 -0.4069
19211TIP3    H179048   2.211   2.492  16.659 -1.0297 -1.8962 -0.4258
19211TIP3    H279049   2.144   2.589  16.756  1.4619 -0.0838 -0.4209
19212TIP3   OH279050   3.971   1.742   2.325 -0.4479  0.0213 -0.4730
19212TIP3    H179051   3.944   1.831   2.305 -1.2163  0.0011  0.3980
19212TIP3    H279052   4.066   1.744   2.320 -0.3752  1.2230  0.8293
19213TIP3   OH279053   3.667   0.357  13.776 -0.6659 -0.3495  0.1541
19213TIP3    H179054   3.594   0.348  13.714  0.2332  1.4223 -1.2601
19213TIP3    H279055   3.737   0.304  13.738 -0.8856 -1.3094  1.0355
19214TIP3   OH279056   3.844   5.915   6.364  0.1337  0.1338  0.1222
19214TIP3    H179057   3.883   5.996   6.397 -0.5239  1.1153 -1.4222
19214TIP3    H279058   3.912   5.849   6.376  2.1343  1.6639 -1.9847
19215TIP3   OH279059   0.470   4.110  11.330  0.1682  0.0160  0.1867
19215TIP3    H179060   0.394   4.074  11.285  0.4043  0.6963 -0.7764
19215TIP3    H279061   0.481   4.197  11.294  1.0661  0.1475  0.7348
19216TIP3   OH279062   4.385   5.956  14.408 -0.3699  0.9633  0.6835
19216TIP3    H179063   4.309   5.950  14.350 -0.6580  0.8718  1.0707
19216TIP3    H279064   4.410   5.865  14.425 -0.2161  0.9919  0.6120
19217TIP3   OH279065   5.957   1.759   5.876  0.2936  0.0915 -0.3917
19217TIP3    H179066   5.870   1.764   5.917  0.1701 -0.7073 -0.5404
19217TIP3    H279067   5.955   1.677   5.827  1.0267  0.2291 -0.6527
19218TIP3   OH279068   6.668   0.269   0.307  0.0672 -0.5019  0.0069
19218TIP3    H179069   6.583   0.309   0.321  0.1934  0.5616 -1.8536
19218TIP3    H279070   6.650   0.188   0.258  0.0929 -0.5000 -0.0061
19219TIP3   OH279071   6.647   4.118  14.868  0.7501  0.0098 -0.2554
19219TIP3    H179072   6.554   4.104  14.850  0.7538  0.7612 -0.8915
19219TIP3    H279073   6.664   4.066  14.947 -0.5465  0.9980  0.7032
19220TIP3   OH279074   4.608   3.269   0.769  0.4967  0.1316 -0.4753
19220TIP3    H179075   4.668   3.296   0.700  0.5346  0.6906 -0.2288
19220TIP3    H279076   4.536   3.226   0.723  0.9918 -0.3774 -0.7857
19221TIP3   OH279077   5.892   6.129  13.149 -0.3535  0.2994  0.5850
19221TIP3    H179078   5.799   6.146  13.137  0.1172  2.4870 -0.5392
19221TIP3    H279079   5.920   6.194  13.214  0.4490 -0.1098  0.6641
19222TIP3   OH279080   2.440   5.258   1.469  0.3691 -0.7294 -0.4020
19222TIP3    H179081   2.367   5.220   1.517  1.6650 -1.4682  1.0644
19222TIP3    H279082   2.424   5.232   1.378 -1.4008 -0.4915 -0.1878
19223TIP3   OH279083   3.248   0.788  11.593 -0.7193  0.1689 -0.5051
19223TIP3    H179084   3.196   0.866  11.612  1.7235  2.3832 -2.2229
19223TIP3    H279085   3.198   0.741  11.527 -0.4618  2.4911 -2.4926
19224TIP3   OH279086   5.081   1.502   2.874 -0.0493  0.2656  0.2596
19224TIP3    H179087   5.050   1.468   2.958  0.9739 -2.1526 -0.2582
19224TIP3    H279088   5.152   1.443   2.849 -2.6782 -1.5327 -4.0568
19225TIP3   OH279089   0.136   0.293   0.372  0.9338  0.0920 -0.0527
19225TIP3    H179090   0.049   0.283   0.333  1.1313 -0.1501 -0.4462
19225TIP3    H279091   0.176   0.364   0.322 -0.1392  2.3771  2.1468
19226TIP3   OH279092   1.580   1.095  12.172 -0.1021  0.2839  0.3132
19226TIP3    H179093   1.550   1.176  12.129 -0.2209  0.2650  0.3584
19226TIP3    H279094   1.523   1.027  12.136  1.6573 -0.2408 -1.7156
19227TIP3   OH279095   6.125   4.925  17.130  0.0621 -0.1518 -0.7154
19227TIP3    H179096   6.064   4.905  17.059 -1.6520 -0.4986  0.7856
19227TIP3    H279097   6.071   4.924  17.209  2.0335 -0.4938  0.6973
19228TIP3   OH279098   4.123   4.699   4.144  0.5301 -0.5455 -0.4657
19228TIP3    H179099   4.073   4.779   4.162  0.2727 -0.4462 -1.5585
19228TIP3    H279100   4.078   4.631   4.195 -0.2883 -0.3184 -0.8700
19229TIP3   OH279101   6.200   1.266   5.564 -0.2712  0.4985 -0.1122
19229TIP3    H179102   6.181   1.312   5.646  0.2243  0.0416  0.2660
19229TIP3    H279103   6.163   1.179   5.578 -1.4873  0.8614 -0.9441
19230TIP3   OH279104   0.694   5.890   0.682  0.0166  0.0207 -0.5718
19230TIP3    H179105   0.754   5.829   0.640 -1.2712 -1.2681 -0.5974
19230TIP3    H279106   0.642   5.926   0.609  1.8011  2.4415 -0.7871
19231TIP3   OH279107   3.597   6.664   4.038 -0.0758 -0.6137  0.2579
19231TIP3    H179108   3.505   6.640   4.044 -0.5964  0.7887 -1.3380
19231TIP3    H279109   3.641   6.583   4.012 -1.5172 -0.4479 -3.2263
19232TIP3   OH279110   3.652   1.911  14.569 -0.6365 -0.0630 -0.0431
19232TIP3    H179111   3.731   1.948  14.610 -0.9312  0.7686 -0.1972
19232TIP3    H279112   3.668   1.921  14.475 -0.6704 -0.4369 -0.0869
19233TIP3   OH279113   0.889   1.605  11.223  0.2054  0.2450  0.0732
19233TIP3    H179114   0.900   1.515  11.193 -0.2008 -0.5319  2.0970
19233TIP3    H279115   0.924   1.606  11.311  1.5749  2.4704 -0.4047
19234TIP3   OH279116   0.746   0.791   0.890  0.3584 -0.4734  0.1395
19234TIP3    H179117   0.728   0.731   0.962 -0.1235 -0.0689  0.3658
19234TIP3    H279118   0.720   0.877   0.923  0.4252 -0.2350 -0.4049
19235TIP3   OH279119   4.348   4.416   1.550  0.0721 -0.0929  0.0682
19235TIP3    H179120   4.371   4.350   1.615  0.8849 -0.5395 -0.6583
19235TIP3    H279121   4.430   4.437   1.506 -0.5195 -0.0888 -1.0809
19236TIP3   OH279122   6.382   4.224   4.337 -0.1877  0.2469 -0.3450
19236TIP3    H179123   6.392   4.317   4.357 -0.1914 -0.3888  3.3085
19236TIP3    H279124   6.449   4.180   4.390 -1.1980 -1.9106 -0.7213
19237TIP3   OH279125   4.807   2.036   0.002 -0.0714  0.0459 -1.0543
19237TIP3    H179126   4.780   1.990   0.081 -0.1467 -0.4483 -1.3672
19237TIP3    H279127   4.902   2.046   0.011 -0.0831  0.0036 -0.8945
19238TIP3   OH279128   0.565   2.177   4.809  0.1045 -0.1746 -0.1982
19238TIP3    H179129   0.649   2.132   4.811  1.1035  1.6261  0.7486
19238TIP3    H279130   0.534   2.175   4.899 -0.9967 -1.0056 -0.5773
19239TIP3   OH279131   6.643   2.119  13.059  0.3180  0.0991 -0.4120
19239TIP3    H179132   6.622   2.205  13.093  0.7928  0.5621 -1.2521
19239TIP3    H279133   6.707   2.083  13.121 -2.6334 -1.2824  2.1094
19240TIP3   OH279134   0.232   3.490   0.608  0.1555  0.2370  0.1369
19240TIP3    H179135   0.303   3.524   0.663 -0.9989 -0.5465  2.2433
19240TIP3    H279136   0.174   3.565   0.596  0.8341  0.6379 -0.8180
19241TIP3   OH279137   3.163   5.916  11.338  0.0260 -0.3292  0.1638
19241TIP3    H179138   3.188   5.971  11.264 -0.9893  0.8109  0.6396
19241TIP3    H279139   3.074   5.886  11.318 -0.8956  1.2884  1.5966
19242TIP3   OH279140   1.596   1.530   4.339 -0.0061 -0.4943  0.2866
19242TIP3    H179141   1.501   1.527   4.340  0.0139 -1.2513  0.4853
19242TIP3    H279142   1.618   1.547   4.247 -0.3206 -1.2786  0.0537
19243TIP3   OH279143   5.533   1.080  15.327 -0.0196  0.0946  0.4885
19243TIP3    H179144   5.617   1.094  15.370 -1.0903 -1.5905  3.3742
19243TIP3    H279145   5.469   1.125  15.383 -1.3178 -0.7770 -0.2419
19244TIP3   OH279146   3.741   4.751  12.361  0.2882 -0.4566 -0.4624
19244TIP3    H179147   3.760   4.688  12.291  0.7467 -0.1117 -0.6534
19244TIP3    H279148   3.786   4.716  12.438 -0.8278 -1.2267 -0.1399
19245TIP3   OH279149   1.177   4.227   1.608  0.5765 -0.0336 -0.5567
19245TIP3    H179150   1.168   4.314   1.649 -0.3775 -0.4048  0.0696
19245TIP3    H279151   1.188   4.245   1.515  0.4316  0.7654 -0.4256
19246TIP3   OH279152   6.242   3.484   4.674  0.2779 -0.3067  0.5825
19246TIP3    H179153   6.242   3.461   4.767  0.3707  1.1852  0.9883
19246TIP3    H279154   6.288   3.412   4.631  2.0504 -0.0990  1.9771
19247TIP3   OH279155   3.444   3.441  15.301 -0.3964  0.0295  0.1963
19247TIP3    H179156   3.528   3.486  15.297 -1.2588  1.6530 -2.4673
19247TIP3    H279157   3.379   3.511  15.298 -1.8752 -1.2435  0.7146
19248TIP3   OH279158   0.602   3.583   0.981  0.8792 -0.0585  0.1179
19248TIP3    H179159   0.686   3.564   1.024  0.9225  0.1769  0.1363
19248TIP3    H279160   0.579   3.671   1.010 -0.1945 -0.7316  1.4291
19249TIP3   OH279161   2.420   0.301   6.259  0.6881 -0.3430  0.3148
19249TIP3    H179162   2.460   0.317   6.174  2.0474 -1.0558  0.7938
19249TIP3    H279163   2.487   0.254   6.309 -0.3880 -0.6847  1.4945
19250TIP3   OH279164   5.297   3.558   2.869 -0.2843 -0.3672  0.0726
19250TIP3    H179165   5.338   3.641   2.896  0.2468 -0.0909 -1.4776
19250TIP3    H279166   5.203   3.575   2.876 -0.2648  1.0792 -1.9854
19251TIP3   OH279167   6.400   6.561  13.876 -0.2050 -0.3198  0.4337
19251TIP3    H179168   6.377   6.597  13.791 -0.2137 -0.9216  0.1773
19251TIP3    H279169   6.395   6.636  13.936  2.8471  0.8559 -0.5946
19252TIP3   OH279170   4.835   5.398  16.283  0.1757  0.0625  0.3096
19252TIP3    H179171   4.774   5.448  16.229  1.5869  0.3749 -1.0354
19252TIP3    H279172   4.810   5.420  16.373 -2.3385 -0.6208 -0.1467
19253TIP3   OH279173   3.535   5.016  14.473 -0.1391 -0.0866  0.2806
19253TIP3    H179174   3.519   5.032  14.380  1.0256  1.2408  0.2661
19253TIP3    H279175   3.631   5.014  14.480 -0.2198 -0.3830  1.4127
19254TIP3   OH279176   4.664   2.250  14.904  0.6922  0.0296 -0.3039
19254TIP3    H179177   4.590   2.305  14.879  0.1868 -0.8051 -0.7265
19254TIP3    H279178   4.629   2.160  14.899  1.8784 -0.4121 -1.0194
19255TIP3   OH279179   0.626   0.879   4.248 -0.4017 -0.5950 -0.7141
19255TIP3    H179180   0.713   0.884   4.209  0.2089  0.1027  0.6614
19255TIP3    H279181   0.600   0.787   4.240 -1.1330 -0.2066 -4.3821
19256TIP3   OH279182   3.412   6.560   5.734  0.4489 -0.0773 -0.4539
19256TIP3    H179183   3.504   6.565   5.709  1.1096 -2.1547  1.3545
19256TIP3    H279184   3.372   6.635   5.689  2.9731  0.8821 -1.3007
19257TIP3   OH279185   3.072   3.857  16.701  0.5448 -0.5583 -0.0124
19257TIP3    H179186   3.114   3.875  16.786 -0.8984 -1.9323  1.0499
19257TIP3    H279187   3.039   3.768  16.709 -1.6628  0.0891 -1.1612
19258TIP3   OH279188   1.781   5.647   0.738 -0.5125 -0.4907  0.4372
19258TIP3    H179189   1.807   5.716   0.798  1.2507 -2.3127  1.8961
19258TIP3    H279190   1.822   5.671   0.655 -0.8810  0.7586  0.5955
19259TIP3   OH279191   0.409   4.042  16.025  0.3830 -0.3635 -0.1553
19259TIP3    H179192   0.445   4.123  16.062  0.8072  0.5681 -2.4245
19259TIP3    H279193   0.345   4.013  16.090  3.1019 -0.5221  2.6902
19260TIP3   OH279194   4.051   5.599  16.095 -0.4308  0.3328  0.0071
19260TIP3    H179195   4.007   5.531  16.146 -0.6277  0.0863 -0.4922
19260TIP3    H279196   3.984   5.666  16.082  0.1856  1.3619  1.8302
19261TIP3   OH279197   0.455   6.234  13.252 -0.0146  0.2048 -0.4922
19261TIP3    H179198   0.524   6.292  13.219  0.7694  0.0255  0.7759
19261TIP3    H279199   0.479   6.147  13.219  1.4779 -0.2032  1.4853
19262TIP3   OH279200   5.637   2.675  12.492  0.3189  0.0559 -0.1845
19262TIP3    H179201   5.720   2.640  12.459  0.2806 -0.8710  0.6390
19262TIP3    H279202   5.622   2.627  12.574 -0.7190  0.6544 -0.0080
19263TIP3   OH279203   3.577   1.129  15.792  0.2723  0.2222  0.0987
19263TIP3    H179204   3.594   1.174  15.709 -1.6530 -0.4520 -0.7431
19263TIP3    H279205   3.495   1.168  15.824  0.3850 -0.3179  1.0856
19264TIP3   OH279206   4.829   2.576  10.875 -0.1151  0.1808  0.6715
19264TIP3    H179207   4.750   2.533  10.843 -0.3203  1.4459 -0.5981
19264TIP3    H279208   4.877   2.602  10.796  2.8918 -2.7439  1.3043
19265TIP3   OH279209   5.223   1.550  17.048 -0.7881 -0.0295 -0.2303
19265TIP3    H179210   5.197   1.462  17.073 -1.0542 -0.6226 -2.4649
19265TIP3    H279211   5.308   1.563  17.091 -1.5157 -0.6919  1.4860
19266TIP3   OH279212   3.305   1.224  15.535 -0.1478  0.5050 -0.3927
19266TIP3    H179213   3.271   1.233  15.446 -1.4604  0.9643  0.1386
19266TIP3    H279214   3.334   1.313  15.558 -0.2287  0.4834 -0.2035
19267TIP3   OH279215   0.132   6.045   0.911 -0.1606  0.0633 -0.9409
19267TIP3    H179216   0.172   5.983   0.850  2.1610 -3.4298  3.5055
19267TIP3    H279217   0.203   6.107   0.932  0.4722 -1.2076  0.9538
19268TIP3   OH279218   3.147   0.142   6.453  0.3034 -0.0307  0.9465
19268TIP3    H179219   3.242   0.143   6.445  0.1640  0.4900 -1.7381
19268TIP3    H279220   3.125   0.227   6.490  0.7956  1.1048 -1.2135
19269TIP3   OH279221   2.959   1.834   3.445  0.5452  0.0895  0.4136
19269TIP3    H179222   2.915   1.859   3.364  1.0324  0.3889  0.2383
19269TIP3    H279223   2.928   1.897   3.510 -1.2413 -1.2034  0.9241
19270TIP3   OH279224   3.325   1.592   5.076 -0.5101 -0.0256 -0.6507
19270TIP3    H179225   3.400   1.562   5.025 -1.5609  0.1725 -2.3795
19270TIP3    H279226   3.360   1.660   5.133  0.9423 -1.1369 -0.1601
19271TIP3   OH279227   0.603   1.752  17.044  0.2416 -0.4682 -0.4665
19271TIP3    H179228   0.544   1.708  16.983 -0.8232 -0.4971  0.5447
19271TIP3    H279229   0.657   1.809  16.989 -2.6455  1.7852 -1.2322
19272TIP3   OH279230   0.755   3.516  16.537  0.9456  0.1234 -0.4644
19272TIP3    H179231   0.772   3.537  16.446  0.7459  0.3045 -0.4585
19272TIP3    H279232   0.678   3.568  16.561  0.7910 -0.1812 -0.2908
19273TIP3   OH279233   1.266   5.389   5.855  0.2869  0.3380 -0.1152
19273TIP3    H179234   1.295   5.472   5.818  1.8811  0.1227  0.5857
19273TIP3    H279235   1.314   5.381   5.937 -0.2665 -1.0149  0.1017
19274TIP3   OH279236   3.819   5.558   3.949  0.3503  0.1741  0.2997
19274TIP3    H179237   3.781   5.645   3.962  0.7928  0.0994  2.3633
19274TIP3    H279238   3.781   5.527   3.866 -2.0968  1.1012  1.0045
19275TIP3   OH279239   3.324   0.521  13.440  0.4776 -0.4343 -0.0177
19275TIP3    H179240   3.302   0.601  13.488  0.9875  0.7069 -1.6125
19275TIP3    H279241   3.389   0.549  13.376  1.9721 -2.5027  0.5175
19276TIP3   OH279242   3.667   3.094  12.717 -0.3205 -0.0607  0.6342
19276TIP3    H179243   3.588   3.046  12.741  0.2575 -0.6141  1.5147
19276TIP3    H279244   3.729   3.075  12.788 -0.2995  2.5972  1.4479
19277TIP3   OH279245   6.031   0.400   1.376  0.2175  0.0755 -0.5678
19277TIP3    H179246   6.037   0.309   1.348 -0.7598  0.0312 -0.6658
19277TIP3    H279247   6.041   0.396   1.471  1.6505  0.0311 -0.7079
19278TIP3   OH279248   6.304   0.066   6.470 -0.0239  0.2782 -0.6431
19278TIP3    H179249   6.391   0.037   6.496  0.4326  0.5509 -1.7924
19278TIP3    H279250   6.302   0.160   6.491 -0.3987  0.0740  0.2691
19279TIP3   OH279251   6.631   3.779   1.016  0.1629 -0.2096 -0.1305
19279TIP3    H179252   6.721   3.814   1.016 -0.0293  0.2896  0.0352
19279TIP3    H279253   6.575   3.857   1.016 -0.2775 -0.5192 -0.8403
19280TIP3   OH279254   4.975   5.812  15.320  0.2048 -0.1606 -0.4220
19280TIP3    H179255   4.991   5.836  15.228  3.5255 -0.1815  0.0225
19280TIP3    H279256   5.015   5.883  15.370  1.4225 -1.7567  0.9609
19281TIP3   OH279257   6.738   4.372  17.133 -0.1415 -0.1288  0.6825
19281TIP3    H179258   6.795   4.346  17.205 -0.2831  0.5694  1.0463
19281TIP3    H279259   6.657   4.322  17.147  0.5991 -1.7008 -0.2477
19282TIP3   OH279260   2.261   4.507   2.330  0.3685 -0.0509  0.2963
19282TIP3    H179261   2.340   4.534   2.285  0.2858 -1.3055 -0.6330
19282TIP3    H279262   2.192   4.565   2.295  0.3035 -1.0043 -1.2174
19283TIP3   OH279263   5.983   5.690   3.389  0.1590  0.1799 -0.6530
19283TIP3    H179264   6.029   5.647   3.462  0.0748 -1.6380 -1.6006
19283TIP3    H279265   6.004   5.783   3.399  0.6396 -0.0906  1.3266
19284TIP3   OH279266   3.957   3.792  16.860  0.0352 -0.0804 -0.4597
19284TIP3    H179267   4.011   3.868  16.840  0.5431 -0.2658  0.1972
19284TIP3    H279268   3.889   3.793  16.792  1.1383 -0.1326 -1.5916
19285TIP3   OH279269   0.996   4.332   0.981  0.8038 -0.3087 -0.5153
19285TIP3    H179270   0.915   4.293   1.016  0.7063 -0.3778 -0.8157
19285TIP3    H279271   1.040   4.259   0.937  1.8995 -0.7130  1.1436
19286TIP3   OH279272   2.643   5.844  12.523 -0.0392 -0.6330 -0.0114
19286TIP3    H179273   2.639   5.875  12.433 -1.5948 -0.6274  0.0246
19286TIP3    H279274   2.552   5.845  12.552  0.6688  1.9759  2.4786
19287TIP3   OH279275   6.425   5.520  10.975 -0.1826 -0.2816  0.5165
19287TIP3    H179276   6.431   5.595  10.916 -0.9656 -0.0886  0.6731
19287TIP3    H279277   6.498   5.463  10.949  0.0366  0.2354 -0.0186
19288TIP3   OH279278   1.886   1.095  14.510  0.1018  0.2221  0.2620
19288TIP3    H179279   1.806   1.043  14.512  0.9337 -1.1231 -0.2771
19288TIP3    H279280   1.922   1.081  14.422  0.9886  0.7101  0.5371
19289TIP3   OH279281   5.495   0.964   2.142 -0.0525 -1.0209  0.0774
19289TIP3    H179282   5.524   0.974   2.233  0.3175  4.0679 -0.2894
19289TIP3    H279283   5.574   0.941   2.094  0.0133 -2.4628  0.8254
19290TIP3   OH279284   6.743   4.818  12.691  0.4593  0.3537 -0.0174
19290TIP3    H179285   6.688   4.881  12.643 -0.6826 -1.8486 -1.7734
19290TIP3    H279286   6.830   4.857  12.690 -0.6584  3.1964  1.4290
19291TIP3   OH279287   2.549   6.469   0.517  0.3102 -0.2181  0.2068
19291TIP3    H179288   2.550   6.520   0.436 -1.0284  0.8518  0.8150
19291TIP3    H279289   2.466   6.420   0.512  0.5240 -0.6243  0.6434
19292TIP3   OH279290   1.150   3.917  15.217 -0.8322  0.2624  0.1251
19292TIP3    H179291   1.158   3.859  15.141  0.4147  0.3484  0.1735
19292TIP3    H279292   1.058   3.944  15.217 -1.3232 -1.2994 -0.2036
19293TIP3   OH279293   6.285   1.225  14.864  0.0748 -0.2227  0.1513
19293TIP3    H179294   6.273   1.307  14.911 -0.9143 -0.8183  0.9940
19293TIP3    H279295   6.266   1.157  14.929  0.4636 -1.1176 -0.6346
19294TIP3   OH279296   1.287   5.734   0.904 -0.0145 -0.0908  0.3640
19294TIP3    H179297   1.211   5.699   0.950 -1.4781  0.8136 -1.2243
19294TIP3    H279298   1.351   5.662   0.904 -0.4417 -0.5336  2.5752
19295TIP3   OH279299   6.217   2.835  14.119 -0.1594  0.1749  0.1952
19295TIP3    H179300   6.295   2.828  14.064  1.7036  1.9106  2.4051
19295TIP3    H279301   6.221   2.758  14.176 -0.6562 -0.2819 -0.3824
19296TIP3   OH279302   2.131   5.621  12.823  0.4378  0.2266 -0.2315
19296TIP3    H179303   2.044   5.625  12.784  0.5915 -1.0435 -0.7592
19296TIP3    H279304   2.161   5.532  12.805  1.3791  0.2799  0.9541
19297TIP3   OH279305   2.188   6.497   2.915  0.2665 -0.1400 -0.0150
19297TIP3    H179306   2.124   6.464   2.853  0.2621  0.3209 -0.2644
19297TIP3    H279307   2.203   6.588   2.888  2.1236 -0.6652 -0.8896
19298TIP3   OH279308   6.099   1.944   0.375 -0.2830  0.3843 -0.0399
19298TIP3    H179309   6.091   1.853   0.404  2.4955 -0.8060 -2.5790
19298TIP3    H279310   6.185   1.972   0.406 -0.4338  1.6196 -0.6537
19299TIP3   OH279311   4.837   2.752  11.898 -0.0445  0.1497 -0.1191
19299TIP3    H179312   4.892   2.675  11.914  0.4015 -0.1485 -2.7015
19299TIP3    H279313   4.896   2.816  11.858 -1.4855 -0.1882 -3.0044
19300TIP3   OH279314   5.198   4.238   1.644 -0.2626  0.0165  0.6433
19300TIP3    H179315   5.115   4.217   1.687 -0.9756  2.5385  0.6289
19300TIP3    H279316   5.261   4.246   1.716 -0.7726  1.2271  0.9786
19301TIP3   OH279317   3.091   4.969  10.773 -0.2139  0.3983  0.6609
19301TIP3    H179318   3.073   5.020  10.694 -0.2133 -0.1158  0.3214
19301TIP3    H279319   3.153   5.023  10.822  1.5120 -0.2232 -0.7310
19302TIP3   OH279320   0.622   1.560   1.061 -0.4748 -0.0123  0.4833
19302TIP3    H179321   0.701   1.511   1.037 -0.0890  1.0076 -0.4079
19302TIP3    H279322   0.593   1.520   1.143  1.0991 -0.2741  0.9450
19303TIP3   OH279323   0.063   1.908  14.228 -0.4777 -0.0499  0.2183
19303TIP3    H179324   0.135   1.864  14.182 -1.0320 -2.1946  1.3229
19303TIP3    H279325   0.102   1.939  14.310 -0.1245  1.5092 -0.4923
19304TIP3   OH279326   5.817   0.187   5.029  0.4315 -0.0256 -0.7840
19304TIP3    H179327   5.776   0.124   4.969  1.0293  0.1023 -1.3393
19304TIP3    H279328   5.836   0.136   5.108 -0.2852 -0.2177 -0.7250
19305TIP3   OH279329   2.124   1.912   3.113  0.2304  0.3289  0.0958
19305TIP3    H179330   2.039   1.940   3.147  0.0065  0.7385 -0.7578
19305TIP3    H279331   2.131   1.820   3.135 -0.2685  0.3926  0.5157
19306TIP3   OH279332   5.565   2.167  11.643  0.2027  0.4660  0.0870
19306TIP3    H179333   5.552   2.126  11.728 -2.2788 -0.3307 -0.5917
19306TIP3    H279334   5.484   2.214  11.626  0.8619  1.0853 -1.6002
19307TIP3   OH279335   3.358   0.777   2.606 -0.0451  0.2403  0.3024
19307TIP3    H179336   3.433   0.821   2.565  0.7522  0.1331  1.5797
19307TIP3    H279337   3.339   0.831   2.684 -0.3259 -0.5809  0.8109
19308TIP3   OH279338   2.961   4.021   4.872 -0.3595 -0.7823 -0.4784
19308TIP3    H179339   2.953   4.111   4.842  1.0824 -0.4999 -0.0866
19308TIP3    H279340   3.040   3.988   4.829  0.1655 -1.2564  0.7832
19309TIP3   OH279341   2.416   2.393   1.017 -0.3026 -0.1568  0.5475
19309TIP3    H179342   2.468   2.357   0.945  0.8377 -1.1220  1.8218
19309TIP3    H279343   2.353   2.451   0.973  0.3336 -0.7291 -1.2246
19310TIP3   OH279344   5.547   5.481  11.389  0.0787 -0.4047  0.1107
19310TIP3    H179345   5.567   5.410  11.449 -1.0714 -0.1764  0.7927
19310TIP3    H279346   5.584   5.559  11.431 -0.6184 -0.2643  0.4794
19311TIP3   OH279347   4.026   6.007  14.517  0.2227 -0.3590  0.1232
19311TIP3    H179348   4.111   6.020  14.558  0.2335  0.4410 -0.1405
19311TIP3    H279349   4.019   5.912  14.505  2.9308 -0.3032 -3.7414
19312TIP3   OH279350   1.608   6.045   3.666  0.1494 -0.4456  0.2076
19312TIP3    H179351   1.617   6.136   3.637  0.3856 -0.8029 -0.9032
19312TIP3    H279352   1.608   6.050   3.761  0.2034  0.7160  0.1627
19313TIP3   OH279353   2.511   5.307  13.379  0.1296  0.7259  0.5877
19313TIP3    H179354   2.417   5.303  13.364  0.3452  0.6084 -0.8913
19313TIP3    H279355   2.537   5.217  13.396  0.1850  0.5378 -0.4655
19314TIP3   OH279356   1.419   3.306  14.020 -0.2558 -0.3062 -0.5259
19314TIP3    H179357   1.462   3.246  14.081 -0.0895 -0.1294 -0.4678
19314TIP3    H279358   1.489   3.335  13.961 -0.0759  0.7617  0.1854
19315TIP3   OH279359   3.641   2.329  15.349 -0.4607 -0.6713  0.1507
19315TIP3    H179360   3.624   2.309  15.256  1.3616  1.1437 -0.6370
19315TIP3    H279361   3.574   2.393  15.372  1.7375  2.4561 -1.3983
19316TIP3   OH279362   3.675   1.940  12.060 -0.2833  0.3737 -0.8872
19316TIP3    H179363   3.683   2.028  12.021 -1.0779  1.0425  0.3789
19316TIP3    H279364   3.747   1.934  12.122 -1.6933  1.2216  0.9447
19317TIP3   OH279365   0.963   5.082  13.703  0.2057  0.3211  0.0564
19317TIP3    H179366   0.944   5.165  13.658 -2.6613 -0.8912 -1.2407
19317TIP3    H279367   0.906   5.083  13.780  1.2923  0.1765  0.8807
19318TIP3   OH279368   2.628   6.576  13.794  0.0577 -0.0191 -0.1211
19318TIP3    H179369   2.675   6.659  13.788 -0.6779  0.3709 -0.6434
19318TIP3    H279370   2.692   6.510  13.768  0.8912  0.2860  1.0761
19319TIP3   OH279371   0.216   1.662  14.048  0.4214 -0.6861 -0.1703
19319TIP3    H179372   0.150   1.704  13.994 -0.5704 -1.7312  0.1872
19319TIP3    H279373   0.259   1.599  13.990  0.3474 -0.7846 -0.1183
19320TIP3   OH279374   4.581   2.839   4.850  0.2588 -0.0782 -0.3475
19320TIP3    H179375   4.498   2.871   4.816 -0.3064 -1.3103 -0.1844
19320TIP3    H279376   4.648   2.885   4.799 -0.5262  0.4142 -0.9464
19321TIP3   OH279377   5.747   4.529  13.192 -0.2818  0.3014  0.1291
19321TIP3    H179378   5.668   4.561  13.148  0.3829  0.2743 -1.1342
19321TIP3    H279379   5.792   4.608  13.221 -0.0934  0.3763 -0.3696
19322TIP3   OH279380   6.740   3.716   5.034  0.6526  0.0381  0.1477
19322TIP3    H179381   6.749   3.622   5.016  0.3499  0.0999 -0.3565
19322TIP3    H279382   6.765   3.726   5.126 -0.2938 -0.6974  0.5086
19323TIP3   OH279383   5.166   0.199  15.165  0.8221 -0.4809  0.0539
19323TIP3    H179384   5.226   0.222  15.094  0.1284 -2.5933 -1.3201
19323TIP3    H279385   5.223   0.179  15.239  1.5555  1.9477  0.2278
19324TIP3   OH279386   3.962   5.374  10.681  0.0927  0.2504 -0.5237
19324TIP3    H179387   4.037   5.337  10.727 -0.4303 -2.3556 -1.5618
19324TIP3    H279388   3.917   5.298  10.644 -3.7722  1.5261  1.0286
19325TIP3   OH279389   0.495   3.868  14.540  1.2536 -0.3412  0.3230
19325TIP3    H179390   0.421   3.928  14.546 -0.4856 -2.2464 -0.8142
19325TIP3    H279391   0.541   3.878  14.624  0.1467  1.3906  0.7742
19326TIP3   OH279392   5.018   6.694   1.106  0.2442  0.4823 -0.0869
19326TIP3    H179393   5.000   6.766   1.046  0.5442 -0.2368 -1.0510
19326TIP3    H279394   5.113   6.685   1.105  0.2882  0.6956  0.7859
19327TIP3   OH279395   1.330   6.073   3.656  0.8232  0.3053 -0.2561
19327TIP3    H179396   1.297   5.994   3.699 -0.1831  1.3661  0.9654
19327TIP3    H279397   1.412   6.044   3.615  0.1403 -1.5349 -0.4323
19328TIP3   OH279398   6.578   4.762  11.748  0.0542 -0.1130  0.4239
19328TIP3    H179399   6.579   4.688  11.688  0.7689 -1.2508  1.7698
19328TIP3    H279400   6.519   4.825  11.708  0.8378 -0.6303 -1.6626
19329TIP3   OH279401   5.641   5.437   4.098  0.3426  0.5715  0.5218
19329TIP3    H179402   5.598   5.423   4.014  1.1143 -0.7230  0.3128
19329TIP3    H279403   5.581   5.399   4.162  1.5513 -2.2378  0.1323
19330TIP3   OH279404   6.139   6.439   5.659  0.5905  0.4195  0.2264
19330TIP3    H179405   6.226   6.454   5.621  0.5373 -0.6790 -0.3727
19330TIP3    H279406   6.157   6.419   5.751  0.9984 -0.0404  0.0527
19331TIP3   OH279407   2.466   3.483  14.620 -0.3075 -0.3509 -0.1434
19331TIP3    H179408   2.433   3.397  14.645 -0.3064 -0.8140 -1.6340
19331TIP3    H279409   2.388   3.539  14.618 -0.3410 -0.3675  0.6201
19332TIP3   OH279410   6.743   3.466  16.398 -1.0876  0.3704  0.1448
19332TIP3    H179411   6.729   3.397  16.333 -1.5729 -0.5394  1.1943
19332TIP3    H279412   6.812   3.431  16.455 -1.6997  0.5160  0.9883
19333TIP3   OH279413   3.914   3.127  15.451  0.2453  0.6853 -0.0055
19333TIP3    H179414   4.001   3.101  15.481  0.3734  1.7476  0.6032
19333TIP3    H279415   3.907   3.220  15.475 -1.7257  0.2146  1.5667
19334TIP3   OH279416   5.336   3.799  11.107 -1.0297  0.0047 -0.7858
19334TIP3    H179417   5.402   3.748  11.154 -0.1613  0.7746 -1.1409
19334TIP3    H279418   5.341   3.886  11.146 -2.5911 -0.1817 -0.0899
19335TIP3   OH279419   1.248   6.784   4.135 -0.3487  0.9163 -0.1315
19335TIP3    H179420   1.283   6.729   4.066  2.6545  0.2551  1.7252
19335TIP3    H279421   1.266   6.874   4.105 -1.5255  0.7864 -1.3267
19336TIP3   OH279422   6.357   2.582   4.053  0.3061  0.6020  0.1671
19336TIP3    H179423   6.284   2.606   4.110 -0.9811 -1.3257 -0.5591
19336TIP3    H279424   6.419   2.654   4.062 -2.0474  2.7663  0.1392
19337TIP3   OH279425   6.331   1.709   4.031 -0.3820 -0.1644  0.1786
19337TIP3    H179426   6.398   1.714   3.962  0.0114 -1.5845  0.4093
19337TIP3    H279427   6.296   1.797   4.037  2.4421  0.9973  1.0001
19338TIP3   OH279428   2.635   5.325  11.798  0.3132  0.1424 -0.0530
19338TIP3    H179429   2.686   5.274  11.861 -0.1197  0.0478  0.2199
19338TIP3    H279430   2.566   5.266  11.768  0.4099  0.2432 -0.4899
19339TIP3   OH279431   0.071   6.575  11.532 -0.2514  0.2194  0.2540
19339TIP3    H179432   0.142   6.633  11.559  1.4638 -0.7204 -1.9001
19339TIP3    H279433   0.009   6.632  11.486  1.0967  0.5281 -1.2809
19340TIP3   OH279434   6.796   2.348   4.026  0.3789  0.4490 -0.4506
19340TIP3    H179435   6.869   2.293   4.054 -1.2993 -1.5446  0.2055
19340TIP3    H279436   6.784   2.326   3.933 -0.6241 -0.7403 -0.0582
19341TIP3   OH279437   3.657   0.917  16.468 -0.3621  0.3922  0.3680
19341TIP3    H179438   3.640   0.967  16.548  2.5117 -0.4204  1.6349
19341TIP3    H279439   3.602   0.840  16.475 -0.8481  0.7913  1.0857
19342TIP3   OH279440   1.195   5.266  14.317  0.2420 -0.3101 -0.0233
19342TIP3    H179441   1.163   5.315  14.392 -0.7569 -1.9859  0.6944
19342TIP3    H279442   1.117   5.247  14.265  0.4360 -1.9411  0.2270
19343TIP3   OH279443   3.973   2.390  12.687 -0.3347 -0.7447 -0.1356
19343TIP3    H179444   4.012   2.402  12.600  0.1919  1.0374  0.3077
19343TIP3    H279445   3.979   2.476  12.728 -1.5544 -1.3003  1.2841
19344TIP3   OH279446   4.007   3.512  15.044 -1.2507  0.3230 -0.2517
19344TIP3    H179447   4.050   3.462  15.114  1.8351 -1.1412 -2.9488
19344TIP3    H279448   3.934   3.456  15.017  0.3564 -1.4649 -1.2028
19345TIP3   OH279449   3.643   4.086  13.602 -0.5547  0.6929  0.3116
19345TIP3    H179450   3.646   4.019  13.670  2.8445  0.3749 -0.0087
19345TIP3    H279451   3.690   4.048  13.528 -1.6780  2.1099 -1.2156
19346TIP3   OH279452   5.300   0.678   3.151  0.3454 -0.1009  0.3695
19346TIP3    H179453   5.245   0.635   3.216  1.1874 -2.3599 -0.2951
19346TIP3    H279454   5.313   0.611   3.083  2.8209  0.7534 -0.1061
19347TIP3   OH279455   3.711   3.336   2.883 -0.7108 -0.1188 -0.8396
19347TIP3    H179456   3.685   3.404   2.821 -1.3642 -0.2720 -0.7360
19347TIP3    H279457   3.783   3.291   2.839  0.3027  1.1617 -0.5551
19348TIP3   OH279458   1.503   1.498  14.641 -0.2347 -0.2917  0.1909
19348TIP3    H179459   1.485   1.585  14.676  0.6868  0.8334 -1.9779
19348TIP3    H279460   1.546   1.452  14.713  2.1569  2.1003  0.4365
19349TIP3   OH279461   4.816   1.413   3.444  0.2351 -0.4110 -0.0331
19349TIP3    H179462   4.763   1.382   3.370  1.2990  0.6316 -1.2863
19349TIP3    H279463   4.753   1.450   3.505 -0.5892 -0.1867 -0.9920
19350TIP3   OH279464   4.746   6.474  13.618  0.0352  0.3835  1.0226
19350TIP3    H179465   4.734   6.404  13.555  0.8589 -1.1900  2.5295
19350TIP3    H279466   4.789   6.544  13.569  2.4144 -1.5024  0.2404
19351TIP3   OH279467   0.102   3.671  15.923 -0.0903 -0.7902  0.6765
19351TIP3    H179468   0.113   3.764  15.944  0.6973 -0.9835  1.1589
19351TIP3    H279469   0.020   3.646  15.966 -1.5073  0.1949 -1.2842
19352TIP3   OH279470   0.534   0.492   4.794 -0.1543 -0.1966 -0.0416
19352TIP3    H179471   0.451   0.540   4.800 -0.0597  0.1405 -1.2415
19352TIP3    H279472   0.511   0.411   4.748 -0.1047 -0.8372  1.0263
19353TIP3   OH279473   2.757   1.639  12.310 -0.6069 -0.1307  0.2786
19353TIP3    H179474   2.684   1.640  12.249  1.2999  0.9206 -2.1670
19353TIP3    H279475   2.742   1.562  12.364 -2.8677 -0.6076 -0.9050
19354TIP3   OH279476   1.255   2.503  14.284 -0.5490  0.0435  0.1322
19354TIP3    H179477   1.273   2.456  14.202  1.8125 -0.9797  1.1187
19354TIP3    H279478   1.244   2.434  14.349 -0.3335  0.8293  1.0298
19355TIP3   OH279479   6.481   2.380  10.484 -0.6495 -0.2574 -0.0799
19355TIP3    H179480   6.565   2.373  10.437 -0.2173  0.1068  0.6149
19355TIP3    H279481   6.465   2.474  10.489 -1.1668 -0.3311 -0.3059
19356TIP3   OH279482   0.543   2.598  12.611  0.6316  0.5178 -0.8136
19356TIP3    H179483   0.639   2.603  12.620  0.4140  1.6001  1.7855
19356TIP3    H279484   0.510   2.640  12.690 -2.0202 -0.5776 -1.2562
19357TIP3   OH279485   1.087   1.683  13.437 -0.7636 -0.9964  0.3156
19357TIP3    H179486   1.178   1.678  13.409 -0.6049 -2.3623  0.9945
19357TIP3    H279487   1.057   1.768  13.405  0.3995 -1.0096 -0.9116
19358TIP3   OH279488   5.519   2.743   5.215 -0.1597  0.5077 -0.3778
19358TIP3    H179489   5.603   2.790   5.211 -0.0200  0.2372 -0.7003
19358TIP3    H279490   5.541   2.653   5.190 -0.2229 -0.0225  1.3511
19359TIP3   OH279491   5.794   2.512  11.856 -0.9576 -0.2744 -0.1392
19359TIP3    H179492   5.788   2.436  11.797 -3.4755 -1.9106  1.9367
19359TIP3    H279493   5.784   2.474  11.943  2.2231  2.0705  1.4086
19360TIP3   OH279494   2.657   6.046   6.013  0.2518  0.4259  0.3415
19360TIP3    H179495   2.697   6.114   6.068  1.3039 -0.8487  1.1990
19360TIP3    H279496   2.563   6.056   6.028  0.3445  1.9140  0.1572
19361TIP3   OH279497   1.799   4.125  11.400  0.4982 -0.6542 -0.9374
19361TIP3    H179498   1.867   4.095  11.460 -1.6601 -1.5036  1.2406
19361TIP3    H279499   1.721   4.074  11.423 -0.5939 -0.7198 -4.2360
19362TIP3   OH279500   0.809   6.728   1.693  0.8646 -0.3292 -0.6607
19362TIP3    H179501   0.870   6.659   1.719  1.2198  0.0569 -0.4401
19362TIP3    H279502   0.753   6.742   1.769  0.5107 -0.6717 -0.8573
19363TIP3   OH279503   3.830   0.354   4.152 -0.1053 -0.3522  0.3570
19363TIP3    H179504   3.828   0.259   4.141 -1.2683 -0.1776 -1.3142
19363TIP3    H279505   3.738   0.380   4.152  0.2126  0.9150 -0.9359
19364TIP3   OH279506   5.086   1.493   5.222  0.1550 -0.2098 -0.3616
19364TIP3    H179507   5.019   1.441   5.266 -0.6991  0.1902 -1.1540
19364TIP3    H279508   5.047   1.581   5.216  1.4862  0.5078  0.7965
19365TIP3   OH279509   4.254   0.139   2.381 -0.0424  0.6839 -0.2087
19365TIP3    H179510   4.322   0.167   2.442 -0.2505  0.9276 -0.0885
19365TIP3    H279511   4.174   0.136   2.433  0.1357 -1.0457  0.0206
19366TIP3   OH279512   1.637   1.793   0.445 -0.5933 -0.5380 -0.0141
19366TIP3    H179513   1.680   1.789   0.531  2.5735  0.3552 -1.3990
19366TIP3    H279514   1.589   1.875   0.446 -1.4136 -1.0061  1.2039
19367TIP3   OH279515   1.903   4.360   2.419  0.2300 -0.6183  0.4732
19367TIP3    H179516   1.983   4.391   2.463  0.3405  0.1760 -0.2698
19367TIP3    H279517   1.833   4.379   2.481  0.1277  2.2836 -0.3864
19368TIP3   OH279518   5.349   4.178  14.657  0.2457  0.1242 -0.7783
19368TIP3    H179519   5.396   4.103  14.693 -0.2296 -0.4292 -1.2972
19368TIP3    H279520   5.260   4.168  14.690  0.4328  1.0765  0.0598
19369TIP3   OH279521   1.205   2.215  13.905 -0.2271 -0.0320  0.1573
19369TIP3    H179522   1.234   2.209  13.814 -0.9712  0.3401 -0.1101
19369TIP3    H279523   1.146   2.291  13.907 -2.0402 -1.3825  0.4444
19370TIP3   OH279524   2.330   3.205   3.928 -0.2544  0.1572 -0.1009
19370TIP3    H179525   2.421   3.182   3.945  0.0686  1.2098 -0.3152
19370TIP3    H279526   2.308   3.268   3.996 -0.0276  1.7661 -1.4402
19371TIP3   OH279527   5.673   0.816  16.598 -0.3185 -0.2671  0.4961
19371TIP3    H179528   5.646   0.724  16.604  0.4030 -0.4563  1.0366
19371TIP3    H279529   5.755   0.815  16.548 -2.0429  0.4729 -2.5517
19372TIP3   OH279530   5.166   0.685   1.480 -0.3726  0.1949 -0.5845
19372TIP3    H179531   5.225   0.757   1.462 -1.1894  0.8869 -0.5651
19372TIP3    H279532   5.171   0.673   1.575  1.0865 -0.9619 -0.7681
19373TIP3   OH279533   0.928   5.596   2.609 -0.0337  0.0300 -0.1663
19373TIP3    H179534   1.022   5.588   2.596  0.4029  1.3794  1.7217
19373TIP3    H279535   0.890   5.526   2.557  2.0242 -0.6652 -0.8014
19374TIP3   OH279536   3.481   6.278   1.238 -0.3809  0.5460  0.2544
19374TIP3    H179537   3.493   6.254   1.330  1.8796 -0.9177 -0.3386
19374TIP3    H279538   3.471   6.373   1.240 -1.7589  0.4287  2.0887
19375TIP3   OH279539   2.361   6.298  15.240 -0.0377 -0.0386  0.1888
19375TIP3    H179540   2.337   6.318  15.150  0.1701 -3.6970 -0.8311
19375TIP3    H279541   2.457   6.305  15.241  0.1322 -1.7588 -0.4664
19376TIP3   OH279542   6.635   1.758  14.105  0.0830  0.1129  0.0927
19376TIP3    H179543   6.561   1.785  14.159 -0.9588  0.6803 -1.5274
19376TIP3    H279544   6.712   1.785  14.154 -0.8524  2.7805  0.2285
19377TIP3   OH279545   1.298   6.084   1.482 -0.3002  0.0933 -0.4210
19377TIP3    H179546   1.353   6.012   1.512 -0.4968 -0.2517 -0.8786
19377TIP3    H279547   1.209   6.050   1.487 -0.5482  0.8638  0.9341
19378TIP3   OH279548   1.133   4.848  15.364  0.9478 -0.2136  0.3870
19378TIP3    H179549   1.063   4.799  15.405 -1.0403  1.6945 -0.5217
19378TIP3    H279550   1.158   4.914  15.429 -0.7100  1.4300 -0.5528
19379TIP3   OH279551   5.405   3.075  12.392 -0.1694 -0.6335  0.4690
19379TIP3    H179552   5.368   3.112  12.472  0.9687 -1.4564  1.4070
19379TIP3    H279553   5.456   3.000  12.421  1.5309 -0.0538 -0.8594
19380TIP3   OH279554   0.351   0.917   3.769  0.3178 -0.1521 -0.7145
19380TIP3    H179555   0.256   0.911   3.761  0.1581  1.7212 -0.6749
19380TIP3    H279556   0.366   0.940   3.860  0.8663 -1.1298 -0.5492
19381TIP3   OH279557   5.232   1.910   5.652  0.3053 -0.2899 -0.2433
19381TIP3    H179558   5.305   1.895   5.711 -0.9144 -1.1916  1.1049
19381TIP3    H279559   5.154   1.900   5.707 -0.8820  3.5693 -0.8744
19382TIP3   OH279560   1.473   0.967  16.355  0.0104 -0.5336 -0.5186
19382TIP3    H179561   1.540   0.969  16.423 -0.4790 -0.2704 -0.0327
19382TIP3    H279562   1.521   0.983  16.273  0.5063 -0.0948 -0.1503
19383TIP3   OH279563   4.114   0.359   0.534 -0.0721 -0.3659 -0.5249
19383TIP3    H179564   4.032   0.351   0.485 -0.0746 -0.2074 -0.5485
19383TIP3    H279565   4.101   0.306   0.612 -0.4836  0.2758 -0.1481
19384TIP3   OH279566   6.418   0.230  15.163 -0.1453  0.5185 -0.4055
19384TIP3    H179567   6.336   0.278  15.171 -0.4515 -0.0428 -0.2020
19384TIP3    H279568   6.431   0.220  15.069  1.1423  3.0877 -0.6099
19385TIP3   OH279569   3.194   3.544   2.412 -0.7945 -0.8743  0.0477
19385TIP3    H179570   3.142   3.616   2.446 -0.9563 -1.0261  0.1198
19385TIP3    H279571   3.272   3.542   2.467 -0.2274 -0.0007 -0.6897
19386TIP3   OH279572   3.906   0.450   3.245  0.1550  0.4890  0.5581
19386TIP3    H179573   3.866   0.523   3.294  1.7153  1.0336  1.0670
19386TIP3    H279574   3.836   0.385   3.239 -1.1609  1.8645  0.4204
19387TIP3   OH279575   2.314   0.772   0.124 -0.3786  0.4647  0.6358
19387TIP3    H179576   2.230   0.802   0.159 -1.1472 -2.6297  1.7001
19387TIP3    H279577   2.378   0.795   0.191 -0.4069  2.1659  0.1444
19388TIP3   OH279578   5.733   1.418   6.775 -0.0381  0.0451  0.4323
19388TIP3    H179579   5.779   1.497   6.805  0.8709  0.1906 -1.2058
19388TIP3    H279580   5.726   1.430   6.680 -1.3876 -1.0951  0.3664
19389TIP3   OH279581   4.274   4.478   6.472 -0.2177  0.2938  0.2620
19389TIP3    H179582   4.322   4.559   6.457  0.5976 -0.2802 -0.2771
19389TIP3    H279583   4.192   4.506   6.514 -0.1363  1.4264 -0.3067
19390TIP3   OH279584   1.191   5.643  16.827 -0.4246  0.0497 -0.1300
19390TIP3    H179585   1.232   5.693  16.756  0.7371 -0.4030  0.2109
19390TIP3    H279586   1.097   5.654  16.811 -0.1930  0.9410 -1.0414
19391TIP3   OH279587   3.881   1.899   3.635 -0.0948  0.4368 -0.1507
19391TIP3    H179588   3.805   1.842   3.651 -0.0154  0.9171  2.4692
19391TIP3    H279589   3.945   1.873   3.701  1.6348  0.7851 -1.6061
19392TIP3   OH279590   2.258   1.382   6.533 -0.1228  0.0828 -0.1824
19392TIP3    H179591   2.316   1.438   6.584 -0.7599  0.6918 -0.1104
19392TIP3    H279592   2.265   1.296   6.575  0.0836  0.3511  0.3495
19393TIP3   OH279593   6.284   3.285   2.299 -0.3160  0.1068 -0.2354
19393TIP3    H179594   6.270   3.360   2.357  2.0938  1.4507 -1.2136
19393TIP3    H279595   6.351   3.233   2.343  0.1792  0.1459 -0.9193
19394TIP3   OH279596   3.001   5.255   3.499  0.2050  0.0510  0.1880
19394TIP3    H179597   3.058   5.292   3.566  0.1108  1.5908 -0.5233
19394TIP3    H279598   2.924   5.312   3.499 -1.0087 -1.5354  0.6006
19395TIP3   OH279599   2.702   6.395  14.011 -0.4649  0.0170  0.1863
19395TIP3    H179600   2.670   6.418  14.098  0.2380  3.2124 -0.2659
19395TIP3    H279601   2.789   6.359  14.025 -0.8008 -0.5430  0.8622
19396TIP3   OH279602   3.932   1.249   0.281  0.2166 -0.4899 -0.1675
19396TIP3    H179603   4.005   1.230   0.222 -0.7667 -0.1812 -1.5338
19396TIP3    H279604   3.964   1.225   0.368  1.2824 -2.1425 -0.9754
19397TIP3   OH279605   2.358   5.895   2.940  0.4334 -0.0895  0.1638
19397TIP3    H179606   2.345   5.989   2.953  0.1446 -0.1100  0.0334
19397TIP3    H279607   2.424   5.889   2.871 -0.1387  0.0212 -0.4068
19398TIP3   OH279608   2.917   1.519   4.864  0.7699 -0.6662  0.1382
19398TIP3    H179609   2.995   1.574   4.877  0.1804 -0.0007  1.0377
19398TIP3    H279610   2.907   1.472   4.947 -1.3087  1.3215  1.1537
19399TIP3   OH279611   4.188   0.566  13.693  0.3785  0.2711  0.3573
19399TIP3    H179612   4.240   0.492  13.724  2.2055  0.8348 -1.1623
19399TIP3    H279613   4.245   0.642  13.706 -1.4295  1.4542  1.8191
19400TIP3   OH279614   2.501   0.465   1.438 -0.2167  0.2454  0.5159
19400TIP3    H179615   2.569   0.407   1.471 -0.6164  0.1929  1.2905
19400TIP3    H279616   2.519   0.549   1.480 -0.7136  0.1883  0.8621
19401TIP3   OH279617   4.693   3.407   4.423 -0.0611  0.2540 -0.1085
19401TIP3    H179618   4.774   3.457   4.409  0.2523  0.0073  0.7639
19401TIP3    H279619   4.625   3.461   4.384  0.4985  0.5695 -0.6643
19402TIP3   OH279620   6.571   0.153   4.660 -0.0417 -0.4533  0.3508
19402TIP3    H179621   6.630   0.092   4.614  1.6525  1.0750  0.3835
19402TIP3    H279622   6.630   0.214   4.704 -1.6747  1.1952  0.3441
19403TIP3   OH279623   1.164   1.048   3.146 -0.1149 -0.5435  0.6652
19403TIP3    H179624   1.091   1.029   3.087  0.9835 -0.9644 -0.5890
19403TIP3    H279625   1.133   1.020   3.232 -1.5356 -0.4333  0.2154
19404TIP3   OH279626   6.439   5.920   3.552 -0.0546  0.4167 -0.4138
19404TIP3    H179627   6.368   5.977   3.583 -0.0003  1.0356 -1.4003
19404TIP3    H279628   6.399   5.869   3.481  0.0978 -0.2755 -0.0103
19405TIP3   OH279629   1.574   1.271   5.652 -0.1565  0.8562 -0.3238
19405TIP3    H179630   1.582   1.193   5.598 -2.7171 -0.0504  0.4916
19405TIP3    H279631   1.651   1.269   5.709  1.5299  0.7605 -2.4827
19406TIP3   OH279632   1.490   4.642  16.845  0.7772 -0.0394 -0.7278
19406TIP3    H179633   1.533   4.557  16.860  0.2769 -0.2315 -0.3858
19406TIP3    H279634   1.556   4.706  16.870  0.1639 -0.3277  1.9328
19407TIP3   OH279635   0.260   6.354  16.439  0.0104 -0.1569  0.0172
19407TIP3    H179636   0.192   6.409  16.400  0.8363  0.6200 -0.3426
19407TIP3    H279637   0.340   6.406  16.434  0.5667 -0.9112  0.7806
19408TIP3   OH279638   1.964   1.371  14.983  0.5441  0.0282 -0.2277
19408TIP3    H179639   1.923   1.360  14.897 -0.9132  3.1220 -0.0537
19408TIP3    H279640   2.011   1.454  14.976 -0.5103  0.9019  2.2455
19409TIP3   OH279641   0.076   2.624   6.094 -0.6694  0.0163  0.3114
19409TIP3    H179642   0.141   2.584   6.152 -0.8493 -0.9236 -0.1025
19409TIP3    H279643   0.017   2.552   6.072 -0.9987  0.5191 -0.4849
19410TIP3   OH279644   3.282   5.216  15.578  0.3370  0.4570  0.0966
19410TIP3    H179645   3.310   5.129  15.606 -0.5270 -0.0096 -0.4714
19410TIP3    H279646   3.271   5.265  15.660  0.5934 -0.0333  0.4276
19411TIP3   OH279647   6.775   3.439   3.086  0.1669 -0.2095 -0.3203
19411TIP3    H179648   6.808   3.513   3.034  0.3414 -0.0445  0.0246
19411TIP3    H279649   6.842   3.425   3.153 -0.7367  0.5435  0.7857
19412TIP3   OH279650   5.812   2.959   1.661 -0.1492  0.0912 -0.3909
19412TIP3    H179651   5.799   3.004   1.745 -0.0659 -0.8734  0.1615
19412TIP3    H279652   5.889   3.001   1.623 -0.9993  1.4932 -0.6667
19413TIP3   OH279653   1.181   1.361   3.871 -0.9645 -0.3987  0.1529
19413TIP3    H179654   1.253   1.302   3.895  1.1720  1.4032 -1.4060
19413TIP3    H279655   1.191   1.436   3.930 -1.3160  0.0445 -0.3466
19414TIP3   OH279656   3.962   0.085   3.331  0.0590 -0.1321 -0.4052
19414TIP3    H179657   4.017   0.036   3.392 -2.9591 -1.2845  1.6664
19414TIP3    H279658   3.934   0.020   3.266 -1.8910 -0.6464  0.8585
19415TIP3   OH279659   1.515   6.268   0.334 -0.0544 -0.2897  0.2548
19415TIP3    H179660   1.535   6.220   0.415  0.1218 -0.4155  0.1391
19415TIP3    H279661   1.437   6.318   0.355  1.0752  1.1917  1.1292
19416TIP3   OH279662   5.352   2.079   0.510 -0.0899  0.1049  0.0802
19416TIP3    H179663   5.307   2.119   0.436 -1.3942 -0.2978  0.6187
19416TIP3    H279664   5.444   2.073   0.483 -0.4822  0.2899 -1.3439
19417TIP3   OH279665   6.467   0.064  10.467 -0.1943  0.1215  0.5131
19417TIP3    H179666   6.457   0.154  10.437 -0.7416  0.3502  1.3382
19417TIP3    H279667   6.384   0.021  10.444  0.5111 -0.5224 -0.9692
19418TIP3   OH279668   3.735   5.944  16.015  0.1099  0.1535  0.2392
19418TIP3    H179669   3.648   5.933  15.977  0.2730 -2.2892  0.4295
19418TIP3    H279670   3.742   6.038  16.032 -2.6225  0.3709  0.5795
19419TIP3   OH279671   2.505   1.240   2.892  0.4959  0.8621  0.2838
19419TIP3    H179672   2.452   1.195   2.958  0.8912  0.1541  0.1187
19419TIP3    H279673   2.440   1.282   2.835 -0.0170 -1.4385 -0.9644
19420TIP3   OH279674   3.620   4.197   1.976  0.1476  0.2820 -0.4699
19420TIP3    H179675   3.708   4.228   1.957  0.6143 -0.4469  0.4293
19420TIP3    H279676   3.606   4.123   1.917  0.1034  0.4544 -0.6746
19421TIP3   OH279677   0.991   3.113   2.842  0.2079 -0.3098 -0.3365
19421TIP3    H179678   0.969   3.020   2.847 -1.2465  0.0070 -0.4597
19421TIP3    H279679   0.936   3.155   2.908  0.5500  0.5242 -0.5608
19422TIP3   OH279680   2.860   6.735   4.183  0.4047  0.0203 -0.0361
19422TIP3    H179681   2.786   6.715   4.125 -0.2607 -0.2099  0.8804
19422TIP3    H279682   2.892   6.649   4.211 -0.4174  0.1422  1.3462
19423TIP3   OH279683   2.115   0.135   3.610 -0.1235  0.3641  0.6366
19423TIP3    H179684   2.187   0.193   3.636  0.5560  0.6996 -1.7473
19423TIP3    H279685   2.128   0.122   3.516 -2.6243 -0.3694  0.3281
19424TIP3   OH279686   2.283   4.450   3.502  0.0306 -0.3025 -0.0563
19424TIP3    H179687   2.233   4.449   3.420  0.6417  0.4342 -0.4578
19424TIP3    H279688   2.242   4.383   3.556 -2.3279  1.1923  0.1730
19425TIP3   OH279689   6.148   6.630   2.176  0.1027  0.2202  0.1163
19425TIP3    H179690   6.188   6.547   2.154  0.2976 -0.1206  1.6626
19425TIP3    H279691   6.062   6.607   2.212  0.3030  0.6519  0.8967
19426TIP3   OH279692   2.457   4.493  13.998  0.0809  0.2378  0.9589
19426TIP3    H179693   2.514   4.417  13.997  0.9722  0.8893  0.6361
19426TIP3    H279694   2.474   4.538  13.915 -0.4467  0.7691  1.1256
19427TIP3   OH279695   5.872   5.036  13.319  0.5633  0.1786  0.1333
19427TIP3    H179696   5.928   5.109  13.346  0.5719  0.4736 -0.6659
19427TIP3    H279697   5.855   5.051  13.226  1.9930 -1.7369 -0.5079
19428TIP3   OH279698   5.116   5.462  11.201 -0.4992 -0.8007 -0.8478
19428TIP3    H179699   5.074   5.524  11.141 -1.2678 -1.2552 -0.7856
19428TIP3    H279700   5.210   5.479  11.191 -0.6808  0.0655 -1.1632
19429TIP3   OH279701   2.220   3.695   5.306  0.1007  0.3936 -0.2447
19429TIP3    H179702   2.158   3.696   5.233  0.0128  0.8044 -0.1647
19429TIP3    H279703   2.304   3.676   5.266 -0.2672 -1.5540 -0.2065
19430TIP3   OH279704   5.234   0.643  12.949 -0.3669  0.0853 -0.5823
19430TIP3    H179705   5.209   0.554  12.923  1.0614 -0.0186 -1.7594
19430TIP3    H279706   5.223   0.695  12.870  1.8856  0.2562 -0.8470
19431TIP3   OH279707   0.793   0.507  16.944 -0.5318  0.1961 -0.0274
19431TIP3    H179708   0.752   0.584  16.985 -0.0795  0.3902  0.0704
19431TIP3    H279709   0.758   0.433  16.993 -0.0526  0.4217  0.6768
19432TIP3   OH279710   6.027   6.236  11.531  0.2829  0.6331 -0.1750
19432TIP3    H179711   6.046   6.209  11.620 -0.2433  0.3834 -0.1342
19432TIP3    H279712   5.957   6.300  11.539 -0.1366  0.2172 -0.4400
19433TIP3   OH279713   6.623   6.378   3.869 -0.1409  0.3227 -0.4482
19433TIP3    H179714   6.554   6.369   3.803  0.4619  0.3702 -1.1055
19433TIP3    H279715   6.605   6.462   3.911  0.0241  0.7613 -1.2342
19434TIP3   OH279716   3.264   1.499  12.876 -0.2735 -0.5759 -0.7631
19434TIP3    H179717   3.357   1.487  12.894 -0.1970 -0.6925 -1.2177
19434TIP3    H279718   3.240   1.578  12.924  0.0989 -0.4567 -0.7692
19435TIP3   OH279719   0.878   4.350  12.426  0.0113  0.3247  0.0953
19435TIP3    H179720   0.898   4.259  12.402  0.9140  0.2121  1.1896
19435TIP3    H279721   0.803   4.373  12.372 -1.8544 -1.9025  1.5598
19436TIP3   OH279722   3.050   3.400   3.026  0.1246 -0.2226 -0.1617
19436TIP3    H179723   3.022   3.393   2.935  0.6806 -0.1311 -0.3415
19436TIP3    H279724   2.978   3.361   3.077 -1.0368  1.3688 -0.5058
19437TIP3   OH279725   2.661   1.848  15.191 -0.3071 -0.0219  0.0750
19437TIP3    H179726   2.628   1.770  15.146  0.2938 -0.5830  0.5816
19437TIP3    H279727   2.669   1.821  15.282  0.6640  0.3743  0.1163
19438TIP3   OH279728   3.928   4.288   4.932  0.3202 -0.3467  0.4862
19438TIP3    H179729   3.912   4.280   4.838 -1.4171 -0.4149  0.7688
19438TIP3    H279730   3.924   4.199   4.965 -1.7292 -0.1113  0.9972
19439TIP3   OH279731   0.579   2.976  15.999  0.1830 -0.4542 -0.3890
19439TIP3    H179732   0.522   2.932  16.061 -0.3986 -0.6322 -1.0315
19439TIP3    H279733   0.532   3.056  15.976 -0.4465 -1.2012 -1.8816
19440TIP3   OH279734   0.442   5.966   0.002 -0.5792 -0.3430  0.1155
19440TIP3    H179735   0.462   5.955  -0.091 -1.8883 -2.2757 -0.0113
19440TIP3    H279736   0.372   6.031   0.004  0.0072  0.3053 -0.1622
19441TIP3   OH279737   6.647   3.575   1.266  0.4713 -0.2505 -0.2052
19441TIP3    H179738   6.641   3.588   1.360  2.4390  0.1665 -0.0823
19441TIP3    H279739   6.654   3.663   1.230 -0.2840 -0.4045 -0.7579
19442TIP3   OH279740   0.011   4.228   5.416  0.1605  0.3128 -0.9706
19442TIP3    H179741   0.099   4.260   5.435 -0.1730  0.2535  0.8531
19442TIP3    H279742  -0.047   4.297   5.449 -0.4876 -0.2379 -0.9354
19443TIP3   OH279743   0.362   2.844   1.733  0.4873  0.2362 -0.0206
19443TIP3    H179744   0.278   2.800   1.747 -0.4536  2.0343  0.3572
19443TIP3    H279745   0.422   2.800   1.792 -1.1389  1.3449  2.6691
19444TIP3   OH279746   3.263   0.183  16.504  0.1395  0.1169  0.3096
19444TIP3    H179747   3.247   0.090  16.484 -0.5365  0.2969 -0.0143
19444TIP3    H279748   3.321   0.181  16.581  0.2488 -0.5718  0.2212
19445TIP3   OH279749   5.636   3.455  16.544  0.4217  0.4358 -0.2643
19445TIP3    H179750   5.630   3.388  16.612  1.8274  1.3512  0.8276
19445TIP3    H279751   5.582   3.422  16.472 -0.6840 -0.8049  1.0925
19446TIP3   OH279752   3.669   2.094   0.147 -0.2338 -0.6061 -0.4257
19446TIP3    H179753   3.733   2.032   0.112 -0.3942 -2.7223  2.6135
19446TIP3    H279754   3.693   2.103   0.240 -1.4923  2.3600 -0.2892
19447TIP3   OH279755   5.287   5.211   1.945  0.2553 -0.0468  0.3619
19447TIP3    H179756   5.367   5.261   1.958  1.2861 -0.6719 -2.6665
19447TIP3    H279757   5.310   5.145   1.879 -2.7104 -0.3094 -0.5980
19448TIP3   OH279758   6.214   1.825  15.767 -0.2011 -0.5328 -0.3128
19448TIP3    H179759   6.277   1.897  15.773 -1.2806  0.5379 -1.2298
19448TIP3    H279760   6.131   1.863  15.796 -0.9240 -1.1943 -1.4126
19449TIP3   OH279761   4.909   1.821   6.147  0.5592  0.1061 -0.2224
19449TIP3    H179762   4.934   1.810   6.055  1.2739 -1.6476  0.1467
19449TIP3    H279763   4.991   1.844   6.191  0.8936 -2.0983  0.4230
19450TIP3   OH279764   3.904   0.715   4.089  0.4846 -0.3025 -0.2267
19450TIP3    H179765   3.938   0.788   4.141  0.7432 -0.7085  0.1871
19450TIP3    H279766   3.982   0.672   4.054  0.3172 -0.1279 -0.8282
19451TIP3   OH279767   6.382   1.229  15.308  0.0121  0.6197 -0.8126
19451TIP3    H179768   6.475   1.245  15.324  0.1797 -0.0112 -1.1073
19451TIP3    H279769   6.341   1.235  15.394  0.7438 -1.6967 -0.2224
19452TIP3   OH279770   4.936   0.778  15.114 -0.6439  0.2916 -0.2822
19452TIP3    H179771   4.906   0.865  15.088 -0.1831 -0.2712 -2.9431
19452TIP3    H279772   4.969   0.739  15.034  1.3799 -1.4800  1.2956
19453TIP3   OH279773   5.475   2.634  16.042 -0.1661  0.1087 -0.3124
19453TIP3    H179774   5.512   2.648  15.955  1.7185 -0.8318  0.2667
19453TIP3    H279775   5.472   2.721  16.081  1.3493  0.2644 -0.4685
19454TIP3   OH279776   6.188   2.356   5.388  0.6389  0.5135  0.3156
19454TIP3    H179777   6.196   2.396   5.302  0.5131 -0.1932 -0.0320
19454TIP3    H279778   6.095   2.332   5.395  0.4857  1.2630  0.9648
19455TIP3   OH279779   5.655   6.443   3.174 -0.5203 -0.1662 -0.2208
19455TIP3    H179780   5.602   6.518   3.147 -0.4079  0.1535  0.4499
19455TIP3    H279781   5.611   6.409   3.252  1.4778  1.4714  1.7187
19456TIP3   OH279782   0.387   3.558  13.153  0.2623 -0.2877  0.5361
19456TIP3    H179783   0.324   3.592  13.089  1.7843 -0.9149 -1.4069
19456TIP3    H279784   0.345   3.479  13.188 -1.1543  0.7721  1.3608
19457TIP3   OH279785   3.780   2.398   2.144  0.1373 -0.1425 -0.5831
19457TIP3    H179786   3.733   2.480   2.127  0.3523 -0.1632 -1.3164
19457TIP3    H279787   3.773   2.349   2.062  2.8447  0.5290 -1.3119
19458TIP3   OH279788   6.788   5.445  14.870  0.0029  0.4068  0.3638
19458TIP3    H179789   6.707   5.469  14.916 -0.1812  1.8717 -0.6635
19458TIP3    H279790   6.814   5.362  14.910 -0.8556  0.9516  2.1875
19459TIP3   OH279791   2.926   6.468  12.872  0.7542 -0.3330 -0.3777
19459TIP3    H179792   2.932   6.374  12.858  2.1942 -0.0640 -1.9959
19459TIP3    H279793   2.865   6.498  12.804  0.7193 -0.0406 -0.2181
19460TIP3   OH279794   3.477   3.971   2.148  0.6175  0.4038  0.0790
19460TIP3    H179795   3.536   4.034   2.189 -0.1279  0.9942  0.2871
19460TIP3    H279796   3.446   4.016   2.069 -1.6010  1.2528  1.3344
19461TIP3   OH279797   1.940   3.768   4.783  0.0610  0.2810  0.2951
19461TIP3    H179798   1.877   3.721   4.838  1.4495 -1.1375  0.7575
19461TIP3    H279799   1.947   3.855   4.822  0.4064 -0.4362  1.8897
19462TIP3   OH279800   0.652   5.551  16.799 -0.6313  0.2316 -0.8079
19462TIP3    H179801   0.609   5.575  16.717 -2.6365  1.2078  0.4396
19462TIP3    H279802   0.694   5.632  16.829  0.0290 -0.0976 -0.8384
19463TIP3   OH279803   6.276   0.230   0.173  0.2758  0.0529  0.1637
19463TIP3    H179804   6.322   0.282   0.238 -0.3032  0.2482  0.4264
19463TIP3    H279805   6.184   0.233   0.200  0.1096 -0.3534 -0.3293
19464TIP3   OH279806   4.047   0.751  13.577  0.0390 -0.0094  0.1397
19464TIP3    H179807   3.992   0.793  13.643 -0.0537 -0.8492  0.6150
19464TIP3    H279808   4.085   0.676  13.622  1.6870  0.6223 -0.1442
19465TIP3   OH279809   0.655   2.634  16.730  0.0461 -0.7101  0.2607
19465TIP3    H179810   0.611   2.704  16.777 -0.8880 -2.3255  1.9186
19465TIP3    H279811   0.624   2.642  16.640 -0.4897  0.6244  0.5512
19466TIP3   OH279812   2.243   1.185   1.610  0.1031 -0.4747  0.3550
19466TIP3    H179813   2.232   1.272   1.573  0.5620 -1.0160 -1.1209
19466TIP3    H279814   2.333   1.184   1.643 -0.6268  0.3511  2.5159
19467TIP3   OH279815   3.761   1.407  15.972  0.2948  0.1490  0.2451
19467TIP3    H179816   3.669   1.382  15.978  0.4343 -0.6936 -0.8767
19467TIP3    H279817   3.804   1.333  15.930  0.9007  1.8127 -2.2977
19468TIP3   OH279818   5.656   5.287   0.905  0.2927  0.2332  0.1282
19468TIP3    H179819   5.644   5.349   0.833 -0.7904 -0.9562 -0.7497
19468TIP3    H279820   5.745   5.304   0.936  0.2725  1.7301 -0.5426
19469TIP3   OH279821   3.694   2.650   3.630 -0.3922 -0.8248 -0.5215
19469TIP3    H179822   3.781   2.682   3.609 -0.9218  1.1702  0.1084
19469TIP3    H279823   3.686   2.662   3.725 -0.7716 -2.5795 -0.2816
19470TIP3   OH279824   2.311   3.210   0.265  0.1895  0.3895 -0.1694
19470TIP3    H179825   2.357   3.209   0.349  1.5767  0.1227 -0.9096
19470TIP3    H279826   2.232   3.158   0.281 -0.7332  2.1679  1.5690
19471TIP3   OH279827   4.534   6.473   5.373  0.7510  0.3610 -0.4025
19471TIP3    H179828   4.609   6.532   5.357  1.5075  0.4616  2.7484
19471TIP3    H279829   4.572   6.400   5.422 -1.2602  0.6940  1.7953
19472TIP3   OH279830   5.243   6.176   0.245 -0.6793  0.0957  0.2954
19472TIP3    H179831   5.299   6.190   0.322  1.5666 -1.5133 -0.9410
19472TIP3    H279832   5.162   6.222   0.267 -0.2857 -0.5737  3.7754
19473TIP3   OH279833   2.438   2.687   4.819 -0.8106 -0.2831  0.2501
19473TIP3    H179834   2.412   2.597   4.801 -0.6034 -0.1052 -1.0133
19473TIP3    H279835   2.420   2.735   4.738 -0.2646  0.6680  0.6608
19474TIP3   OH279836   2.417   6.656  12.885 -0.3090  0.7527 -0.0756
19474TIP3    H179837   2.396   6.667  12.978  0.3426 -0.3757  0.2367
19474TIP3    H279838   2.359   6.717  12.839 -2.1752 -0.1944  0.9135
19475TIP3   OH279839   6.434   2.486   0.543 -0.3313 -0.2233 -0.1689
19475TIP3    H179840   6.464   2.476   0.453 -0.8453 -2.6878 -0.1609
19475TIP3    H279841   6.481   2.562   0.576  1.3550 -0.4100 -1.9317
19476TIP3   OH279842   3.886   5.087  11.621  0.6365  0.1535 -0.1587
19476TIP3    H179843   3.965   5.052  11.663  0.5886  0.7817  0.4738
19476TIP3    H279844   3.909   5.097  11.529  0.5964 -1.7094 -0.4188
19477TIP3   OH279845   3.328   1.974  12.959  0.4156 -0.6230 -0.1072
19477TIP3    H179846   3.298   1.887  12.988 -0.3021 -0.0201  1.0317
19477TIP3    H279847   3.387   1.955  12.886  1.5104 -2.1681  1.0910
19478TIP3   OH279848   4.729   2.903  16.577  0.4843 -0.5061 -0.7501
19478TIP3    H179849   4.732   2.809  16.594  0.7065 -0.1566  1.5474
19478TIP3    H279850   4.819   2.927  16.556  1.2709 -0.3243  2.2984
19479TIP3   OH279851   2.544   5.567   1.274  0.7099  0.4393  0.6655
19479TIP3    H179852   2.603   5.635   1.240 -0.0373 -0.3565 -2.5315
19479TIP3    H279853   2.456   5.605   1.266  0.3797 -0.4304 -0.0134
19480TIP3   OH279854   0.010   2.941   3.253 -0.0877  0.0550 -0.1772
19480TIP3    H179855   0.072   2.946   3.180 -0.9177  2.0531 -0.8191
19480TIP3    H279856  -0.076   2.939   3.210 -0.5769  0.9165  0.7390
19481TIP3   OH279857   2.104   4.121   1.442  0.0350 -0.8839 -0.0376
19481TIP3    H179858   2.042   4.115   1.515 -0.2961 -0.4997 -0.2813
19481TIP3    H279859   2.074   4.056   1.379  0.1673 -1.0345  0.0540
19482TIP3   OH279860   3.408   5.491  12.373 -0.0989 -0.1500  0.1294
19482TIP3    H179861   3.486   5.436  12.365  0.9009  1.2393 -0.0431
19482TIP3    H279862   3.335   5.430  12.367  0.9683 -1.6077  1.1217
19483TIP3   OH279863   6.046   6.699  12.319  0.6749 -0.1395  0.1056
19483TIP3    H179864   6.101   6.621  12.327  0.3461 -0.4235 -0.3084
19483TIP3    H279865   6.062   6.748  12.399 -0.4096 -1.4704  1.2050
19484TIP3   OH279866   2.149   5.590   6.101 -0.2198  0.2614  0.1166
19484TIP3    H179867   2.129   5.659   6.165  2.4261  0.5715  0.7014
19484TIP3    H279868   2.138   5.509   6.150  0.6635  0.4583  0.6662
19485TIP3   OH279869   1.507   2.714  14.640 -0.5285 -0.6091 -0.4254
19485TIP3    H179870   1.553   2.778  14.587 -2.9301  1.6320 -0.0117
19485TIP3    H279871   1.523   2.630  14.597  1.4293  0.4580 -1.9098
19486TIP3   OH279872   6.218   4.114   0.959  0.3218  0.2195 -0.1109
19486TIP3    H179873   6.178   4.049   0.901 -1.1001  0.3673  0.6590
19486TIP3    H279874   6.188   4.089   1.047  0.7996  1.1717  0.3318
19487TIP3   OH279875   3.013   3.981   2.784 -0.5374 -0.1610  0.5666
19487TIP3    H179876   3.053   3.908   2.737 -1.9660  0.4656 -1.8172
19487TIP3    H279877   3.084   4.044   2.795 -0.1293 -0.3472 -0.7922
19488TIP3   OH279878   2.313   1.210  12.336 -0.1678 -0.0452 -0.1443
19488TIP3    H179879   2.319   1.256  12.252 -3.9090  2.1816  0.5616
19488TIP3    H279880   2.245   1.144  12.322  0.7425 -1.1673  0.5871
19489TIP3   OH279881   5.602   1.242  14.977 -0.1465 -0.3128 -0.8593
19489TIP3    H179882   5.606   1.155  15.015  1.5671 -0.1655 -0.6338
19489TIP3    H279883   5.537   1.289  15.030 -0.5890 -1.2401 -0.5653
19490TIP3   OH279884   1.118   2.896   0.795 -0.1364  0.6904 -0.3894
19490TIP3    H179885   1.207   2.931   0.804  0.9205 -1.3331 -2.0641
19490TIP3    H279886   1.119   2.815   0.846 -0.9643  0.5725 -0.5530
19491TIP3   OH279887   2.963   5.261   0.939  0.1144 -0.1215  0.4785
19491TIP3    H179888   2.883   5.309   0.961  0.8312  0.9666  0.7966
19491TIP3    H279889   2.934   5.171   0.925 -1.5372  0.6658 -1.7112
19492TIP3   OH279890   5.657   1.222  11.274  0.0598 -0.4175 -0.6953
19492TIP3    H179891   5.587   1.217  11.340 -0.5346  1.5770 -1.1133
19492TIP3    H279892   5.711   1.145  11.292 -0.0476  0.0335  2.1737
19493TIP3   OH279893   1.227   6.146   4.731  0.3513  0.3250  0.0698
19493TIP3    H179894   1.223   6.095   4.812  2.2880  4.0063  2.7479
19493TIP3    H279895   1.139   6.140   4.694 -0.3281 -2.2847  1.8155
19494TIP3   OH279896   2.617   3.298  16.095 -0.0695 -0.6263  0.4116
19494TIP3    H179897   2.545   3.350  16.060  0.0188  0.4177  1.7340
19494TIP3    H279898   2.590   3.207  16.080 -0.0180 -0.2759 -2.3604
19495TIP3   OH279899   3.958   1.275   3.142  1.0540  0.0964 -0.0288
19495TIP3    H179900   3.892   1.243   3.080  0.4538 -0.9978  1.1253
19495TIP3    H279901   4.025   1.207   3.143  2.9571  1.7992 -2.1860
19496TIP3   OH279902   3.244   2.527  13.203  0.3904  0.3197 -0.4132
19496TIP3    H179903   3.149   2.526  13.214  0.4798  1.5161  0.7550
19496TIP3    H279904   3.258   2.549  13.111 -0.4925  2.5361 -0.0750
19497TIP3   OH279905   4.857   1.157  13.469 -0.0880  0.4592 -0.3885
19497TIP3    H179906   4.913   1.145  13.545 -1.3674  0.1803  0.5456
19497TIP3    H279907   4.801   1.231  13.491 -1.5317 -0.5938 -0.3789
19498TIP3   OH279908   1.080   0.592  11.842  0.1512 -0.0578  0.3280
19498TIP3    H179909   1.111   0.502  11.829 -1.1051 -0.2864 -1.6103
19498TIP3    H279910   1.153   0.647  11.814 -0.2307 -0.5631 -1.8885
19499TIP3   OH279911   4.998   4.126   1.768  0.1888 -0.0283  0.1647
19499TIP3    H179912   4.994   4.041   1.811  2.5036  0.1279  0.7964
19499TIP3    H279913   4.908   4.144   1.742 -0.3702 -2.6382  0.0571
19500TIP3   OH279914   4.702   6.190  16.584  0.0291  0.1984  0.0398
19500TIP3    H179915   4.751   6.263  16.623  2.4890 -0.9943 -0.5855
19500TIP3    H279916   4.767   6.144  16.531 -2.2303 -0.5750 -2.2286
19501TIP3   OH279917   5.528   5.346   5.577 -0.1165  0.1425 -0.4638
19501TIP3    H179918   5.455   5.286   5.566 -0.2276  0.0081  0.8285
19501TIP3    H279919   5.490   5.423   5.619  0.0007  1.2025 -2.2021
19502TIP3   OH279920   0.223   1.586   2.936 -0.6019 -0.1170 -0.7336
19502TIP3    H179921   0.259   1.567   3.023 -0.2476  0.4562 -0.7544
19502TIP3    H279922   0.147   1.642   2.953  0.6569  1.7024 -0.8988
19503TIP3   OH279923   4.230   0.605   1.917  0.4510 -0.3102 -0.0942
19503TIP3    H179924   4.321   0.634   1.929  0.3721 -0.0512 -0.1253
19503TIP3    H279925   4.184   0.638   1.994 -0.1912  1.8923 -1.3558
19504TIP3   OH279926   2.168   3.513   6.353  0.4033 -0.4614  0.1367
19504TIP3    H179927   2.077   3.537   6.371  0.3617 -1.0144  0.7166
19504TIP3    H279928   2.206   3.591   6.313 -0.2970 -0.1879 -0.0031
19505TIP3   OH279929   4.714   3.021  11.992 -0.0559  0.3680  0.1498
19505TIP3    H179930   4.698   3.050  11.902 -0.0467 -0.5288 -0.1444
19505TIP3    H279931   4.739   2.929  11.984 -2.6648 -0.5288  1.2749
19506TIP3   OH279932   5.402   3.466  15.950  0.4839  0.5075  0.2720
19506TIP3    H179933   5.315   3.435  15.972  0.0908 -1.2867 -3.0633
19506TIP3    H279934   5.397   3.561  15.957 -2.1127  0.5282 -0.8537
19507TIP3   OH279935   2.121   5.783   3.267  0.5008  0.4468  0.2432
19507TIP3    H179936   2.091   5.807   3.179 -0.2856 -0.0818  0.3618
19507TIP3    H279937   2.216   5.777   3.259  0.4341  0.3816 -0.5741
19508TIP3   OH279938   1.916   3.104  12.537 -0.6391 -0.0578 -0.2397
19508TIP3    H179939   1.983   3.041  12.513  1.0762  0.4199  2.7792
19508TIP3    H279940   1.960   3.189  12.535 -1.4934  0.4315  0.5605
19509TIP3   OH279941   0.493   6.706  16.531 -0.1932  0.0828  0.0289
19509TIP3    H179942   0.500   6.613  16.510 -1.0029  0.1427 -0.5806
19509TIP3    H279943   0.410   6.733  16.490 -0.1115  1.0001  0.4499
19510TIP3   OH279944   1.499   6.105  13.034 -0.1220  0.2480  0.0673
19510TIP3    H179945   1.507   6.019  13.077  0.8605  1.0839  1.6524
19510TIP3    H279946   1.548   6.095  12.952 -0.1969 -0.7561  0.1241
19511TIP3   OH279947   3.172   2.770  14.560 -0.1635  0.2259  0.2599
19511TIP3    H179948   3.157   2.694  14.618 -1.0525  0.3917  0.2698
19511TIP3    H279949   3.187   2.731  14.474 -3.4130  0.0221 -0.3509
19512TIP3   OH279950   5.775   2.294   4.170  0.0422 -0.5067 -0.1777
19512TIP3    H179951   5.728   2.213   4.189  0.9000 -1.0566 -0.3641
19512TIP3    H279952   5.826   2.275   4.092  0.1692  0.2481 -0.2843
19513TIP3   OH279953   3.082   2.598   0.109  0.7473  0.4050 -0.0273
19513TIP3    H179954   2.987   2.597   0.118  0.7308 -2.4152  0.4354
19513TIP3    H279955   3.110   2.674   0.159 -1.1409 -0.0888  1.9325
19514TIP3   OH279956   3.284   1.496  14.816 -0.0845  0.1406  0.2032
19514TIP3    H179957   3.343   1.471  14.887 -0.4836  0.1465  0.5375
19514TIP3    H279958   3.231   1.419  14.800  2.5918 -1.3058 -2.7993
19515TIP3   OH279959   3.620   2.214  11.041  0.6104 -0.2665  0.1481
19515TIP3    H179960   3.607   2.234  10.949 -0.5227  0.8793  0.5243
19515TIP3    H279961   3.584   2.290  11.087  2.6583 -0.0666  1.5022
19516TIP3   OH279962   4.579   0.434  13.581 -0.2277 -0.0088  0.0111
19516TIP3    H179963   4.524   0.408  13.655 -0.7696 -0.4302 -0.5301
19516TIP3    H279964   4.592   0.528  13.594 -0.3719 -0.0651  0.6061
19517TIP3   OH279965   0.229   4.695   0.543 -0.4096  0.4099  0.2557
19517TIP3    H179966   0.245   4.754   0.469 -1.0366  1.9147  1.2767
19517TIP3    H279967   0.201   4.613   0.502  0.2553  0.8697 -1.1933
19518TIP3   OH279968   5.591   0.024   3.281  0.1644 -0.6499 -0.7085
19518TIP3    H179969   5.667   0.015   3.339  0.2383 -0.3388 -0.7587
19518TIP3    H279970   5.566   0.116   3.287  0.2961 -0.5681 -1.3269
19519TIP3   OH279971   6.107   6.796  11.133  0.0423  0.3606  0.3728
19519TIP3    H179972   6.032   6.834  11.179  0.5158 -0.0041  1.4570
19519TIP3    H279973   6.171   6.868  11.129  0.1369  0.2859  0.5802
19520TIP3   OH279974   3.709   1.397   3.244 -0.6919 -0.4014 -0.7090
19520TIP3    H179975   3.795   1.357   3.227 -1.2619 -1.9767 -0.1232
19520TIP3    H279976   3.728   1.490   3.255  0.6042 -0.3202 -2.9328
19521TIP3   OH279977   2.062   1.472   4.693  0.4945  0.3262  0.2463
19521TIP3    H179978   2.013   1.484   4.774  0.5283  0.5666  0.2314
19521TIP3    H279979   2.147   1.438   4.722  0.1692 -0.5155  0.2402
19522TIP3   OH279980   2.098   4.636  13.805  0.1142 -0.2138  0.0265
19522TIP3    H179981   2.111   4.559  13.750  1.7050 -1.0645  1.4984
19522TIP3    H279982   2.130   4.709  13.753  0.7599 -0.8726 -0.5182
19523TIP3   OH279983   5.107   4.537  13.541  0.0018  0.1684 -0.0381
19523TIP3    H179984   5.079   4.447  13.557  1.1244 -0.5723 -1.9661
19523TIP3    H279985   5.124   4.573  13.628  0.0945 -1.6614  0.7257
19524TIP3   OH279986   2.419   2.929   5.769  0.3644 -0.2935 -0.1090
19524TIP3    H179987   2.413   2.848   5.718 -0.6261  1.0950 -2.3894
19524TIP3    H279988   2.439   2.900   5.858  0.9935 -2.9598 -1.0117
19525TIP3   OH279989   3.960   2.436   3.126 -0.2444 -0.3100 -0.0498
19525TIP3    H179990   3.998   2.444   3.214  0.7063 -1.0766 -0.3817
19525TIP3    H279991   3.891   2.370   3.135  0.1397 -0.7007  0.0287
19526TIP3   OH279992   5.569   1.636   0.523 -0.2788  0.8696 -0.3891
19526TIP3    H179993   5.628   1.569   0.557  1.2565  1.5140 -1.6471
19526TIP3    H279994   5.499   1.643   0.588  1.7712  1.0894  1.8828
19527TIP3   OH279995   2.400   0.695  16.456  0.2050  0.0090  0.3292
19527TIP3    H179996   2.381   0.644  16.378  0.9503 -0.6280  0.5503
19527TIP3    H279997   2.478   0.655  16.493  0.1281  0.5822  1.1570
19528TIP3   OH279998   0.597   6.193  11.660 -0.1183  0.3775 -0.0424
19528TIP3    H179999   0.618   6.218  11.570 -0.5721 -0.8531 -0.5089
19528TIP3    H280000   0.514   6.237  11.678  0.2895  1.1479  0.0218
19529TIP3   OH280001   1.080   5.588   1.058 -0.3099  0.2147  0.4553
19529TIP3    H180002   1.101   5.503   1.018 -1.3729 -0.5738  1.5012
19529TIP3    H280003   1.019   5.629   0.998  0.8376  0.6299 -0.4677
19530TIP3   OH280004   6.273   3.217  15.929  0.2386 -0.2717  0.1113
19530TIP3    H180005   6.182   3.246  15.936  0.0042 -0.6340 -1.2397
19530TIP3    H280006   6.267   3.124  15.904  0.9763 -0.3317  0.1313
19531TIP3   OH280007   5.397   0.370   4.205  0.1745 -0.4509 -0.2578
19531TIP3    H180008   5.483   0.406   4.228 -0.4228 -0.5309  2.4159
19531TIP3    H280009   5.400   0.279   4.233 -1.1662 -0.1243  1.0708
19532TIP3   OH280010   4.367   5.906   1.286  0.0427  0.0405 -0.2519
19532TIP3    H180011   4.338   5.877   1.373 -0.9738 -0.5315 -0.7666
19532TIP3    H280012   4.341   5.998   1.281 -0.7631 -0.1896 -0.3141
19533TIP3   OH280013   5.056   6.560   4.167 -0.3573 -0.0655 -0.1483
19533TIP3    H180014   5.081   6.646   4.200 -1.9085  0.6375 -0.7353
19533TIP3    H280015   5.078   6.562   4.074  2.5779 -1.5059  0.3703
19534TIP3   OH280016   0.023   4.441  15.166  0.2887 -0.0208 -0.1210
19534TIP3    H180017   0.035   4.476  15.255  0.0447 -1.3533  0.4675
19534TIP3    H280018   0.078   4.497  15.111 -0.4730  1.5706  0.6766
19535TIP3   OH280019   6.710   2.544   2.527 -0.6755  0.4166  0.3109
19535TIP3    H180020   6.656   2.615   2.493  0.7894  0.8673 -1.1575
19535TIP3    H280021   6.713   2.480   2.457  0.3860  0.2272  0.5182
19536TIP3   OH280022   2.195   4.782   1.254  0.3957 -0.1611  0.1227
19536TIP3    H180023   2.259   4.799   1.323 -0.2617  1.1702  0.4437
19536TIP3    H280024   2.111   4.784   1.299 -0.0778  1.1961 -0.7611
19537TIP3   OH280025   2.619   4.147   0.679  0.8580 -0.0520 -0.5222
19537TIP3    H180026   2.597   4.056   0.663 -0.3859  0.0519  0.4340
19537TIP3    H280027   2.539   4.196   0.659  1.8844  1.0213 -2.3305
19538TIP3   OH280028   0.632   5.200   4.723  0.5568  0.0526  0.0945
19538TIP3    H180029   0.605   5.290   4.704 -1.2397 -0.6679 -0.9737
19538TIP3    H280030   0.566   5.145   4.682  1.6736 -1.7914  0.6154
19539TIP3   OH280031   1.888   4.694   3.709  0.2592  0.4623  0.0060
19539TIP3    H180032   1.804   4.701   3.754  0.1646 -1.0094  0.1167
19539TIP3    H280033   1.868   4.645   3.629  0.6106  2.1528 -1.1689
19540TIP3   OH280034   2.283   5.573  15.713  0.1773 -0.4029  0.2195
19540TIP3    H180035   2.322   5.659  15.731 -0.3290 -0.1936  0.3433
19540TIP3    H280036   2.357   5.516  15.695  0.5255  0.0390  0.2428
19541TIP3   OH280037   3.124   0.742   1.004  0.0545  0.5281  0.4088
19541TIP3    H180038   3.214   0.769   1.021  0.5350 -1.5263  1.3409
19541TIP3    H280039   3.083   0.736   1.090 -1.0318  1.4976 -0.0069
19542TIP3   OH280040   0.547   3.768  13.057  1.0294 -0.1111 -0.0845
19542TIP3    H180041   0.484   3.713  13.105 -0.1641  0.7765 -0.5915
19542TIP3    H280042   0.630   3.723  13.068  0.5379 -0.6770  1.6430
19543TIP3   OH280043   1.555   2.617  11.841  0.2633 -0.1413 -0.3488
19543TIP3    H180044   1.583   2.668  11.917  2.1960 -0.5678 -0.7313
19543TIP3    H280045   1.614   2.644  11.771 -0.7405 -0.6033 -1.4163
19544TIP3   OH280046   1.886   5.477   4.433 -0.3012 -0.4135 -0.3134
19544TIP3    H180047   1.836   5.489   4.514 -0.7562 -1.0367 -0.4839
19544TIP3    H280048   1.854   5.393   4.399  1.4141 -1.2114 -0.0443
19545TIP3   OH280049   0.162   5.662   0.544  0.0562  0.2745  0.0284
19545TIP3    H180050   0.241   5.687   0.592  0.8936 -0.1235 -1.0688
19545TIP3    H280051   0.139   5.576   0.579 -0.2602  0.6545  0.7731
19546TIP3   OH280052   1.314   0.247  12.049  0.0582 -0.5818  0.1485
19546TIP3    H180053   1.306   0.274  12.141  1.0317 -0.6404  0.2709
19546TIP3    H280054   1.297   0.153  12.050 -1.6372 -0.3001 -0.0100
19547TIP3   OH280055   1.855   1.120  17.070  0.0919 -0.1096  0.3155
19547TIP3    H180056   1.815   1.204  17.048 -3.3459 -1.2771  1.5535
19547TIP3    H280057   1.824   1.060  17.003 -0.8012 -1.2003  1.6650
19548TIP3   OH280058   3.117   4.935   1.131 -0.0934  0.0633  0.1745
19548TIP3    H180059   3.121   4.840   1.116 -0.8795 -0.0603  0.6466
19548TIP3    H280060   3.204   4.967   1.107 -0.5935 -0.3799 -2.5338
19549TIP3   OH280061   2.722   5.935  14.920  0.0433  0.3654 -0.5172
19549TIP3    H180062   2.809   5.910  14.951 -0.7529 -0.7981  0.8575
19549TIP3    H280063   2.669   5.855  14.927 -1.3403  1.2375 -0.5851
19550TIP3   OH280064   4.120   0.248  16.846  0.1274 -0.1387 -0.2826
19550TIP3    H180065   4.190   0.200  16.890  2.9367  3.1884 -0.6923
19550TIP3    H280066   4.143   0.245  16.753 -0.2336  0.9884 -0.4244
19551TIP3   OH280067   1.634   4.762  11.657 -0.4315 -0.1731 -0.0277
19551TIP3    H180068   1.704   4.721  11.708 -0.6172 -0.5730 -0.0892
19551TIP3    H280069   1.627   4.851  11.692  2.7478  1.2620 -2.5447
19552TIP3   OH280070   6.597   0.958  12.040 -0.1941  0.0373 -0.6726
19552TIP3    H180071   6.528   1.024  12.049  0.7991  1.0403 -0.2014
19552TIP3    H280072   6.613   0.927  12.129  0.7341  0.6378 -0.6157
19553TIP3   OH280073   3.547   2.501  13.094 -0.6721 -0.3400 -0.4185
19553TIP3    H180074   3.475   2.543  13.048 -1.6457 -3.4431 -1.9894
19553TIP3    H280075   3.626   2.538  13.055 -1.4496  0.4507 -1.2805
19554TIP3   OH280076   2.404   6.342  11.963  0.0301 -0.2237  0.2462
19554TIP3    H180077   2.381   6.375  11.876  0.0528  0.8841  0.6549
19554TIP3    H280078   2.443   6.256  11.945 -0.0944 -0.0800 -0.8235
19555TIP3   OH280079   5.326   5.023  13.329 -0.0741  0.4764  0.0174
19555TIP3    H180080   5.300   4.932  13.345 -2.3057  1.1968  0.8894
19555TIP3    H280081   5.419   5.018  13.311 -0.5021 -2.2211 -2.0777
19556TIP3   OH280082   3.638   3.406   1.381 -0.0341  0.0228 -0.3659
19556TIP3    H180083   3.545   3.415   1.361 -0.5051 -0.6952  1.3190
19556TIP3    H280084   3.677   3.489   1.353 -1.3147  0.6515 -0.3398
19557TIP3   OH280085   1.672   5.734   2.645 -0.2306  0.3642 -0.2337
19557TIP3    H180086   1.706   5.661   2.594 -0.5800  0.5152 -0.6980
19557TIP3    H280087   1.746   5.794   2.654 -0.1345  0.2836 -0.4705
19558TIP3   OH280088   3.553   3.393   2.513  0.0649  0.6421 -0.4931
19558TIP3    H180089   3.557   3.487   2.492 -1.3765  0.3765 -2.2217
19558TIP3    H280090   3.517   3.390   2.602 -0.3148  1.7284 -0.5949
19559TIP3   OH280091   1.235   6.497   6.032 -0.1066 -0.4441  0.3510
19559TIP3    H180092   1.242   6.572   5.974  0.6925 -1.5590 -1.0631
19559TIP3    H280093   1.280   6.523   6.112 -2.1285  1.5075  0.9425
19560TIP3   OH280094   4.535   4.014  12.951  0.2767 -0.5525  0.1001
19560TIP3    H180095   4.611   4.033  12.895  0.3417 -1.7197 -0.2545
19560TIP3    H280096   4.524   4.092  13.005  2.2044 -0.6292  0.6833
19561TIP3   OH280097   2.298   1.280   4.269 -0.1845 -0.5926 -0.1712
19561TIP3    H180098   2.234   1.334   4.222  0.6608  0.5448 -0.0705
19561TIP3    H280099   2.367   1.342   4.295  0.6892 -1.6850  0.2013
19562TIP3   OH280100   3.359   0.508  16.104 -0.1433 -0.3069 -0.5710
19562TIP3    H180101   3.436   0.453  16.095 -0.4909 -0.6783 -1.4060
19562TIP3    H280102   3.392   0.598  16.101  0.4388 -0.4415  0.9140
19563TIP3   OH280103   3.593   6.465  13.269 -0.8606  0.9099  0.6562
19563TIP3    H180104   3.657   6.498  13.205 -1.8039  0.0102 -0.8179
19563TIP3    H280105   3.565   6.543  13.317 -0.8042  1.7854 -0.6724
19564TIP3   OH280106   5.602   5.818   0.351  0.5314  0.5803  0.1455
19564TIP3    H180107   5.586   5.866   0.432 -1.6914 -0.5221  0.4471
19564TIP3    H280108   5.643   5.737   0.379 -1.6353 -0.4896  0.4275
19565TIP3   OH280109   4.573   3.988   3.425 -0.4449  0.1440  0.9893
19565TIP3    H180110   4.523   3.986   3.507 -1.4552 -1.8947  0.3859
19565TIP3    H280111   4.571   3.898   3.393  1.4734  0.5313 -0.3809
19566TIP3   OH280112   5.460   6.418   2.315  0.1114 -0.1253 -0.1755
19566TIP3    H180113   5.429   6.368   2.240  3.3052 -1.4608 -0.7379
19566TIP3    H280114   5.551   6.439   2.295  0.6782  0.6961  2.7344
19567TIP3   OH280115   4.103   2.784  15.402  0.4147  0.4387 -0.0974
19567TIP3    H180116   4.028   2.743  15.446 -0.9432  1.3581 -1.4217
19567TIP3    H280117   4.104   2.874  15.435 -1.0853  1.3748 -2.2934
19568TIP3   OH280118   3.919   5.586  14.800 -0.6697  0.6406  0.4530
19568TIP3    H180119   3.972   5.574  14.878 -0.4770  1.6886  0.5002
19568TIP3    H280120   3.924   5.502  14.754  0.2355  0.4189  0.9376
19569TIP3   OH280121   0.866   0.881   2.971 -0.6260 -0.8413  0.2839
19569TIP3    H180122   0.772   0.881   2.954 -0.4287  0.0518 -1.0018
19569TIP3    H280123   0.905   0.837   2.895  0.0102 -0.8851  0.6267
19570TIP3   OH280124   1.148   0.810  11.137  0.0907  0.0459  0.0568
19570TIP3    H180125   1.087   0.784  11.068  0.5952 -0.0643 -0.3550
19570TIP3    H280126   1.130   0.749  11.209  0.6583 -0.9081 -0.5752
19571TIP3   OH280127   5.096   3.418   3.637 -0.0049 -0.2332  0.2858
19571TIP3    H180128   5.020   3.402   3.581  0.6654  0.0825 -0.7454
19571TIP3    H280129   5.059   3.441   3.722 -1.0593 -2.8633  0.6397
19572TIP3   OH280130   4.203   3.458  11.911  0.0107 -0.0189 -0.4648
19572TIP3    H180131   4.263   3.419  11.974 -0.3398 -3.7156 -2.1533
19572TIP3    H280132   4.258   3.512  11.854  1.7636 -2.7099 -1.5137
19573TIP3   OH280133   5.971   0.190   2.385  0.1946  0.1411  0.5413
19573TIP3    H180134   6.057   0.174   2.346 -0.0416 -0.2761  0.1851
19573TIP3    H280135   5.988   0.201   2.478  0.8520  1.8008  0.2574
19574TIP3   OH280136   4.476   5.370  14.762 -0.0835  0.1523 -0.3699
19574TIP3    H180137   4.459   5.397  14.852  1.0795  0.2244 -0.1560
19574TIP3    H280138   4.531   5.292  14.770  2.5372  1.8084 -0.9699
19575TIP3   OH280139   2.461   0.474  13.062  0.4447  0.0021  0.8069
19575TIP3    H180140   2.515   0.412  13.014  1.1338  1.0446  0.1715
19575TIP3    H280141   2.524   0.529  13.110 -0.0216  1.2399  0.0582
19576TIP3   OH280142   2.931   0.603  13.755  0.0188  0.2821 -0.1203
19576TIP3    H180143   2.965   0.517  13.777 -0.7787  0.0068  0.0762
19576TIP3    H280144   2.879   0.589  13.676  0.8066  0.8012 -0.7456
19577TIP3   OH280145   1.521   0.654  15.417 -0.4523  0.2834  0.0674
19577TIP3    H180146   1.556   0.680  15.332 -2.0169  1.9030 -0.1330
19577TIP3    H280147   1.594   0.668  15.478  0.5028 -0.3505 -0.8808
19578TIP3   OH280148   5.070   1.929  16.223  0.3195  0.4544  0.1559
19578TIP3    H180149   5.036   1.856  16.172 -1.3841  1.3644 -0.0902
19578TIP3    H280150   5.163   1.932  16.201  0.3917 -1.5025  0.0369
19579TIP3   OH280151   5.496   4.396  14.718  0.0137 -0.3272  0.0696
19579TIP3    H180152   5.548   4.316  14.731 -1.1323 -1.1935 -0.5275
19579TIP3    H280153   5.406   4.369  14.735 -0.2573  1.2085  1.3357
19580TIP3   OH280154   0.554   1.221  12.345  0.0051  0.1340 -0.2914
19580TIP3    H180155   0.545   1.126  12.351  0.6489  0.1603  1.5292
19580TIP3    H280156   0.647   1.238  12.362  0.1518  1.0465 -1.7361
19581TIP3   OH280157   4.339   5.431   5.838  0.3897  0.3254 -0.4723
19581TIP3    H180158   4.429   5.402   5.854  0.5755  0.4224 -1.2522
19581TIP3    H280159   4.285   5.376   5.894  0.7754 -1.1385 -1.4843
19582TIP3   OH280160   2.825   6.224  11.370  0.2243 -0.1311  0.5512
19582TIP3    H180161   2.900   6.252  11.317  0.8863 -0.8590  1.0661
19582TIP3    H280162   2.799   6.302  11.418  0.8240  0.0765  0.5474
19583TIP3   OH280163   0.717   5.304   1.469 -0.2491  0.3640 -0.1982
19583TIP3    H180164   0.648   5.365   1.443  0.0935  0.8948  0.1363
19583TIP3    H280165   0.792   5.328   1.415 -0.0805  0.3015  0.0093
19584TIP3   OH280166   2.894   3.804  11.415  0.0147 -0.0057  0.3320
19584TIP3    H180167   2.956   3.795  11.488  0.8031  0.7712 -0.2234
19584TIP3    H280168   2.846   3.885  11.435  2.0792  1.7315 -1.3057
19585TIP3   OH280169   6.002   2.162  12.430  0.4373  0.1383  0.1431
19585TIP3    H180170   5.964   2.239  12.474 -0.0152 -0.5022  0.9096
19585TIP3    H280171   6.094   2.162  12.456  0.4219  0.3789  0.2021
19586TIP3   OH280172   3.889   1.986  12.209 -0.0907  0.2751 -0.1468
19586TIP3    H180173   3.862   2.008  12.298  1.2978  2.0365 -0.1054
19586TIP3    H280174   3.970   2.034  12.196  1.3308 -2.2620 -1.3769
19587TIP3   OH280175   5.485   3.871  15.031  0.5064 -0.2743 -0.6728
19587TIP3    H180176   5.445   3.917  15.105  0.4205 -2.3224  0.6546
19587TIP3    H280177   5.412   3.830  14.986  0.8098 -2.8594  0.9327
19588TIP3   OH280178   4.781   4.755   2.382 -0.5570  0.2560  0.0475
19588TIP3    H180179   4.789   4.661   2.400  2.4070  0.8831  3.0821
19588TIP3    H280180   4.715   4.786   2.443 -0.7036  0.3046 -0.1365
19589TIP3   OH280181   3.981   1.781   5.320 -0.2294  0.2078  0.1487
19589TIP3    H180182   3.988   1.873   5.345  1.3021 -0.1726  1.2660
19589TIP3    H280183   3.953   1.737   5.400 -1.1431 -0.2828 -0.4362
19590TIP3   OH280184   5.670   5.173  11.160  0.0520 -0.0522 -0.5429
19590TIP3    H180185   5.652   5.255  11.113  1.0792  0.2355 -0.4465
19590TIP3    H280186   5.751   5.140  11.121  0.6455 -0.0751  0.6700
19591TIP3   OH280187   6.630   2.021  14.802 -0.2666 -0.4175  0.1745
19591TIP3    H180188   6.715   2.047  14.768 -0.1528  0.2639  0.9638
19591TIP3    H280189   6.569   2.034  14.729 -0.1292  1.5826  0.3658
19592TIP3   OH280190   3.155   0.593   0.331  0.1367 -0.6957 -0.1920
19592TIP3    H180191   3.167   0.671   0.277  1.3791 -0.0505  0.9323
19592TIP3    H280192   3.089   0.541   0.285 -1.1495  1.2734 -0.6903
19593TIP3   OH280193   5.845   4.416  16.878  0.1714 -0.3587 -0.0934
19593TIP3    H180194   5.799   4.344  16.921  0.1877 -1.5913 -1.9981
19593TIP3    H280195   5.775   4.471  16.842  0.1683  0.2093  0.7605
19594TIP3   OH280196   4.563   2.444   2.397 -0.0341 -0.1147  0.2973
19594TIP3    H180197   4.612   2.455   2.316 -0.6848  1.4545  0.0797
19594TIP3    H280198   4.494   2.382   2.375 -0.0269  0.0734 -0.2687
19595TIP3   OH280199   5.221   5.121   5.717  0.1844  0.5552  0.3463
19595TIP3    H180200   5.156   5.161   5.776 -1.4424 -0.1557 -0.9088
19595TIP3    H280201   5.205   5.163   5.633  0.4854 -0.5544 -0.2735
19596TIP3   OH280202   5.723   4.184   2.234  0.4948 -1.0178 -0.4525
19596TIP3    H180203   5.716   4.225   2.148  0.0692  2.2610  1.0065
19596TIP3    H280204   5.815   4.196   2.259 -0.2250  2.0187  1.2063
19597TIP3   OH280205   3.390   3.427   0.692  0.2890  0.1953  0.0295
19597TIP3    H180206   3.445   3.504   0.685  0.0592  0.2658 -1.4850
19597TIP3    H280207   3.451   3.354   0.704  0.9431  0.0693 -3.1355
19598TIP3   OH280208   3.728   6.580   1.936 -0.2494 -0.3528  0.7162
19598TIP3    H180209   3.736   6.659   1.990  0.0234  0.2954 -0.2283
19598TIP3    H280210   3.639   6.549   1.951 -0.6271  0.5989  0.4980
19599TIP3   OH280211   0.519   6.031  13.103 -0.3449 -0.1280 -0.6176
19599TIP3    H180212   0.484   5.961  13.158  0.3696 -0.0520 -0.0418
19599TIP3    H280213   0.598   5.994  13.064 -1.6164 -0.6767 -2.7967
19600TIP3   OH280214   0.525   3.525  15.999  0.4326 -0.1824 -0.0007
19600TIP3    H180215   0.538   3.527  16.094  0.6060  0.0833 -0.0278
19600TIP3    H280216   0.555   3.438  15.972 -0.8830 -0.7694  0.3630
19601TIP3   OH280217   0.755   4.186   3.589  0.4959 -0.9533  0.2462
19601TIP3    H180218   0.721   4.150   3.671  0.3882  1.2282  1.2269
19601TIP3    H280219   0.703   4.265   3.573  2.6296  0.4707 -0.1403
19602TIP3   OH280220   4.489   6.612  16.146  0.0114  0.1838 -0.6257
19602TIP3    H180221   4.418   6.676  16.153  0.1360  0.1439  2.5276
19602TIP3    H280222   4.457   6.536  16.194 -0.1468 -2.3049 -4.2963
19603TIP3   OH280223   5.012   4.605  14.146 -0.1130  0.0059 -0.8151
19603TIP3    H180224   4.992   4.511  14.140 -1.3870  0.1630  0.3441
19603TIP3    H280225   4.928   4.646  14.167  0.6061  1.2954 -0.3138
19604TIP3   OH280226   6.722   1.929   4.721 -0.4375 -0.9330 -0.1224
19604TIP3    H180227   6.784   1.978   4.667 -2.0566  0.3401 -0.9287
19604TIP3    H280228   6.752   1.944   4.811 -0.6581  1.2960 -0.3630
19605TIP3   OH280229   0.546   4.823   5.620  0.4422 -0.1138 -0.1247
19605TIP3    H180230   0.527   4.734   5.591 -0.4340  0.1932 -0.5101
19605TIP3    H280231   0.481   4.877   5.576  0.6745  0.6637  0.4745
19606TIP3   OH280232   6.082   5.722   4.335 -0.4253 -0.8044  0.7056
19606TIP3    H180233   6.117   5.652   4.281 -1.1614  0.4498 -1.5459
19606TIP3    H280234   6.151   5.789   4.336 -0.0674 -1.1632  2.1153
19607TIP3   OH280235   6.176   4.266   0.553 -0.5279  0.5736 -0.5711
19607TIP3    H180236   6.197   4.283   0.645  0.3862  1.5355 -0.9313
19607TIP3    H280237   6.134   4.180   0.553 -0.3067  0.4473  0.7167
19608TIP3   OH280238   3.937   6.756   6.483  0.0559 -0.1938  0.1954
19608TIP3    H180239   4.004   6.693   6.458  0.8069  1.2753 -1.7581
19608TIP3    H280240   3.984   6.840   6.488 -1.2135  0.4977  1.0146
19609TIP3   OH280241   0.340   6.466   4.887  0.2051 -0.0421  0.0519
19609TIP3    H180242   0.345   6.379   4.847  0.8716  0.0763 -0.1372
19609TIP3    H280243   0.408   6.465   4.955 -1.0970 -0.3339  1.3853
19610TIP3   OH280244   1.530   0.634   5.976  0.2511 -0.7372  0.7755
19610TIP3    H180245   1.436   0.623   5.971  0.1702  0.4420 -1.7858
19610TIP3    H280246   1.543   0.725   6.003  0.6293 -0.5865  0.1113
19611TIP3   OH280247   2.138   5.254  14.287  0.2057  0.1443 -0.5561
19611TIP3    H180248   2.158   5.160  14.291 -0.7826 -0.0308  1.4656
19611TIP3    H280249   2.218   5.297  14.318  1.8063  0.2808 -4.2385
19612TIP3   OH280250   0.826   6.685  11.453 -0.0834 -0.1614  0.0654
19612TIP3    H180251   0.891   6.616  11.460  0.1282 -0.0303 -0.5489
19612TIP3    H280252   0.768   6.657  11.382 -0.3277  0.0152  0.1936
19613TIP3   OH280253   5.596   3.385   0.286 -0.1168  0.8011  0.4813
19613TIP3    H180254   5.642   3.369   0.368  0.1900 -0.5058  0.0743
19613TIP3    H280255   5.658   3.434   0.232  1.3105 -1.8353 -0.4571
19614TIP3   OH280256   4.579   0.956   5.257 -0.2264  0.7251 -0.1764
19614TIP3    H180257   4.623   0.940   5.341  2.2124  0.8619 -1.3467
19614TIP3    H280258   4.491   0.919   5.269  0.6132 -0.8199  1.8624
19615TIP3   OH280259   6.110   1.365   2.734 -0.5808 -0.2797  0.6057
19615TIP3    H180260   6.197   1.388   2.701 -0.9851 -0.4862 -0.6239
19615TIP3    H280261   6.084   1.289   2.682 -1.5876 -0.0935  0.8217
19616TIP3   OH280262   6.455   3.581  16.254 -0.3817 -0.2404  0.0406
19616TIP3    H180263   6.434   3.506  16.310 -1.9842  0.5816  0.6170
19616TIP3    H280264   6.381   3.586  16.193 -0.6541  1.2595  0.4576
19617TIP3   OH280265   4.049   1.771   0.346  0.2056 -0.5787 -0.2928
19617TIP3    H180266   3.995   1.693   0.336 -1.1402  0.5465 -2.3481
19617TIP3    H280267   4.023   1.808   0.430  0.5703 -2.0790  0.5129
19618TIP3   OH280268   4.741   0.049  12.396  0.1758 -0.2297 -0.0469
19618TIP3    H180269   4.760   0.111  12.466 -2.2748 -1.8314  2.2199
19618TIP3    H280270   4.657   0.078  12.361  1.1925  0.3292 -2.1846
19619TIP3   OH280271   3.934   2.970  11.387  0.5476 -0.4907 -0.1500
19619TIP3    H180272   4.007   2.950  11.446  0.4259 -0.5341 -0.0128
19619TIP3    H280273   3.897   3.051  11.421  1.3366  0.2402 -0.9854
19620TIP3   OH280274   0.044   5.899  11.285 -0.4625  0.0291  0.1303
19620TIP3    H180275   0.005   5.897  11.372 -0.1669 -0.7305  0.2469
19620TIP3    H280276  -0.009   5.838  11.233 -1.9672  1.9791 -0.8183
19621TIP3   OH280277   5.125   2.783  16.885  0.0961 -0.0639  0.3805
19621TIP3    H180278   5.182   2.828  16.823  0.8601  1.4044  2.0569
19621TIP3    H280279   5.184   2.729  16.938 -0.4709 -0.8777  0.1978
19622TIP3   OH280280   5.079   6.066  13.578  0.0052  0.1068  0.4654
19622TIP3    H180281   5.062   6.129  13.509  0.1843 -1.9685 -1.6240
19622TIP3    H280282   5.171   6.079  13.600 -0.0353  0.7539  0.2606
19623TIP3   OH280283   4.983   6.190  12.866  0.4007  0.0903 -0.1588
19623TIP3    H180284   5.053   6.239  12.823  1.7198 -2.0438 -0.6258
19623TIP3    H280285   4.903   6.237  12.844  1.4551  1.2737 -1.6379
19624TIP3   OH280286   5.213   2.164  15.259 -0.1400 -0.3539 -0.1203
19624TIP3    H180287   5.249   2.179  15.171  1.5309 -0.4343  0.5150
19624TIP3    H280288   5.166   2.245  15.279 -0.8984 -0.4877 -1.2360
19625TIP3   OH280289   0.470   3.917  11.510 -0.4673 -0.5965 -0.4870
19625TIP3    H180290   0.482   3.976  11.435  0.0618  0.0841  0.1218
19625TIP3    H280291   0.463   3.975  11.585 -0.8882 -1.2824  0.0172
19626TIP3   OH280292   5.760   6.745  12.086 -0.1010 -0.3803 -0.4876
19626TIP3    H180293   5.768   6.685  12.160 -0.0146  0.5421  0.2769
19626TIP3    H280294   5.722   6.824  12.124  0.8523  0.4621 -1.2400
19627TIP3   OH280295   2.290   6.058  14.506 -0.0254  0.6748 -0.0725
19627TIP3    H180296   2.360   6.123  14.502  0.7226 -0.1605 -1.3190
19627TIP3    H280297   2.308   6.009  14.586 -0.3577  1.7166  0.6590
19628TIP3   OH280298   5.556   4.667   0.206  0.5623  0.0715 -0.3697
19628TIP3    H180299   5.496   4.624   0.266 -3.2088  1.0663 -3.0222
19628TIP3    H280300   5.576   4.752   0.247  0.7156 -0.5430  0.8507
19629TIP3   OH280301   5.116   2.176   0.951 -0.1510  0.1290  0.3101
19629TIP3    H180302   5.138   2.267   0.968  0.3193  0.2911 -0.9857
19629TIP3    H280303   5.192   2.142   0.902  0.4002 -1.4230  2.1411
19630TIP3   OH280304   1.299   2.985   4.443 -0.3551  0.2232  0.0844
19630TIP3    H180305   1.359   3.058   4.429 -2.8514  2.7721  1.6210
19630TIP3    H280306   1.248   3.010   4.520 -1.2055 -3.3161  0.8487
19631TIP3   OH280307   6.515   1.437  15.960 -0.0483  0.4429  0.4889
19631TIP3    H180308   6.461   1.374  15.913 -0.6132  1.3924 -0.1717
19631TIP3    H280309   6.457   1.511  15.976  1.3884  2.1220 -1.5247
19632TIP3   OH280310   0.870   0.667  13.833  0.1388 -0.1080 -0.3196
19632TIP3    H180311   0.854   0.689  13.925  1.7516  1.9251 -0.4529
19632TIP3    H280312   0.881   0.572  13.833 -0.0649 -0.1703  1.5636
19633TIP3   OH280313   0.361   5.334  11.927  0.8425  0.0920 -0.0516
19633TIP3    H180314   0.317   5.408  11.970 -0.2457 -1.6060  1.9141
19633TIP3    H280315   0.449   5.334  11.965  0.9790  0.5870 -0.3539
19634TIP3   OH280316   0.382   2.170   5.095 -0.2319  0.0074 -0.0257
19634TIP3    H180317   0.347   2.102   5.037 -0.0903  0.7607 -1.0273
19634TIP3    H280318   0.306   2.203   5.143 -0.4929 -0.0915 -0.3627
19635TIP3   OH280319   5.811   5.196   2.106 -0.7324 -0.1617  0.2872
19635TIP3    H180320   5.831   5.250   2.182 -1.0770  1.2018 -0.5631
19635TIP3    H280321   5.872   5.122   2.112 -0.4155  0.1945  1.6006
19636TIP3   OH280322   4.636   5.781  13.995  0.3289  0.3870  0.0790
19636TIP3    H180323   4.564   5.843  13.993  0.5090  0.6755  1.4116
19636TIP3    H280324   4.688   5.807  14.071  1.3375 -0.3669 -0.3272
19637TIP3   OH280325   1.820   1.886  16.465 -0.0427  0.3963  0.0872
19637TIP3    H180326   1.898   1.910  16.516  0.3248 -0.5428 -0.0219
19637TIP3    H280327   1.755   1.952  16.490  0.2728  0.2330  1.4220
19638TIP3   OH280328   4.838   2.484  11.461  0.5322  0.0568 -0.3430
19638TIP3    H180329   4.827   2.578  11.447  1.6496  0.2503  0.0469
19638TIP3    H280330   4.797   2.444  11.384 -1.1845  0.7889  0.1372
19639TIP3   OH280331   2.772   6.794  12.521  0.7042 -0.3445  0.0445
19639TIP3    H180332   2.774   6.890  12.525  1.3743 -0.3068 -0.9748
19639TIP3    H280333   2.712   6.774  12.449 -2.1662 -0.7898  2.3731
19640TIP3   OH280334   4.584   4.300  15.829 -0.8309 -0.0120 -0.5625
19640TIP3    H180335   4.598   4.390  15.800  3.0833 -1.0043 -2.3711
19640TIP3    H280336   4.561   4.252  15.750 -0.7167 -0.9725 -0.0375
19641TIP3   OH280337   0.212   4.545  16.261 -0.6526 -0.1256  0.3116
19641TIP3    H180338   0.144   4.571  16.323 -1.9865  0.1233 -1.1954
19641TIP3    H280339   0.229   4.624  16.210  0.7664 -0.2016  0.6419
19642TIP3   OH280340   2.584   1.623  12.069  0.2439  0.3808 -0.0259
19642TIP3    H180341   2.494   1.615  12.099  0.1997 -1.9652 -0.5573
19642TIP3    H280342   2.577   1.662  11.982 -0.2596  0.2937 -0.0252
19643TIP3   OH280343   1.864   4.499   4.426 -0.0009 -0.4622  0.0592
19643TIP3    H180344   1.944   4.548   4.449  0.7059 -0.7131 -1.6715
19643TIP3    H280345   1.894   4.434   4.362 -1.8218  0.4898 -1.8700
19644TIP3   OH280346   3.249   4.051   3.580 -0.1235 -0.9274  0.0458
19644TIP3    H180347   3.189   4.068   3.652  0.7115  0.2141  0.5006
19644TIP3    H280348   3.208   4.094   3.504 -0.7766 -1.7411 -0.0736
19645TIP3   OH280349   0.506   2.275   3.504  0.2896 -0.1664  0.3290
19645TIP3    H180350   0.490   2.352   3.559 -1.9945 -0.5889  0.3225
19645TIP3    H280351   0.558   2.308   3.431  0.3018  1.1208  0.8961
19646TIP3   OH280352   0.723   5.798   3.700  0.7400  0.2363 -0.1052
19646TIP3    H180353   0.640   5.782   3.744  0.9472 -0.2454  0.1218
19646TIP3    H280354   0.789   5.760   3.759  1.1051  0.4413 -0.3727
19647TIP3   OH280355   4.908   3.669  16.470 -0.1097 -0.1567 -0.6229
19647TIP3    H180356   4.985   3.726  16.461  0.8674 -1.3653 -0.2159
19647TIP3    H280357   4.942   3.590  16.512 -1.6841 -0.5329 -0.0123
19648TIP3   OH280358   3.923   0.752   4.557  0.2298 -0.4403  0.7439
19648TIP3    H180359   3.860   0.719   4.493 -1.1503  1.1432  1.2174
19648TIP3    H280360   3.871   0.771   4.635  1.9349 -2.7104  2.5838
19649TIP3   OH280361   3.939   1.226  15.228 -0.1793 -0.6564 -0.6300
19649TIP3    H180362   3.968   1.206  15.139  4.5368 -1.3599  0.7647
19649TIP3    H280363   3.934   1.321  15.231  1.9411 -0.4774 -1.1693
19650TIP3   OH280364   5.242   3.784   1.138 -0.2852 -0.1610 -0.2794
19650TIP3    H180365   5.270   3.865   1.095 -1.4479 -0.0338 -0.8332
19650TIP3    H280366   5.280   3.714   1.085  0.7271 -0.0038  0.2045
19651TIP3   OH280367   5.800   4.339  10.443 -0.0254  0.2484  0.3648
19651TIP3    H180368   5.727   4.282  10.420  0.1575  0.3508 -0.5206
19651TIP3    H280369   5.769   4.390  10.518  0.2272 -1.7989  1.9316
19652TIP3   OH280370   6.133   0.484   4.244 -0.3728 -0.9918  0.3358
19652TIP3    H180371   6.177   0.540   4.308 -0.7663  1.9343 -1.7301
19652TIP3    H280372   6.205   0.442   4.196  0.3458  2.3339 -1.8087
19653TIP3   OH280373   2.719   0.410   0.302  0.6375  0.3185 -0.8941
19653TIP3    H180374   2.666   0.333   0.282  1.6438 -0.5325 -0.3657
19653TIP3    H280375   2.700   0.430   0.394 -0.7129  1.6134 -1.4047
19654TIP3   OH280376   3.436   2.175  16.948  0.0426 -0.0087 -0.1222
19654TIP3    H180377   3.416   2.123  17.026  0.5604  0.9552  0.6842
19654TIP3    H280378   3.399   2.262  16.967 -0.4501  0.0464 -1.2602
19655TIP3   OH280379   1.011   3.857   2.020  0.2578  0.1805  0.0086
19655TIP3    H180380   0.944   3.833   1.956 -1.2141  3.1085  0.2881
19655TIP3    H280381   1.088   3.879   1.968 -0.3503  0.8000 -0.6365
19656TIP3   OH280382   0.537   3.492  13.814  0.2845  0.0340 -0.1832
19656TIP3    H180383   0.587   3.438  13.875  1.5041  0.0335 -1.1332
19656TIP3    H280384   0.571   3.468  13.728 -0.2943  1.1635 -0.7468
19657TIP3   OH280385   4.837   4.113  15.507 -0.1502  0.2574  0.5324
19657TIP3    H180386   4.878   4.032  15.539 -0.1740 -0.2886 -0.7620
19657TIP3    H280387   4.901   4.181  15.524  0.7022 -0.3544 -0.1337
19658TIP3   OH280388   4.748   5.356  15.064  0.0679 -0.3007  0.2530
19658TIP3    H180389   4.697   5.424  15.108  1.1416  0.4257  0.4012
19658TIP3    H280390   4.808   5.323  15.131  1.0223  0.1091 -0.3778
19659TIP3   OH280391   6.508   1.662  12.890 -0.0898 -0.2048 -0.1014
19659TIP3    H180392   6.472   1.722  12.955 -0.1597 -0.9142  0.5270
19659TIP3    H280393   6.536   1.586  12.941 -1.0709 -1.2092 -1.0014
19660TIP3   OH280394   5.674   0.457  12.760 -0.0586  0.5533 -0.5563
19660TIP3    H180395   5.627   0.485  12.681 -1.1325 -0.2424 -0.2196
19660TIP3    H280396   5.614   0.397  12.804  1.4996 -1.0054 -0.4124
19661TIP3   OH280397   0.613   2.546  11.059 -0.1394 -0.6639  0.9110
19661TIP3    H180398   0.613   2.475  10.996  0.7074 -0.0160  0.1469
19661TIP3    H280399   0.525   2.546  11.097 -0.3853 -1.5989  0.3525
19662TIP3   OH280400   0.267   4.312   5.716 -0.4790  0.1766  0.2299
19662TIP3    H180401   0.194   4.368   5.689 -0.7998 -0.2342  0.2360
19662TIP3    H280402   0.241   4.224   5.690  0.3018  0.1053 -0.3441
19663TIP3   OH280403   4.827   6.631  15.638  0.2196  0.2412  0.2997
19663TIP3    H180404   4.901   6.584  15.598  0.0482 -0.9257  1.2759
19663TIP3    H280405   4.777   6.664  15.564  2.3058  2.0945 -0.4036
19664TIP3   OH280406   0.236   1.265   2.250 -0.0491 -0.1469 -0.3373
19664TIP3    H180407   0.203   1.328   2.314  0.6049  2.0581 -2.0167
19664TIP3    H280408   0.323   1.298   2.227  0.8980 -2.4531 -0.3711
19665TIP3   OH280409   2.188   4.308   4.492  0.0437  0.1939  0.3441
19665TIP3    H180410   2.140   4.338   4.568  1.0430 -0.5685  1.3142
19665TIP3    H280411   2.123   4.305   4.421 -0.8895  0.9291  1.1453
19666TIP3   OH280412   4.313   3.659   2.947  0.1648  1.0720 -0.2858
19666TIP3    H180413   4.315   3.614   2.863  0.9181 -2.1643  1.3164
19666TIP3    H280414   4.399   3.700   2.954  0.9936 -0.6333 -0.1483
19667TIP3   OH280415   1.160   5.442   4.308  0.8869  0.1854  0.2824
19667TIP3    H180416   1.146   5.412   4.398 -0.5757  0.6760  0.2394
19667TIP3    H280417   1.073   5.465   4.277  1.5720  1.4836 -0.7534
19668TIP3   OH280418   1.486   0.205   0.127  0.4392  0.0595  0.3146
19668TIP3    H180419   1.573   0.215   0.167 -0.3324  0.5985  1.9190
19668TIP3    H280420   1.471   0.288   0.082  0.8276 -0.1222 -0.1713
19669TIP3   OH280421   2.269   4.255  10.570 -0.1391 -0.3120 -0.0280
19669TIP3    H180422   2.362   4.251  10.548  0.0633 -0.1432  0.7660
19669TIP3    H280423   2.250   4.349  10.577 -0.5512 -0.3160 -0.8947
19670TIP3   OH280424   5.211   1.426  14.508  0.0974 -0.1874 -0.4481
19670TIP3    H180425   5.140   1.428  14.444  0.2902  0.8289 -0.6582
19670TIP3    H280426   5.246   1.516  14.507  0.9212 -0.4904  0.1618
19671TIP3   OH280427   3.421   5.751   4.932 -0.1927 -0.2529  0.2475
19671TIP3    H180428   3.499   5.697   4.933  0.0325  0.0626 -0.1456
19671TIP3    H280429   3.397   5.761   5.024  0.1250 -0.4926  0.3563
19672TIP3   OH280430   4.185   0.601   5.512  0.2870 -0.2723  0.2693
19672TIP3    H180431   4.151   0.687   5.538 -0.3121 -0.3571 -0.2248
19672TIP3    H280432   4.132   0.575   5.437  0.0697 -1.3359  0.7705
19673TIP3   OH280433   5.318   4.716   1.370 -0.2469  0.0332  0.1869
19673TIP3    H180434   5.353   4.782   1.430 -1.7573 -0.4011  1.6221
19673TIP3    H280435   5.226   4.707   1.396 -1.1877  0.4059 -2.7451
19674TIP3   OH280436   5.327   0.648   2.583 -0.1178  0.0189 -0.1932
19674TIP3    H180437   5.286   0.567   2.554  0.6249  0.2319 -1.9342
19674TIP3    H280438   5.301   0.713   2.517 -0.3575  1.1263  0.9358
19675TIP3   OH280439   6.247   0.873   5.933  0.5273 -0.5059 -0.1017
19675TIP3    H180440   6.187   0.944   5.956 -1.7892 -1.9941 -1.1225
19675TIP3    H280441   6.287   0.848   6.016 -0.8194  0.1078  0.7790
19676TIP3   OH280442   6.474   1.178   3.750 -0.0673 -1.0305  0.2372
19676TIP3    H180443   6.392   1.149   3.789 -1.6828  1.6569 -0.8392
19676TIP3    H280444   6.501   1.253   3.803 -0.6632  0.7423 -1.7921
19677TIP3   OH280445   2.186   2.450   2.852 -0.1566  0.0217 -0.3720
19677TIP3    H180446   2.209   2.462   2.760  0.3516  3.0000  0.0499
19677TIP3    H280447   2.257   2.397   2.888  0.1886 -0.2821 -1.4631
19678TIP3   OH280448   1.089   2.369   1.942 -1.0995  0.6239  0.3068
19678TIP3    H180449   1.144   2.316   2.001  0.5077 -1.1357 -2.5010
19678TIP3    H280450   1.099   2.458   1.974 -0.9123 -0.2745  3.0649
19679TIP3   OH280451   6.662   3.374  15.904  0.2528  0.2060  0.9982
19679TIP3    H180452   6.685   3.386  15.812  0.7165 -0.0665  1.0717
19679TIP3    H280453   6.747   3.366  15.948  0.0249 -0.8479  1.2746
19680TIP3   OH280454   0.328   1.397  12.535  0.1465  0.1970 -0.8535
19680TIP3    H180455   0.398   1.454  12.566 -0.5251  1.5663 -1.7349
19680TIP3    H280456   0.249   1.430  12.578 -0.2111 -0.2608 -1.1460
19681TIP3   OH280457   4.545   6.691   0.082  0.1765 -0.0760 -1.1004
19681TIP3    H180458   4.535   6.685   0.177 -0.2712  0.6382 -1.0947
19681TIP3    H280459   4.639   6.695   0.067  0.2352  0.2073 -0.6591
19682TIP3   OH280460   5.962   2.053   4.320 -0.0039  0.1786 -0.4070
19682TIP3    H180461   5.983   2.109   4.245 -1.3087  0.4156 -0.6201
19682TIP3    H280462   5.988   2.104   4.397 -1.2027  1.1243 -0.5990
19683TIP3   OH280463   2.978   5.982   4.179  0.1824  0.2623  0.3109
19683TIP3    H180464   2.943   6.029   4.102 -1.9678  2.1398  2.2735
19683TIP3    H280465   3.054   6.033   4.206  0.2106  0.3017  0.1600
19684TIP3   OH280466   1.758   2.951  16.766  0.1714  0.9286 -0.1681
19684TIP3    H180467   1.794   2.871  16.805 -0.8470  1.4259  1.9053
19684TIP3    H280468   1.832   2.991  16.721  0.6827 -1.2311 -1.4354
19685TIP3   OH280469   0.178   5.191   3.944  0.0387 -0.5684 -0.5452
19685TIP3    H180470   0.089   5.195   3.979  0.5421 -0.7453  0.8302
19685TIP3    H280471   0.198   5.281   3.919 -0.1225 -0.3023  0.2424
19686TIP3   OH280472   6.687   0.284  11.712 -0.6800 -0.7819  0.0320
19686TIP3    H180473   6.711   0.297  11.620  0.5896 -0.9072  0.3259
19686TIP3    H280474   6.612   0.225  11.709 -0.7610 -0.6431 -0.9331
19687TIP3   OH280475   5.237   3.626   0.591  0.0585  0.3169  0.0162
19687TIP3    H180476   5.313   3.629   0.650 -0.2088 -0.7656  0.4384
19687TIP3    H280477   5.264   3.568   0.520 -0.6886 -0.8838  0.6686
19688TIP3   OH280478   3.296   0.948   1.244 -0.0149  0.5167  0.4624
19688TIP3    H180479   3.243   0.961   1.322 -0.6753 -1.0017  0.2970
19688TIP3    H280480   3.276   1.025   1.189 -0.7971  0.7774  1.0848
19689TIP3   OH280481   0.196   4.279   0.102 -0.2885 -0.5327 -0.7196
19689TIP3    H180482   0.267   4.234   0.149  0.1374  1.0972  0.2805
19689TIP3    H280483   0.230   4.292   0.014  1.2998  1.4463  0.1031
19690TIP3   OH280484   4.495   3.608   2.642 -0.3954  0.4082 -0.1345
19690TIP3    H180485   4.523   3.604   2.550  0.6383  0.0256  0.1803
19690TIP3    H280486   4.522   3.524   2.679  0.7207  1.1903  0.9238
19691TIP3   OH280487   0.171   2.293   1.905 -0.5291  0.5109  0.1682
19691TIP3    H180488   0.137   2.360   1.964 -0.5859  0.9589 -0.3714
19691TIP3    H280489   0.097   2.234   1.891 -1.3934  1.9249 -1.6449
19692TIP3   OH280490   6.020   1.479   6.389  0.3873 -0.0769  0.2507
19692TIP3    H180491   6.009   1.413   6.321  2.1319 -0.2786  0.1106
19692TIP3    H280492   6.000   1.562   6.347 -0.3115 -0.3712  0.0011
19693TIP3   OH280493   3.674   4.249  14.409 -0.6792 -0.3518  0.8585
19693TIP3    H180494   3.716   4.314  14.465  1.5881 -1.7829  0.9561
19693TIP3    H280495   3.630   4.300  14.341 -0.3108  1.2982  1.8048
19694TIP3   OH280496   3.150   2.251   4.827 -0.1311  0.2537  0.2705
19694TIP3    H180497   3.227   2.267   4.773  0.3899 -0.3583  0.8231
19694TIP3    H280498   3.136   2.334   4.874  0.1843  0.3685  0.1610
19695TIP3   OH280499   5.213   5.769   5.176  0.0276 -0.2814 -0.0656
19695TIP3    H180500   5.304   5.781   5.148 -0.1286  0.2165 -0.3733
19695TIP3    H280501   5.220   5.725   5.261  0.5910  0.6186  0.3751
19696TIP3   OH280502   3.709   3.148  11.582  0.4509 -0.4681  0.0272
19696TIP3    H180503   3.789   3.198  11.567  0.5031 -0.0460  1.4634
19696TIP3    H280504   3.643   3.215  11.601 -0.6830 -0.7048 -2.7241
19697TIP3   OH280505   0.295   2.385  15.807 -0.1231 -0.5797 -0.3391
19697TIP3    H180506   0.237   2.414  15.736 -2.7483 -0.5032  1.7106
19697TIP3    H280507   0.253   2.307  15.842  1.0681 -0.5644  1.2183
19698TIP3   OH280508   5.762   3.563   5.745  0.0997 -0.2885  0.7182
19698TIP3    H180509   5.835   3.517   5.787  0.0781 -0.4990  0.5282
19698TIP3    H280510   5.766   3.534   5.654 -0.1717 -0.2359  0.6915
19699TIP3   OH280511   5.025   2.231  15.571 -0.7796  0.1821  0.3099
19699TIP3    H180512   4.967   2.207  15.643  0.2321 -0.2785  1.0007
19699TIP3    H280513   4.968   2.271  15.506 -2.4889 -3.2828 -0.5315
19700TIP3   OH280514   5.247   0.123  14.353 -0.9067  0.2918 -0.1515
19700TIP3    H180515   5.202   0.150  14.273 -1.8829 -1.2284 -0.1540
19700TIP3    H280516   5.180   0.129  14.421 -1.2126 -2.1076 -0.1678
19701TIP3   OH280517   2.546   0.252  14.865 -0.6186 -0.0752  0.5252
19701TIP3    H180518   2.635   0.276  14.842 -0.6334  0.8086  1.3406
19701TIP3    H280519   2.550   0.228  14.957 -1.3256  0.5040  0.7125
19702TIP3   OH280520   2.940   0.259  12.454  0.0762  0.4328  0.3287
19702TIP3    H180521   2.955   0.345  12.492  1.5347  1.6185 -2.6241
19702TIP3    H280522   3.023   0.212  12.468 -0.6964 -0.5601  1.8905
19703TIP3   OH280523   3.209   6.715  14.599 -0.0803  0.5981  0.6233
19703TIP3    H180524   3.115   6.734  14.609  0.0424  1.3056  0.4700
19703TIP3    H280525   3.244   6.728  14.687 -0.5110 -2.0268  1.2570
19704TIP3   OH280526   0.321   1.972   4.915  0.1915  0.2729  0.3658
19704TIP3    H180527   0.263   1.897   4.926  1.5365 -0.6256  1.7714
19704TIP3    H280528   0.281   2.023   4.845 -1.5031 -1.0319  0.3103
19705TIP3   OH280529   4.844   0.799  14.132  0.8649 -0.1373 -0.2913
19705TIP3    H180530   4.929   0.841  14.118  2.2915 -2.5920  0.3298
19705TIP3    H280531   4.803   0.799  14.046  1.6442  0.7537 -0.6846
19706TIP3   OH280532   6.569   4.274  13.749  0.0199  0.2532 -0.2156
19706TIP3    H180533   6.550   4.302  13.660  1.1629 -0.4598 -0.7039
19706TIP3    H280534   6.603   4.353  13.792  2.8176 -0.1563 -1.4583
19707TIP3   OH280535   2.637   6.472   1.677 -0.1004 -0.5994  0.2085
19707TIP3    H180536   2.588   6.437   1.751 -1.3767  0.8018  0.0874
19707TIP3    H280537   2.633   6.404   1.611 -1.2338 -0.8306  0.4921
19708TIP3   OH280538   3.890   3.321  16.167 -0.1643  0.0596  0.1780
19708TIP3    H180539   3.908   3.279  16.083  0.5027  2.4688 -0.9712
19708TIP3    H280540   3.942   3.272  16.230  0.7177 -0.7138 -1.1121
19709TIP3   OH280541   0.294   0.055   5.929 -0.6349 -0.0533 -0.3030
19709TIP3    H180542   0.200   0.042   5.946 -0.7360  0.9974 -0.0353
19709TIP3    H280543   0.337   0.028   6.010 -0.7654  0.2510 -0.1322
19710TIP3   OH280544   5.058   6.517   3.182 -0.5099  0.3692  0.2086
19710TIP3    H180545   5.091   6.594   3.136  1.9861  0.0622  1.3060
19710TIP3    H280546   5.085   6.443   3.128  0.8426  0.1011  1.1989
19711TIP3   OH280547   4.961   5.162  11.857 -0.0229  0.1877 -0.4798
19711TIP3    H180548   5.012   5.136  11.780 -0.3665  1.1131 -1.0469
19711TIP3    H280549   4.880   5.199  11.820 -1.2140 -1.4369  0.3949
19712TIP3   OH280550   1.565   2.801  16.614  0.1197  0.0009 -0.1860
19712TIP3    H180551   1.637   2.777  16.557 -0.7153  0.6586 -1.5692
19712TIP3    H280552   1.595   2.879  16.660  0.0430  0.7351 -1.3280
19713TIP3   OH280553   5.356   2.046   2.811  0.2956 -0.1325  0.4320
19713TIP3    H180554   5.284   2.071   2.754  1.0306  1.1212  0.0106
19713TIP3    H280555   5.432   2.041   2.753  0.8774  0.2603  1.1365
19714TIP3   OH280556   0.471   6.533  10.844 -0.3693 -0.4337  0.2378
19714TIP3    H180557   0.507   6.551  10.930 -3.3661  1.1778  1.2990
19714TIP3    H280558   0.392   6.483  10.861  0.2660 -2.3038 -1.8280
19715TIP3   OH280559   1.193   5.427   0.853  0.4069  0.3257 -0.2866
19715TIP3    H180560   1.149   5.382   0.781  0.3558 -1.3430  0.7240
19715TIP3    H280561   1.271   5.375   0.870  0.3827  0.6438  0.8848
19716TIP3   OH280562   0.627   0.151   0.058  0.1310 -0.2154  0.1535
19716TIP3    H180563   0.697   0.216   0.053  0.0428 -0.1416 -0.1041
19716TIP3    H280564   0.581   0.158  -0.026 -0.1878 -0.2606  0.3241
19717TIP3   OH280565   1.449   0.248  15.758  0.1158  0.2575 -0.6850
19717TIP3    H180566   1.441   0.309  15.686  0.9955  3.2263  1.5266
19717TIP3    H280567   1.542   0.224  15.759  0.1945  0.5526 -0.3530
19718TIP3   OH280568   0.005   6.650   2.070 -0.5375  0.0007  0.2990
19718TIP3    H180569   0.037   6.704   1.998 -1.9283  2.2015  1.2364
19718TIP3    H280570  -0.077   6.613   2.038  0.1598 -1.1950 -0.1574
19719TIP3   OH280571   4.470   2.280  11.345  0.3294 -0.1463  0.1478
19719TIP3    H180572   4.432   2.201  11.306 -0.4406  0.7007 -0.8540
19719TIP3    H280573   4.425   2.289  11.429 -0.1415 -0.3245 -0.0858
19720TIP3   OH280574   1.172   1.450   2.630 -0.1866  0.2731 -0.1024
19720TIP3    H180575   1.183   1.363   2.668 -0.3423  0.6493  0.8402
19720TIP3    H280576   1.112   1.437   2.556 -1.8765 -0.1180  1.2804
19721TIP3   OH280577   0.855   4.938   0.780 -0.4515  0.0816  0.0687
19721TIP3    H180578   0.810   4.921   0.697 -1.1586 -0.2243  0.5115
19721TIP3    H280579   0.825   4.869   0.839 -1.5901  1.4957  1.2228
19722TIP3   OH280580   1.031   5.851  14.117  1.0598  0.3823  0.2000
19722TIP3    H180581   0.953   5.852  14.173  0.4612 -1.4837 -0.5231
19722TIP3    H280582   1.021   5.928  14.061 -0.0948  0.3654  0.3615
19723TIP3   OH280583   4.608   0.488  10.938  0.3758  1.0284  0.1360
19723TIP3    H180584   4.536   0.440  10.898 -1.5756  1.4569  2.8135
19723TIP3    H280585   4.595   0.579  10.912 -0.4341  1.1863  1.0167
19724TIP3   OH280586   0.190   6.605   5.337  0.0892 -0.0985 -0.0141
19724TIP3    H180587   0.159   6.572   5.421 -1.0616  0.3933 -0.2236
19724TIP3    H280588   0.279   6.570   5.329 -0.5520 -1.9148  0.4112
19725TIP3   OH280589   0.745   0.003  13.995  0.1069 -0.6285  0.3544
19725TIP3    H180590   0.780   0.088  13.971  0.3213 -0.8867 -0.2821
19725TIP3    H280591   0.748  -0.048  13.913 -0.8555 -0.9583  0.5126
19726TIP3   OH280592   1.622   3.908  11.408  0.1010  0.5750  0.7378
19726TIP3    H180593   1.552   3.920  11.472  0.9387 -1.5755  2.1676
19726TIP3    H280594   1.643   3.815  11.412  0.6345  0.4394 -2.2614
19727TIP3   OH280595   6.234   1.054   2.147  0.1388  0.1328 -0.4119
19727TIP3    H180596   6.289   0.984   2.181 -0.0032  1.0678  1.9964
19727TIP3    H280597   6.154   1.011   2.119  0.4301 -0.7735  0.1187
19728TIP3   OH280598   5.713   6.790  15.468  0.1981 -0.5561  0.0406
19728TIP3    H180599   5.695   6.875  15.509 -0.2330 -0.6572  0.0650
19728TIP3    H280600   5.629   6.764  15.430  0.4649 -0.7184 -0.4359
19729TIP3   OH280601   2.164   2.986   6.193  0.2318 -0.2317 -0.1650
19729TIP3    H180602   2.235   2.927   6.219 -0.9075 -1.5134  0.1852
19729TIP3    H280603   2.096   2.927   6.159 -1.8899  0.6464  2.2820
19730TIP3   OH280604   3.305   4.512   2.286  0.1733  0.1061 -0.1616
19730TIP3    H180605   3.342   4.435   2.242  1.0924  0.0214  0.7167
19730TIP3    H280606   3.309   4.491   2.379 -2.7927 -0.1853 -0.0164
19731TIP3   OH280607   1.708   5.487   1.705  0.3662 -0.7763 -0.0997
19731TIP3    H180608   1.745   5.409   1.745 -1.2924 -1.1923  0.7235
19731TIP3    H280609   1.699   5.550   1.777  0.3345 -0.3548 -0.4649
19732TIP3   OH280610   6.193   0.527  13.758  0.0041 -0.4653  0.5623
19732TIP3    H180611   6.174   0.542  13.851  1.2754  0.3758  0.7137
19732TIP3    H280612   6.282   0.493  13.757  1.2598  2.4973 -0.4714
19733TIP3   OH280613   6.021   4.935  11.664  0.1711 -0.3285 -0.5501
19733TIP3    H180614   5.998   5.027  11.669  0.1810 -0.3778  1.1568
19733TIP3    H280615   5.948   4.894  11.616  0.9709  0.7672 -2.8124
19734TIP3   OH280616   3.104   2.842   0.266  0.3413  0.2781  0.4034
19734TIP3    H180617   3.101   2.928   0.224 -1.1340 -0.4375 -1.0233
19734TIP3    H280618   3.116   2.862   0.359  1.3337  1.9687 -0.0354
19735TIP3   OH280619   2.092   1.091  14.789  0.7207 -0.1040  0.1692
19735TIP3    H180620   2.044   1.056  14.864  1.9154  0.1239  1.0655
19735TIP3    H280621   2.044   1.059  14.712 -0.8038  0.0570  1.0208
19736TIP3   OH280622   3.683   5.894  11.896 -0.0397  0.3573 -0.1121
19736TIP3    H180623   3.599   5.936  11.880 -1.1369 -1.7199 -0.1652
19736TIP3    H280624   3.700   5.910  11.989 -0.4048  0.8975 -0.1314
19737TIP3   OH280625   0.725   1.548   4.048 -0.2029 -0.1430 -0.3876
19737TIP3    H180626   0.690   1.555   3.959 -0.7124  0.7918 -0.1310
19737TIP3    H280627   0.780   1.470   4.046 -3.1536 -2.4082 -0.5302
19738TIP3   OH280628   3.855   5.263   3.798 -0.5210 -0.3867  0.0884
19738TIP3    H180629   3.918   5.204   3.838  0.1010  0.5591  0.5519
19738TIP3    H280630   3.907   5.338   3.769 -1.1466 -0.4759 -1.3582
19739TIP3   OH280631   2.497   1.392   5.638 -0.5291 -0.1847 -0.1760
19739TIP3    H180632   2.424   1.419   5.582 -0.1199 -0.0778 -0.6735
19739TIP3    H280633   2.476   1.429   5.724 -0.3096  1.1869 -0.6795
19740TIP3   OH280634   5.039   2.090   3.719  0.1129 -0.4920  0.1227
19740TIP3    H180635   5.002   2.024   3.660  2.1981  0.1640 -2.0712
19740TIP3    H280636   5.132   2.069   3.723  0.3803  0.8084  1.4473
19741TIP3   OH280637   4.686   6.715   4.748 -0.2554  0.3615 -0.2801
19741TIP3    H180638   4.778   6.691   4.734 -0.7089 -2.6073  1.0230
19741TIP3    H280639   4.684   6.748   4.838 -0.5395 -0.0829 -0.1222
19742TIP3   OH280640   0.235   1.143  16.218  0.0277  0.0930  0.3544
19742TIP3    H180641   0.275   1.075  16.164 -2.5767 -0.7506 -0.6880
19742TIP3    H280642   0.157   1.101  16.255 -0.9353  2.1154  0.7477
19743TIP3   OH280643   1.066   0.686  16.875 -0.7887  0.4354 -0.3284
19743TIP3    H180644   1.029   0.628  16.808 -0.2479  0.7374 -0.8926
19743TIP3    H280645   1.150   0.647  16.897  0.3546  1.8572 -1.9120
19744TIP3   OH280646   1.816   4.992  16.734  0.0289 -0.0029 -0.4614
19744TIP3    H180647   1.817   5.072  16.682 -2.7868  0.2695 -0.2307
19744TIP3    H280648   1.747   4.938  16.694 -0.7052 -0.6974  1.6216
19745TIP3   OH280649   6.056   4.586   0.967  0.3896 -0.2881  0.2828
19745TIP3    H180650   6.039   4.652   0.900  0.8340 -1.2333 -0.7869
19745TIP3    H280651   5.978   4.588   1.023  0.7438  1.7128  0.7893
19746TIP3   OH280652   5.973   6.501  13.088  0.7719  0.3260  0.0541
19746TIP3    H180653   5.973   6.416  13.045  0.8392  0.3197  0.0674
19746TIP3    H280654   5.960   6.483  13.180 -0.6435  0.4155 -0.1145
19747TIP3   OH280655   4.872   4.180   3.498 -0.0603  0.2043 -0.0804
19747TIP3    H180656   4.834   4.167   3.584  1.0147  1.6503  0.6531
19747TIP3    H280657   4.837   4.264   3.468 -0.0227 -0.0399 -0.8255
19748TIP3   OH280658   2.744   0.949   4.929  0.1185  0.0144 -0.3748
19748TIP3    H180659   2.760   0.858   4.955 -0.1802 -0.3049 -1.2942
19748TIP3    H280660   2.780   0.955   4.841  0.2640  0.8354 -0.2617
19749TIP3   OH280661   5.032   1.483   0.604  0.0429  0.5915  0.5760
19749TIP3    H180662   5.086   1.404   0.595 -2.0271 -0.6718 -2.7242
19749TIP3    H280663   4.966   1.459   0.669  1.2967  0.9060  2.0388
19750TIP3   OH280664   2.637   1.246   4.070 -0.1947 -0.3680 -0.1164
19750TIP3    H180665   2.677   1.332   4.053  0.8791 -0.9504 -0.6380
19750TIP3    H280666   2.548   1.254   4.037 -0.0216  0.4670 -0.3996
19751TIP3   OH280667   0.768   6.510  13.901  0.3725  0.5448  0.1064
19751TIP3    H180668   0.676   6.515  13.876  0.4199  1.4416  0.0788
19751TIP3    H280669   0.816   6.536  13.822  0.8183 -2.7462 -0.8503
19752TIP3   OH280670   5.359   0.590   5.893 -0.3918 -0.2792  0.8970
19752TIP3    H180671   5.385   0.651   5.823 -0.2653  0.3032  1.4433
19752TIP3    H280672   5.429   0.524   5.893  0.5731  0.7082  1.6618
19753TIP3   OH280673   6.207   4.014   3.981  0.1433  0.4468 -0.7798
19753TIP3    H180674   6.164   4.042   4.062 -0.1089 -0.2796 -0.6533
19753TIP3    H280675   6.136   4.011   3.917  0.1907  0.2277 -0.8233
19754TIP3   OH280676   4.947   5.504  13.126  0.2628 -0.0308 -0.0434
19754TIP3    H180677   4.918   5.503  13.035  1.6105  0.3788 -0.5104
19754TIP3    H280678   5.034   5.543  13.123  0.6463 -0.6931  1.3256
19755TIP3   OH280679   4.535   2.452  16.730  0.5868  0.0989  0.2293
19755TIP3    H180680   4.523   2.497  16.813 -2.6225 -1.4399  0.7571
19755TIP3    H280681   4.624   2.418  16.734  1.0893  1.4506  2.2722
19756TIP3   OH280682   6.170   4.440   5.591  1.0032 -0.3289 -0.0453
19756TIP3    H180683   6.183   4.444   5.686 -0.0965 -2.0533  0.2152
19756TIP3    H280684   6.117   4.517   5.571  2.0157  0.5535  0.5742
19757TIP3   OH280685   0.273   0.121   2.099  0.3982 -0.4977 -0.4858
19757TIP3    H180686   0.282   0.092   2.190 -0.8767 -0.4966 -0.3449
19757TIP3    H280687   0.355   0.166   2.080  0.1894  0.6282  1.0864
19758TIP3   OH280688   6.263   4.552  11.391  0.5530 -0.2722  0.2318
19758TIP3    H180689   6.295   4.465  11.367  2.7686  0.5697 -0.1431
19758TIP3    H280690   6.174   4.555  11.357 -0.4238 -3.1569  2.1858
19759TIP3   OH280691   4.668   0.204   0.052  0.1451 -0.1694  0.2658
19759TIP3    H180692   4.695   0.291   0.020  1.4669 -0.5301  0.3450
19759TIP3    H280693   4.580   0.218   0.085 -0.1029  0.9002 -0.7398
19760TIP3   OH280694   4.222   4.794  16.373  0.5286  0.0592  0.3112
19760TIP3    H180695   4.243   4.771  16.464  1.0511  0.9488  0.4291
19760TIP3    H280696   4.139   4.751  16.356  0.4632 -0.1830  1.1948
19761TIP3   OH280697   3.702   5.736  12.749  0.1840 -0.6526 -0.3027
19761TIP3    H180698   3.686   5.678  12.823  1.1085 -1.0361 -0.3975
19761TIP3    H280699   3.668   5.821  12.778 -0.7324 -1.1065  0.0141
19762TIP3   OH280700   2.573   1.144  13.705 -0.3416  0.2897 -0.2720
19762TIP3    H180701   2.570   1.068  13.764  1.3511  0.0359 -0.4615
19762TIP3    H280702   2.488   1.143  13.660 -0.7721 -0.8483  0.5070
19763TIP3   OH280703   4.803   2.405   0.352  0.2731 -0.5450  0.1957
19763TIP3    H180704   4.794   2.395   0.447  0.3306  1.2262  0.4305
19763TIP3    H280705   4.762   2.327   0.316 -2.2966  0.0124  1.6226
19764TIP3   OH280706   6.599   3.379  17.044 -0.1930  0.4729  0.1986
19764TIP3    H180707   6.562   3.464  17.019  0.3336  0.0544 -2.2783
19764TIP3    H280708   6.641   3.346  16.964 -0.5343 -2.2108  1.0032
19765TIP3   OH280709   0.458   3.768  11.182 -0.3570 -0.0880 -0.3201
19765TIP3    H180710   0.392   3.835  11.199 -0.1495 -0.0531  0.3906
19765TIP3    H280711   0.503   3.798  11.104 -0.2238  0.6456  0.0291
19766TIP3   OH280712   2.236   0.527  17.109 -0.3588  0.1188  0.2419
19766TIP3    H180713   2.315   0.491  17.149  1.0892  2.2150 -0.5308
19766TIP3    H280714   2.261   0.616  17.083 -3.0394  0.9287  0.1141
19767TIP3   OH280715   6.388   0.179   1.234  0.7940  0.0497 -0.8232
19767TIP3    H180716   6.347   0.186   1.148  0.8703  1.4037 -0.7636
19767TIP3    H280717   6.481   0.196   1.218  1.1030 -1.3998 -0.7119
19768TIP3   OH280718   5.496   1.853   5.508  0.2650  0.2184 -0.3411
19768TIP3    H180719   5.437   1.779   5.488 -1.4472  0.3177  3.3329
19768TIP3    H280720   5.439   1.930   5.505  1.0429  0.8080 -0.1798
19769TIP3   OH280721   3.206   1.551  12.310 -0.2103 -0.4119  0.0328
19769TIP3    H180722   3.221   1.629  12.256 -1.0666  0.5165  1.0863
19769TIP3    H280723   3.292   1.530  12.346  0.4129 -1.1617 -1.7989
19770TIP3   OH280724   5.036   2.087  12.884 -0.1208 -0.6340 -0.0587
19770TIP3    H180725   5.100   2.107  12.952  0.1780  1.0225 -0.7764
19770TIP3    H280726   5.088   2.047  12.814  0.2708  1.2084 -0.8648
19771TIP3   OH280727   4.234   1.085  15.892 -0.0558  0.4250 -0.1863
19771TIP3    H180728   4.242   1.171  15.933  0.1578  1.1177 -1.6365
19771TIP3    H280729   4.145   1.057  15.915 -0.8157  1.8570 -1.1927
19772TIP3   OH280730   3.241   4.250   4.413  0.1021  0.0501  0.2439
19772TIP3    H180731   3.181   4.200   4.357  0.0435 -0.0513  0.3962
19772TIP3    H280732   3.320   4.196   4.417  0.2777  0.2786 -0.1188
19773TIP3   OH280733   5.355   1.301  10.533  0.3106 -0.6402  0.4433
19773TIP3    H180734   5.317   1.328  10.449  1.8990  0.0282 -0.1051
19773TIP3    H280735   5.286   1.249  10.575 -1.2257  0.6224 -0.4137
19774TIP3   OH280736   5.551   2.093  11.230 -0.3869  0.0560  0.0555
19774TIP3    H180737   5.609   2.051  11.166  0.3449  2.3486 -0.8822
19774TIP3    H280738   5.609   2.149  11.282 -1.3736  0.2641  0.9673
19775TIP3   OH280739   1.371   3.542  12.865 -0.4267 -0.2076 -0.1459
19775TIP3    H180740   1.316   3.619  12.856  0.9702  0.6648 -1.7941
19775TIP3    H280741   1.438   3.568  12.929  0.4831  0.2499 -1.2570
19776TIP3   OH280742   4.452   1.099   1.338 -0.0664 -0.0876 -0.1830
19776TIP3    H180743   4.543   1.093   1.366 -0.8707 -1.4588  2.4567
19776TIP3    H280744   4.445   1.184   1.295  1.9177  1.1002  1.6708
19777TIP3   OH280745   1.718   0.864   6.333 -0.2578  0.6114  0.1479
19777TIP3    H180746   1.731   0.955   6.358  0.4142  1.4313 -2.8091
19777TIP3    H280747   1.806   0.826   6.336 -0.5213  0.0325  1.2664
19778TIP3   OH280748   2.683   3.776  11.984 -0.4977 -0.1688 -0.2259
19778TIP3    H180749   2.739   3.846  11.953 -0.8285  0.3163  0.2582
19778TIP3    H280750   2.712   3.699  11.935  0.4983  0.0992 -0.0789
19779TIP3   OH280751   5.223   0.778   0.444  1.1141 -0.2432  0.4488
19779TIP3    H180752   5.253   0.730   0.367  1.0183  2.0878 -1.1388
19779TIP3    H280753   5.127   0.774   0.439  0.8869  3.3455 -2.0948
19780TIP3   OH280754   3.559   3.475  12.576 -0.7811  0.2090 -0.6118
19780TIP3    H180755   3.643   3.430  12.584  0.9667  3.4790  4.9574
19780TIP3    H280756   3.498   3.422  12.627 -0.7175  0.4515 -0.2850
19781TIP3   OH280757   4.254   1.511  15.738  0.0721  0.3650 -0.5316
19781TIP3    H180758   4.244   1.512  15.643  1.2728 -1.0790 -0.7115
19781TIP3    H280759   4.347   1.494  15.752 -0.1530  0.1635  0.9139
19782TIP3   OH280760   5.351   6.463   4.964 -0.4374  0.0754 -0.5963
19782TIP3    H180761   5.292   6.433   5.033 -0.5660  0.8364 -0.3712
19782TIP3    H280762   5.404   6.531   5.005 -0.1581  0.1671 -1.1019
19783TIP3   OH280763   0.352   2.297   4.651  0.1731 -0.0107 -0.1267
19783TIP3    H180764   0.425   2.253   4.694  1.0247 -0.0888 -1.5893
19783TIP3    H280765   0.377   2.389   4.648  0.0391  0.0204 -0.3085
19784TIP3   OH280766   2.506   1.390  11.694 -0.8273  0.1238  0.1061
19784TIP3    H180767   2.518   1.307  11.740  2.3965  0.8968  0.9154
19784TIP3    H280768   2.439   1.436  11.745  0.8304 -0.0694  2.6612
19785TIP3   OH280769   2.502   6.592   3.038 -0.5384  0.3278 -0.2630
19785TIP3    H180770   2.515   6.544   2.956 -0.7402 -1.3670  0.6384
19785TIP3    H280771   2.509   6.525   3.106 -0.4280  1.6764  1.1127
19786TIP3   OH280772   5.459   3.085   4.339 -0.7591 -0.1945 -0.1000
19786TIP3    H180773   5.442   3.044   4.423 -0.3039 -0.2899 -0.0507
19786TIP3    H280774   5.523   3.154   4.358  0.2035 -0.9433 -0.5343
19787TIP3   OH280775   2.038   4.728   4.484 -0.0483 -0.0138 -0.2674
19787TIP3    H180776   2.019   4.821   4.492  3.9634  1.2617 -2.5998
19787TIP3    H280777   2.110   4.713   4.546  0.7100 -1.0340 -1.3509
19788TIP3   OH280778   4.023   4.816  15.499 -0.4449 -0.2275 -0.0537
19788TIP3    H180779   4.006   4.901  15.540  1.3197 -0.1007  0.4982
19788TIP3    H280780   3.954   4.759  15.531 -1.1556  0.7879  0.2521
19789TIP3   OH280781   4.591   3.102  10.960 -0.1151 -0.2625 -0.0865
19789TIP3    H180782   4.615   3.188  10.994 -2.3444 -0.1574  1.4614
19789TIP3    H280783   4.545   3.121  10.878 -1.5536  0.1682  0.7806
19790TIP3   OH280784   6.566   5.111  16.927  0.1858  0.0658  0.3586
19790TIP3    H180785   6.617   5.045  16.881 -0.7633 -0.3622 -0.1046
19790TIP3    H280786   6.502   5.061  16.978 -1.0743  0.6183 -0.6264
19791TIP3   OH280787   4.287   1.899  14.314  0.3513  0.0712  0.1307
19791TIP3    H180788   4.314   1.895  14.406 -1.3498  1.5342  0.7448
19791TIP3    H280789   4.279   1.992  14.295 -0.2065 -0.2343 -1.2318
19792TIP3   OH280790   2.936   3.426   5.843 -0.5335  0.0627 -0.3911
19792TIP3    H180791   2.971   3.515   5.843  0.0778 -0.1671 -1.0934
19792TIP3    H280792   2.870   3.427   5.774 -1.7589  0.4167  0.7377
19793TIP3   OH280793   1.853   2.334  15.586  0.2053  0.4439 -0.2487
19793TIP3    H180794   1.930   2.335  15.643  0.2229  2.6311 -0.2427
19793TIP3    H280795   1.792   2.273  15.628  1.3192 -0.1462  0.5550
19794TIP3   OH280796   3.797   3.764  13.210  0.0909 -0.3918 -0.3269
19794TIP3    H180797   3.877   3.715  13.231  0.4829  0.5555  0.4725
19794TIP3    H280798   3.818   3.808  13.127 -0.2821 -1.5710 -1.0783
19795TIP3   OH280799   2.175   0.034   0.399  0.5719  0.0905 -0.1209
19795TIP3    H180800   2.207   0.120   0.373  0.2499 -0.4415 -2.5581
19795TIP3    H280801   2.082   0.035   0.379  0.4122 -0.6041  0.5126
19796TIP3   OH280802   2.958   0.475   1.911  0.4633  0.4028 -0.0581
19796TIP3    H180803   3.029   0.413   1.893  1.2068  0.9800  0.7962
19796TIP3    H280804   2.906   0.433   1.980 -0.5954 -0.4313 -1.3116
19797TIP3   OH280805   5.301   4.710  13.826 -0.4072 -0.2897  0.1646
19797TIP3    H180806   5.279   4.725  13.918 -1.1186 -0.4736  0.0288
19797TIP3    H280807   5.221   4.675  13.787  0.1905 -1.1941 -0.2962
19798TIP3   OH280808   4.228   6.282  15.737 -0.0915 -0.6500  0.4476
19798TIP3    H180809   4.227   6.249  15.827  0.7048 -0.3056  0.5948
19798TIP3    H280810   4.321   6.299  15.720 -0.5018  2.7066  0.8216
19799TIP3   OH280811   4.796   6.305  11.830 -0.7754  0.1864 -0.0941
19799TIP3    H180812   4.750   6.223  11.809 -3.4091  1.4082  0.5512
19799TIP3    H280813   4.826   6.292  11.920 -0.3579 -0.4010 -0.3095
19800TIP3   OH280814   0.937   2.245  11.472 -0.3390 -0.3820 -0.2358
19800TIP3    H180815   0.885   2.303  11.416  0.2349  0.8027  0.4278
19800TIP3    H280816   1.027   2.268  11.451 -0.0189 -2.5744 -1.5402
19801TIP3   OH280817   1.057   4.515   2.682 -0.0301 -0.0215 -0.2866
19801TIP3    H180818   1.000   4.588   2.654  0.2994  1.0478  1.6676
19801TIP3    H280819   1.140   4.557   2.704  0.2234 -1.0283  0.7266
19802TIP3   OH280820   4.648   1.654   5.263  0.1029  0.4919  0.0958
19802TIP3    H180821   4.628   1.591   5.333 -2.2596  0.8370 -0.1839
19802TIP3    H280822   4.683   1.601   5.192 -0.0596 -0.2542  0.5576
19803TIP3   OH280823   6.381   0.302   5.334  0.2772 -0.0706 -0.2774
19803TIP3    H180824   6.469   0.267   5.317  0.3822  0.1475 -0.1777
19803TIP3    H280825   6.354   0.261   5.416  0.4332  0.1437 -0.1186
19804TIP3   OH280826   5.672   1.863  13.566 -0.0784  0.3916 -0.4220
19804TIP3    H180827   5.652   1.941  13.514  1.2114 -0.1396 -1.8056
19804TIP3    H280828   5.720   1.896  13.642  0.2393  0.9612 -0.8673
19805TIP3   OH280829   2.210   2.962  13.734 -0.4106  0.4690 -0.9901
19805TIP3    H180830   2.198   2.890  13.797  1.0991  0.7132 -0.3709
19805TIP3    H280831   2.169   3.037  13.776 -0.6658  0.3142 -0.9573
19806TIP3   OH280832   2.730   6.010   0.783 -0.0137  1.1111 -0.2222
19806TIP3    H180833   2.722   6.064   0.704  1.6851  0.2311 -1.0469
19806TIP3    H280834   2.767   6.068   0.849  0.9548  1.2004 -0.8326
19807TIP3   OH280835   1.929   4.018   2.809 -0.3955  0.3029  0.0617
19807TIP3    H180836   1.973   3.934   2.816  2.7763  1.8050  0.1059
19807TIP3    H280837   1.935   4.041   2.716 -0.6031  0.7989  0.1632
19808TIP3   OH280838   4.959   5.176  12.417  0.2070 -0.8097 -0.9033
19808TIP3    H180839   4.979   5.189  12.510  2.0333  0.4114 -1.4019
19808TIP3    H280840   4.873   5.214  12.405  0.3975 -0.0299  0.0904
19809TIP3   OH280841   5.755   1.653   4.607  0.3689  0.0573 -0.0183
19809TIP3    H180842   5.829   1.714   4.614  1.7300 -1.5507  0.2916
19809TIP3    H280843   5.796   1.568   4.588 -1.3390 -1.0459  0.9656
19810TIP3   OH280844   1.951   4.209   5.769  0.1768  0.4231  0.9987
19810TIP3    H180845   1.968   4.118   5.796 -1.4909  0.4850  2.3637
19810TIP3    H280846   1.903   4.200   5.686  2.0822  0.1697 -0.1588
19811TIP3   OH280847   4.288   5.598   5.601  0.2024  0.1852 -0.1756
19811TIP3    H180848   4.280   5.598   5.697  0.0425  0.0566 -0.1884
19811TIP3    H280849   4.256   5.685   5.575  2.2558  1.0646  0.0484
19812TIP3   OH280850   5.806   0.566   1.337 -0.2273 -0.0986  0.5472
19812TIP3    H180851   5.893   0.529   1.323 -0.2563 -0.2642  0.7889
19812TIP3    H280852   5.776   0.526   1.419 -0.8102 -0.5572  0.1136
19813TIP3   OH280853   1.175   3.732   2.252 -0.0052 -0.2943 -0.1141
19813TIP3    H180854   1.099   3.763   2.201 -1.3068  0.4594  2.1304
19813TIP3    H280855   1.151   3.643   2.279 -0.1843 -0.0103  0.6996
19814TIP3   OH280856   1.682   0.367   3.349 -0.1923  0.3186 -0.0696
19814TIP3    H180857   1.684   0.381   3.444 -1.0162 -0.6818  0.1132
19814TIP3    H280858   1.679   0.272   3.338  0.0728  0.4117 -1.1107
19815TIP3   OH280859   3.303   5.247   0.023 -0.2444 -0.3069  0.0659
19815TIP3    H180860   3.260   5.252  -0.062 -1.4509  3.1446  0.7085
19815TIP3    H280861   3.233   5.223   0.084  0.0842 -0.4046  0.4101
19816TIP3   OH280862   4.246   3.602  14.397 -0.1322 -0.7587  0.6743
19816TIP3    H180863   4.195   3.530  14.433  2.1098 -1.5780  2.4771
19816TIP3    H280864   4.212   3.680  14.441  0.5655 -1.3814  2.4155
19817TIP3   OH280865   3.695   1.095  12.036  0.1291 -0.0310 -0.2037
19817TIP3    H180866   3.700   1.000  12.024  0.3939  0.1837 -1.9219
19817TIP3    H280867   3.723   1.132  11.953  1.5587  1.6081  0.9344
19818TIP3   OH280868   5.527   1.623   3.393  0.1096  0.6165  0.4713
19818TIP3    H180869   5.564   1.636   3.305 -2.5540 -1.2500 -1.0665
19818TIP3    H280870   5.465   1.695   3.404 -1.7095 -0.6885 -0.5521
19819TIP3   OH280871   4.479   6.394   0.317  0.0603  0.2500  0.3731
19819TIP3    H180872   4.497   6.305   0.288 -1.8301  0.0485 -0.2680
19819TIP3    H280873   4.389   6.392   0.347  0.2956  1.7352  1.2856
19820TIP3   OH280874   6.501   0.424   3.541  0.0630  0.1862 -0.2425
19820TIP3    H180875   6.533   0.402   3.454  0.9149 -0.4047  0.2026
19820TIP3    H280876   6.576   0.463   3.586  0.3799 -1.7178  1.0018
19821TIP3   OH280877   6.684   1.278   4.763 -0.0156 -0.3805  0.6111
19821TIP3    H180878   6.663   1.185   4.752 -0.9571 -0.5646  3.2477
19821TIP3    H280879   6.627   1.323   4.700  0.2732 -1.5337 -0.5321
19822TIP3   OH280880   2.228   0.394   4.756  0.0374 -0.1083 -0.2550
19822TIP3    H180881   2.234   0.471   4.699  0.7859 -0.4581 -0.6586
19822TIP3    H280882   2.136   0.369   4.753 -0.0027  0.0999 -1.0161
19823TIP3   OH280883   2.839   6.564   0.234  0.6026  0.4235  0.5974
19823TIP3    H180884   2.743   6.557   0.237  0.3849  2.0171 -0.9979
19823TIP3    H280885   2.856   6.640   0.179  2.8380 -0.7576 -0.4892
19824TIP3   OH280886   4.245   6.062   5.969 -0.0007  0.1892 -0.6485
19824TIP3    H180887   4.243   6.025   6.057 -1.1114 -0.7424 -1.0467
19824TIP3    H280888   4.250   6.157   5.983  3.3319  0.0157  0.3968
19825TIP3   OH280889   4.696   2.032   6.581  0.3030 -0.3169  0.3088
19825TIP3    H180890   4.765   2.062   6.520  1.0062  0.3721  1.4089
19825TIP3    H280891   4.621   2.088   6.561  0.4395 -0.2734 -0.1008
19826TIP3   OH280892   6.394   1.414  11.633  0.2367  0.1053  0.0320
19826TIP3    H180893   6.311   1.394  11.589 -0.0968  1.1232  0.1681
19826TIP3    H280894   6.369   1.469  11.707  1.1535  1.5944 -0.7214
19827TIP3   OH280895   2.504   3.379  16.987  0.0487  0.2563 -0.2589
19827TIP3    H180896   2.508   3.295  17.033 -0.5063 -0.3164 -1.2097
19827TIP3    H280897   2.469   3.440  17.052 -0.5730 -0.4950  0.1325
19828TIP3   OH280898   1.729   4.095   2.410  0.2951  0.0286 -0.4430
19828TIP3    H180899   1.813   4.101   2.455  0.1848 -0.6677 -0.1256
19828TIP3    H280900   1.682   4.174   2.436  0.2458 -0.3332  0.6684
19829TIP3   OH280901   0.258   2.759   4.106 -0.2192  0.5562  0.1074
19829TIP3    H180902   0.183   2.707   4.079  0.6624 -0.0289 -1.3405
19829TIP3    H280903   0.221   2.838   4.145 -1.5653 -0.1148  0.2169
19830TIP3   OH280904   6.709   6.169  14.895 -0.4208 -0.2754 -0.0721
19830TIP3    H180905   6.624   6.129  14.874 -0.4703 -1.6636  2.3297
19830TIP3    H280906   6.767   6.095  14.912  0.6495  0.6628  0.5302
19831TIP3   OH280907   5.612   6.633   1.799 -0.4935  0.5378 -0.1699
19831TIP3    H180908   5.682   6.697   1.789 -2.1260  2.6668  1.0961
19831TIP3    H280909   5.558   6.643   1.721 -0.7767  0.7439  0.0503
19832TIP3   OH280910   5.827   4.035  11.665  0.5238 -0.3760 -0.5299
19832TIP3    H180911   5.814   3.956  11.718  0.4091  1.3651  2.2813
19832TIP3    H280912   5.755   4.034  11.602 -0.4416 -1.6985  0.5273
19833TIP3   OH280913   4.390   0.265  14.724 -0.4607  0.3536 -0.8830
19833TIP3    H180914   4.390   0.356  14.754  0.9131  0.3206 -0.7512
19833TIP3    H280915   4.381   0.272  14.628 -1.9758  0.5531 -0.7488
19834TIP3   OH280916   0.769   0.919  15.764 -0.4530 -0.8369  0.4198
19834TIP3    H180917   0.693   0.928  15.706 -1.4299 -1.8709  1.4846
19834TIP3    H280918   0.801   0.830  15.748  0.2620 -0.5592  0.2992
19835TIP3   OH280919   3.099   1.697  10.985  0.1920 -0.0703  0.7080
19835TIP3    H180920   3.144   1.721  10.904  0.4260 -0.8077  0.6137
19835TIP3    H280921   3.019   1.654  10.955 -0.4302  0.9181  0.8758
19836TIP3   OH280922   4.098   1.084  11.866  0.0943 -0.1584  0.2169
19836TIP3    H180923   4.110   0.990  11.875  1.4108  0.0358  0.6524
19836TIP3    H280924   4.071   1.097  11.775 -0.1771 -0.9630  0.1825
19837TIP3   OH280925   3.577   0.427   6.162  0.0081 -0.5717  0.7777
19837TIP3    H180926   3.490   0.459   6.183 -0.3649 -0.1388 -1.1922
19837TIP3    H280927   3.637   0.495   6.195 -0.6258  0.8675 -0.8602
19838TIP3   OH280928   6.088   4.380   2.736 -0.3734  0.2389 -0.6560
19838TIP3    H180929   6.078   4.285   2.730 -0.6230  0.2232 -0.0309
19838TIP3    H280930   6.012   4.415   2.690  0.4083  0.1537 -2.0639
19839TIP3   OH280931   1.273   3.276   2.218 -0.2706  0.5182 -0.0919
19839TIP3    H180932   1.199   3.334   2.199 -1.8580 -1.8110 -1.5262
19839TIP3    H280933   1.257   3.199   2.164  1.0252 -1.8443  2.6620
19840TIP3   OH280934   0.078   1.832  13.875 -0.2974  0.5107 -0.5268
19840TIP3    H180935  -0.015   1.830  13.852  0.1010  1.7192 -2.5281
19840TIP3    H280936   0.092   1.918  13.913 -0.2356 -0.1957  1.1343
19841TIP3   OH280937   4.081   5.027  12.262  1.1454 -0.3427 -0.2923
19841TIP3    H180938   4.154   4.966  12.248  0.8595 -0.3708 -1.7394
19841TIP3    H280939   4.077   5.038  12.357  2.8688 -0.5468 -0.1704
19842TIP3   OH280940   5.786   0.101  14.072  0.0027 -0.1857 -0.1357
19842TIP3    H180941   5.748   0.036  14.013 -0.7158 -0.2861  0.4346
19842TIP3    H280942   5.834   0.161  14.013  0.5783 -1.1449 -0.6714
19843TIP3   OH280943   2.889   2.808   6.080  0.0028 -0.2746  0.1518
19843TIP3    H180944   2.901   2.808   5.985 -1.1626 -0.8081 -0.0287
19843TIP3    H280945   2.826   2.878   6.096 -1.0604 -1.2297  0.3070
19844TIP3   OH280946   1.670   4.811  12.213  1.0349  0.0056  0.1598
19844TIP3    H180947   1.628   4.797  12.128 -1.9599 -1.1071  1.6702
19844TIP3    H280948   1.695   4.903  12.212  1.0820  0.0305 -1.9019
19845TIP3   OH280949   2.848   2.703  16.264 -0.0641 -0.9464  0.2256
19845TIP3    H180950   2.846   2.787  16.219 -1.2388 -0.5404  0.9963
19845TIP3    H280951   2.941   2.691  16.287  0.0429  0.4133  0.6036
19846TIP3   OH280952   1.742   3.528   1.907 -0.2432  0.2259  0.3134
19846TIP3    H180953   1.695   3.562   1.831 -0.3396  1.1881  0.7823
19846TIP3    H280954   1.789   3.452   1.874  0.3723  1.1039 -0.9208
19847TIP3   OH280955   1.187   1.209   0.386 -0.3696  0.2129  0.4325
19847TIP3    H180956   1.277   1.243   0.388  0.4317 -1.7206 -0.4608
19847TIP3    H280957   1.183   1.148   0.459 -0.2386 -1.2987 -0.7769
19848TIP3   OH280958   4.337   5.106   1.406  0.6600 -0.0433 -0.0436
19848TIP3    H180959   4.400   5.176   1.391 -1.2378  2.2208  1.8591
19848TIP3    H280960   4.265   5.125   1.347 -0.3880  0.3570  1.3248
19849TIP3   OH280961   3.867   6.095   2.020  0.4634  0.6936 -0.5175
19849TIP3    H180962   3.854   6.186   2.046 -1.5030  0.3390 -0.1067
19849TIP3    H280963   3.835   6.044   2.094  1.3943 -0.3653 -0.8053
19850TIP3   OH280964   4.175   2.313  14.025 -0.2041 -0.1339 -0.2604
19850TIP3    H180965   4.186   2.409  14.028  1.4214 -0.2803 -0.6146
19850TIP3    H280966   4.238   2.284  13.960  0.4362 -1.6039  0.9696
19851TIP3   OH280967   2.800   1.229  12.462  0.3719 -0.1319 -0.5214
19851TIP3    H180968   2.891   1.259  12.467  0.5554 -0.7407 -0.0846
19851TIP3    H280969   2.791   1.192  12.375  0.4960  0.0689 -0.6205
19852TIP3   OH280970   0.285   6.773   2.887  0.0264  0.1762  0.3037
19852TIP3    H180971   0.360   6.833   2.896  0.0057  0.2835 -0.1707
19852TIP3    H280972   0.323   6.691   2.856 -0.2653  0.9306 -2.3099
19853TIP3   OH280973   2.262   4.501   3.828  0.2479 -0.9088  0.2747
19853TIP3    H180974   2.240   4.486   3.920 -0.2885 -1.2841  0.0910
19853TIP3    H280975   2.203   4.571   3.800 -0.3141 -1.4993 -0.0550
19854TIP3   OH280976   6.636   0.712   1.675  0.0459 -0.2930  0.1521
19854TIP3    H180977   6.621   0.740   1.585  0.6512 -0.2257  0.0702
19854TIP3    H280978   6.564   0.650   1.693 -1.0530  0.9450  0.1947
19855TIP3   OH280979   2.619   6.711   4.386  0.5800 -0.1990  0.0338
19855TIP3    H180980   2.555   6.655   4.341  1.4308 -1.7674  0.7110
19855TIP3    H280981   2.674   6.744   4.315  0.7946 -1.1966 -0.2896
19856TIP3   OH280982   1.085   5.025  16.351  0.2793 -0.1902  0.5531
19856TIP3    H180983   1.127   4.955  16.301 -1.9094 -1.1263 -0.0907
19856TIP3    H280984   0.992   5.008  16.343 -0.2783  1.9105  1.7398
19857TIP3   OH280985   4.230   4.973  11.563  0.2008  0.9190 -0.4761
19857TIP3    H180986   4.149   4.923  11.550  0.2337  0.0917  2.0348
19857TIP3    H280987   4.221   5.048  11.504 -1.9562  0.3404 -0.9805
19858TIP3   OH280988   1.609   0.371  12.704  0.0959  0.4108  0.2489
19858TIP3    H180989   1.700   0.392  12.723  0.5886 -0.2866 -1.2560
19858TIP3    H280990   1.590   0.416  12.622 -0.0402 -1.6869 -0.9129
19859TIP3   OH280991   6.181   1.976   4.657  0.4468  0.0908 -0.3609
19859TIP3    H180992   6.257   1.943   4.706 -0.1744  0.5295  0.9587
19859TIP3    H280993   6.175   2.068   4.683 -0.1440  0.2330 -0.9860
19860TIP3   OH280994   4.739   0.820   3.944  0.1387  0.2139  0.2341
19860TIP3    H180995   4.796   0.782   4.012 -0.7623  0.6319  1.2527
19860TIP3    H280996   4.741   0.756   3.873  1.0761 -0.2598  0.6681
19861TIP3   OH280997   0.130   2.646   3.245 -0.0035  0.2615  0.4557
19861TIP3    H180998   0.204   2.707   3.242 -0.1462  0.5059  1.4767
19861TIP3    H280999   0.171   2.560   3.254  0.1590  0.3832  0.8786
19862TIP3   OH281000   3.111   0.234   1.773  0.4584  0.0937 -0.6582
19862TIP3    H181001   3.145   0.145   1.766 -1.3318 -0.8114  0.9836
19862TIP3    H281002   3.113   0.252   1.867 -0.5229  1.2184 -0.8335
19863TIP3   OH281003   5.665   5.350   2.791 -0.8390  0.3138 -0.3820
19863TIP3    H181004   5.752   5.358   2.751  0.2349 -4.1523  0.5669
19863TIP3    H281005   5.681   5.357   2.885 -2.0242  2.1315 -0.2671
19864TIP3   OH281006   2.429   5.748   2.159 -0.4533 -0.2749  0.5913
19864TIP3    H181007   2.473   5.795   2.229 -1.8284  2.3105 -0.1020
19864TIP3    H281008   2.368   5.690   2.203 -1.6749  1.6838  1.6474
19865TIP3   OH281009   2.322   0.197  11.954 -0.0881 -0.1165 -0.0040
19865TIP3    H181010   2.360   0.118  11.914 -0.8270 -0.3850 -0.1881
19865TIP3    H281011   2.232   0.199  11.923  0.4504  1.9213 -1.6759
19866TIP3   OH281012   4.950   5.090  16.837  0.4364 -0.0036 -0.4178
19866TIP3    H181013   4.991   5.121  16.918 -1.3506  0.5321  0.3475
19866TIP3    H281014   4.990   5.005  16.821  0.3787 -0.4215  1.4257
19867TIP3   OH281015   1.402   4.959   5.541  0.6267  0.0362  0.0284
19867TIP3    H181016   1.390   5.029   5.605  0.1657  0.5414 -0.6039
19867TIP3    H281017   1.367   4.881   5.586  1.6309  0.0749  0.9327
19868TIP3   OH281018   6.433   1.874   4.740  0.2500  0.0796  0.1629
19868TIP3    H181019   6.429   1.779   4.755 -0.9954  0.2074  0.7622
19868TIP3    H281020   6.523   1.890   4.711  0.3252 -1.3594 -0.4924
19869TIP3   OH281021   4.458   3.744  16.265  0.5183  0.1976  0.2502
19869TIP3    H181022   4.486   3.826  16.223  0.7702 -0.2276 -0.4294
19869TIP3    H281023   4.363   3.752  16.272  0.4738  0.2887 -0.3849
19870TIP3   OH281024   1.591   6.108  11.872  0.1781 -0.4950  0.6267
19870TIP3    H181025   1.544   6.029  11.847  0.4208 -0.2861 -0.5568
19870TIP3    H281026   1.527   6.178  11.865  0.7583 -0.1118 -1.6259
19871TIP3   OH281027   4.815   0.707   3.082 -0.5705  0.0705  0.6933
19871TIP3    H181028   4.877   0.758   3.134 -0.9460  0.8567  0.3738
19871TIP3    H281029   4.737   0.701   3.136 -0.2023 -1.0243  1.1464
19872TIP3   OH281030   5.773   3.037   1.934  0.1647  0.4109  0.2509
19872TIP3    H181031   5.772   3.121   1.888  2.2188  0.3201 -0.0311
19872TIP3    H281032   5.705   3.046   2.002 -0.7961  1.6604 -0.8232
19873TIP3   OH281033   1.428   1.825  11.212 -0.2081  0.3439 -0.0356
19873TIP3    H181034   1.363   1.755  11.222  0.3836 -0.3984 -1.2420
19873TIP3    H281035   1.413   1.860  11.124 -0.0073  1.2337  0.2759
19874TIP3   OH281036   3.155   2.624  16.292  0.2970 -0.3655  0.5416
19874TIP3    H181037   3.104   2.544  16.287 -0.6912  0.2918 -0.3811
19874TIP3    H281038   3.191   2.635  16.204  1.6561 -0.5617  1.0529
19875TIP3   OH281039   2.124   2.215  11.225  0.3197  0.2695  0.6426
19875TIP3    H181040   2.218   2.234  11.236  0.6807 -1.7078  1.4728
19875TIP3    H281041   2.121   2.153  11.153 -0.6546  2.1120 -1.0085
19876TIP3   OH281042   3.085   5.111   0.456 -0.3813 -0.7033 -0.5244
19876TIP3    H181043   3.178   5.092   0.443 -0.4374 -0.6111 -1.0728
19876TIP3    H281044   3.078   5.206   0.447 -0.4750 -0.6659 -0.1144
19877TIP3   OH281045   1.438   6.705  13.289  0.2578  0.2287 -0.0819
19877TIP3    H181046   1.522   6.695  13.335  0.4742 -1.8082 -0.8167
19877TIP3    H281047   1.422   6.799  13.288  2.9366  0.7596 -0.6003
19878TIP3   OH281048   0.262   1.948  11.376  0.4757 -0.0335 -0.3147
19878TIP3    H181049   0.324   2.021  11.369  0.7796 -0.0635  1.4550
19878TIP3    H281050   0.316   1.873  11.401 -0.3179  0.1836  2.4005
19879TIP3   OH281051   4.449   2.827   3.887 -0.5514 -0.0204 -0.4673
19879TIP3    H181052   4.430   2.810   3.980 -0.9432 -1.1528 -0.7341
19879TIP3    H281053   4.376   2.882   3.858 -0.5105  0.2081 -0.1425
19880TIP3   OH281054   0.509   1.356   3.295 -0.0322 -0.3542 -0.4912
19880TIP3    H181055   0.505   1.304   3.375 -1.8235  0.0355 -0.2963
19880TIP3    H281056   0.595   1.398   3.298 -0.0478 -0.3966  1.1923
19881TIP3   OH281057   1.155   3.638   0.871  0.3652  0.1549 -0.2581
19881TIP3    H181058   1.251   3.630   0.876  0.3881  0.6567  0.2360
19881TIP3    H281059   1.126   3.627   0.961 -0.1396 -0.9914 -0.5389
19882TIP3   OH281060   1.700   4.350  13.182  0.0990 -0.9857 -0.2229
19882TIP3    H181061   1.706   4.442  13.208  0.2604 -1.0277 -0.1058
19882TIP3    H281062   1.763   4.305  13.239  0.7551 -1.0190 -0.9594
19883TIP3   OH281063   4.391   2.684  11.909 -0.1067 -0.2448  0.1635
19883TIP3    H181064   4.403   2.591  11.929 -0.5157 -0.7759 -1.8273
19883TIP3    H281065   4.463   2.705  11.849 -1.2186  0.1223 -1.0961
19884TIP3   OH281066   3.801   4.807  16.584  0.6212 -0.0837 -0.1553
19884TIP3    H181067   3.850   4.889  16.593  2.4362 -1.0180 -0.9846
19884TIP3    H281068   3.795   4.794  16.489 -0.3573 -0.5110 -0.0405
19885TIP3   OH281069   1.950   2.967   1.423 -0.2932 -0.3945 -0.1816
19885TIP3    H181070   1.913   2.880   1.434  1.0050 -0.8592  0.7828
19885TIP3    H281071   2.000   2.982   1.503 -0.1650  1.0802 -0.5019
19886TIP3   OH281072   6.758   6.061   3.036 -1.1341  1.0483 -0.0389
19886TIP3    H181073   6.851   6.080   3.023 -1.1071  0.1617 -1.3648
19886TIP3    H281074   6.744   6.072   3.130  1.0064 -1.6373  0.7495
19887TIP3   OH281075   0.968   0.835  11.419 -0.1565  0.2110  0.2205
19887TIP3    H181076   0.928   0.853  11.334  0.5946  0.0443 -0.1770
19887TIP3    H281077   1.012   0.750  11.407  0.0660  0.2521  0.7335
19888TIP3   OH281078   4.273   5.305   4.437 -0.1770  0.0136  0.2089
19888TIP3    H181079   4.256   5.271   4.525 -0.0007  1.7595  0.9647
19888TIP3    H281080   4.369   5.315   4.433 -0.2782  1.2075  0.3529
19889TIP3   OH281081   4.435   6.125   0.149 -0.0098  0.1657  0.0409
19889TIP3    H181082   4.529   6.135   0.165 -0.1125  1.4533  0.0067
19889TIP3    H281083   4.398   6.100   0.233  0.5032 -1.5386 -0.2204
19890TIP3   OH281084   2.330   6.751   2.779  0.4040  0.3557  0.1394
19890TIP3    H181085   2.419   6.749   2.742  0.1991  1.5159 -0.4636
19890TIP3    H281086   2.277   6.793   2.711 -1.2254 -2.8082 -0.7379
19891TIP3   OH281087   4.059   3.686  13.803  0.4715  0.5164 -0.7995
19891TIP3    H181088   4.131   3.731  13.761  0.1255  0.9164 -0.9707
19891TIP3    H281089   4.001   3.756  13.832  0.4692  0.2274 -0.0865
19892TIP3   OH281090   5.345   5.845   2.284 -0.0337  0.0099 -0.2377
19892TIP3    H181091   5.364   5.766   2.335  0.2685 -0.0210 -0.3899
19892TIP3    H281092   5.272   5.887   2.329  0.8946  0.5385  0.8299
19893TIP3   OH281093   5.200   2.831   0.365  0.3514 -0.2346  0.6218
19893TIP3    H181094   5.203   2.925   0.349  1.0025 -0.3109  0.2552
19893TIP3    H281095   5.292   2.804   0.368  0.1693 -0.9034  0.4352
19894TIP3   OH281096   3.257   5.703  13.530 -0.1184 -0.6512 -0.2570
19894TIP3    H181097   3.183   5.752  13.565 -0.0491  0.5938 -1.7806
19894TIP3    H281098   3.220   5.649  13.460  0.5395  0.8123 -1.7910
19895TIP3   OH281099   6.504   1.813   1.788  0.0885 -0.0334 -0.1839
19895TIP3    H181100   6.575   1.862   1.747  0.2282  0.5364  0.6951
19895TIP3    H281101   6.473   1.871   1.858  0.4649 -1.3228  1.0846
19896TIP3   OH281102   6.434   5.298   4.942 -0.2215  0.0354  0.4018
19896TIP3    H181103   6.500   5.232   4.920  0.8859  1.3773 -0.4530
19896TIP3    H281104   6.448   5.369   4.879 -0.4668  1.7031  2.1129
19897TIP3   OH281105   2.187   6.307  16.914  0.4652 -0.3144  0.5258
19897TIP3    H181106   2.250   6.238  16.934  1.5760  0.3323 -0.5834
19897TIP3    H281107   2.214   6.381  16.967  0.5955 -0.0667  0.1230
19898TIP3   OH281108   5.598   3.004   1.118  0.0033 -0.1516 -0.3458
19898TIP3    H181109   5.628   2.987   1.207  1.3502  0.5868 -0.6326
19898TIP3    H281110   5.655   2.950   1.062 -1.1465 -0.9831 -0.7431
19899TIP3   OH281111   3.238   5.565  12.773  0.3226  0.1352 -0.3034
19899TIP3    H181112   3.279   5.484  12.741 -1.7742 -0.3260 -2.0742
19899TIP3    H281113   3.237   5.623  12.697 -1.4769  0.4198 -0.1070
19900TIP3   OH281114   1.737   6.162  17.029  0.2724 -0.4406 -0.4700
19900TIP3    H181115   1.751   6.098  16.959  1.7787 -0.7927  0.1238
19900TIP3    H281116   1.792   6.131  17.101 -1.3335 -0.1696  0.9370
19901TIP3   OH281117   5.441   6.008   1.490 -0.5485  0.1073  0.3750
19901TIP3    H181118   5.532   6.003   1.461 -0.5969  1.1155 -0.0070
19901TIP3    H281119   5.399   5.932   1.451  0.6310 -1.7902  2.5457
19902TIP3   OH281120   6.257   2.378  11.529 -0.5048 -0.2177  1.0129
19902TIP3    H181121   6.270   2.283  11.520 -1.3791 -0.3845  1.3785
19902TIP3    H281122   6.344   2.412  11.550 -0.1556 -0.9250  0.7492
19903TIP3   OH281123   2.478   4.613  12.322  0.1774 -0.0969  0.1343
19903TIP3    H181124   2.551   4.670  12.297  0.6046 -0.6362  0.1305
19903TIP3    H281125   2.402   4.671  12.323  0.3623  0.2005 -1.1770
19904TIP3   OH281126   2.361   5.993  14.762 -0.1716 -0.0103 -0.0922
19904TIP3    H181127   2.290   5.937  14.796  0.5752  0.3587  2.2358
19904TIP3    H281128   2.411   6.018  14.839  0.3424  2.7948 -1.2144
19905TIP3   OH281129   5.064   6.396  17.024  0.0919  0.1976  0.3617
19905TIP3    H181130   5.053   6.304  17.001 -0.3922  0.4823 -0.6470
19905TIP3    H281131   5.158   6.410  17.023  0.2552 -0.5905  1.8818
19906TIP3   OH281132   1.712   1.577  15.117 -0.3295  0.4271 -0.1207
19906TIP3    H181133   1.727   1.602  15.026 -3.1375 -1.8518 -1.3733
19906TIP3    H281134   1.630   1.618  15.141 -1.9596 -2.4783 -0.2562
19907TIP3   OH281135   6.420   0.652  13.091 -0.1093 -0.2390  0.3939
19907TIP3    H181136   6.460   0.738  13.081 -2.1568  0.6251 -1.2093
19907TIP3    H281137   6.326   0.669  13.089 -0.7531 -2.7662 -4.2911
19908TIP3   OH281138   2.305   3.367  11.093  0.1710  0.5578  0.5972
19908TIP3    H181139   2.363   3.291  11.087 -0.3513  0.2205 -0.4658
19908TIP3    H281140   2.364   3.442  11.090  0.5534  0.2492 -1.5086
19909TIP3   OH281141   5.930   2.876   0.371 -0.3031 -0.3365 -0.2515
19909TIP3    H181142   5.871   2.803   0.352 -0.3333 -0.2410 -0.5235
19909TIP3    H281143   6.007   2.858   0.317  1.1109 -1.9564  2.1243
19910TIP3   OH281144   0.161   5.445   4.997 -0.3261 -0.0808  0.4260
19910TIP3    H181145   0.092   5.481   5.054 -1.7228 -2.5073  0.4040
19910TIP3    H281146   0.145   5.486   4.912 -1.9983 -0.7876  0.3423
19911TIP3   OH281147   5.983   4.391   2.461  0.1589 -0.2936  0.0127
19911TIP3    H181148   6.054   4.446   2.428  0.4968 -1.5538 -1.4588
19911TIP3    H281149   5.999   4.305   2.422 -0.5253 -1.3925  1.9879
19912TIP3   OH281150   6.179   1.496  10.935 -0.0900 -0.1497  0.0292
19912TIP3    H181151   6.089   1.471  10.953 -0.7409  1.5930 -0.6150
19912TIP3    H281152   6.177   1.591  10.926  2.2592  0.2658  2.4779
19913TIP3   OH281153   0.714   3.743  13.971 -0.0379  0.5624 -0.4029
19913TIP3    H181154   0.671   3.773  14.051 -0.6792  0.5520 -0.7375
19913TIP3    H281155   0.644   3.736  13.907  0.3134 -0.3822 -0.7060
19914TIP3   OH281156   2.323   5.738   4.784 -0.4249 -0.3478 -0.0425
19914TIP3    H181157   2.397   5.776   4.832 -1.0365  1.5880 -0.5535
19914TIP3    H281158   2.348   5.646   4.771  1.6016  0.0881  0.3581
19915TIP3   OH281159   2.912   1.233   3.115  0.5543  0.5481 -0.5532
19915TIP3    H181160   3.002   1.257   3.137  1.2729  1.1057 -3.5783
19915TIP3    H281161   2.862   1.313   3.126  0.1295  0.0035  2.0936
19916TIP3   OH281162   6.723   3.049   0.048  0.4455 -0.1344  0.1139
19916TIP3    H181163   6.815   3.069   0.062  1.1359 -1.1853 -2.3967
19916TIP3    H281164   6.716   2.955   0.064  0.2210 -0.3927 -1.3720
19917TIP3   OH281165   1.558   5.045   1.668 -0.3379  0.2243 -0.0841
19917TIP3    H181166   1.471   5.027   1.635 -0.0687  0.3703 -0.8936
19917TIP3    H281167   1.546   5.117   1.731 -0.7273  0.6193 -0.6066
19918TIP3   OH281168   6.445   4.135  13.344 -0.2355  1.1520  0.2819
19918TIP3    H181169   6.445   4.042  13.364 -0.1642  1.3572  1.3021
19918TIP3    H281170   6.536   4.162  13.355 -0.1800  1.2664 -0.4173
19919TIP3   OH281171   3.111   3.343  12.759  0.0636 -0.3327 -0.5658
19919TIP3    H181172   3.071   3.266  12.720 -1.8000 -0.2351  0.9905
19919TIP3    H281173   3.095   3.413  12.696  2.3492 -1.2598 -2.2939
19920TIP3   OH281174   3.501   5.388  15.921  0.2130 -0.5803  0.5599
19920TIP3    H181175   3.515   5.479  15.946 -0.0487 -0.4335  0.1965
19920TIP3    H281176   3.459   5.394  15.835  3.1384 -1.0737 -1.0171
19921TIP3   OH281177   3.923   5.933   1.140 -0.2932  0.3833  0.2620
19921TIP3    H181178   3.928   5.924   1.235 -0.8589  1.1968  0.3903
19921TIP3    H281179   4.010   5.910   1.108 -0.5301 -1.3943  0.8333
19922TIP3   OH281180   1.150   6.617   2.878  0.3271 -0.4870  0.3488
19922TIP3    H181181   1.188   6.557   2.813 -1.5724 -0.6361 -0.7128
19922TIP3    H281182   1.081   6.566   2.920  1.0210 -0.1298  1.9696
19923TIP3   OH281183   5.804   5.568  16.136  0.5315 -0.0664  0.3709
19923TIP3    H181184   5.797   5.484  16.180 -1.3819  0.9478  2.1423
19923TIP3    H281185   5.878   5.612  16.178  0.4993 -0.2141  0.5807
19924TIP3   OH281186   6.548   0.147  11.198  0.2346 -0.5619 -0.5246
19924TIP3    H181187   6.608   0.077  11.168  1.9960  0.5722  0.1962
19924TIP3    H281188   6.589   0.228  11.167 -0.6878  0.2915  0.4305
19925TIP3   OH281189   4.859   6.767  14.712 -0.0874  0.9339 -0.5148
19925TIP3    H181190   4.789   6.703  14.726  0.7865 -0.5931 -2.6688
19925TIP3    H281191   4.835   6.810  14.630  0.7938  1.3719 -0.5505
19926TIP3   OH281192   2.272   2.926  15.202  0.1130 -0.6595 -0.4256
19926TIP3    H181193   2.309   2.931  15.114  1.2289 -2.9002 -0.1732
19926TIP3    H281194   2.181   2.898  15.188  0.0468 -0.2163 -0.8927
19927TIP3   OH281195   1.715   3.139   4.512  0.0401 -0.0996 -0.7173
19927TIP3    H181196   1.767   3.198   4.566 -1.1833 -2.3598  3.3795
19927TIP3    H281197   1.778   3.073   4.482  0.5981  0.7654 -1.5325
19928TIP3   OH281198   4.392   3.265   0.080  0.0843 -0.0742  0.8240
19928TIP3    H181199   4.339   3.317   0.019  0.9584 -0.1079  0.0130
19928TIP3    H281200   4.414   3.186   0.030  2.8389  0.9584  0.2728
19929TIP3   OH281201   3.663   2.882  11.252 -0.1645  0.2202  0.6478
19929TIP3    H181202   3.685   2.824  11.179  1.2179 -0.4240  1.5274
19929TIP3    H281203   3.576   2.853  11.281 -0.2797 -0.1829 -0.0776
19930TIP3   OH281204   1.097   5.917   2.480  0.9098  0.0692  0.9748
19930TIP3    H181205   1.132   5.852   2.419 -0.3924 -0.7723  1.0709
19930TIP3    H281206   1.150   5.906   2.559  0.8263 -0.7633  0.9276
19931TIP3   OH281207   1.065   1.257   0.138 -0.0849  0.1303 -0.3113
19931TIP3    H181208   1.129   1.317   0.099  0.4330 -0.6479 -0.6798
19931TIP3    H281209   1.106   1.229   0.220  0.4654 -1.0541 -0.9662
19932TIP3   OH281210   3.589   0.555   1.346 -0.0972  1.0741  0.1937
19932TIP3    H181211   3.684   0.567   1.354 -0.1527  0.3421  4.3210
19932TIP3    H281212   3.552   0.636   1.382 -0.8936 -0.0180  1.9640
19933TIP3   OH281213   5.821   3.636   1.835  0.8183 -0.0154  0.4282
19933TIP3    H181214   5.890   3.595   1.783 -0.2049 -1.7508  0.3594
19933TIP3    H281215   5.838   3.608   1.925  0.4423 -0.1213  0.4706
19934TIP3   OH281216   3.940   1.932   1.803  0.2828 -0.5713  0.3578
19934TIP3    H181217   3.938   1.979   1.720  0.4687 -2.5031 -0.7736
19934TIP3    H281218   4.002   1.982   1.857  1.5545 -0.2855 -1.2935
19935TIP3   OH281219   2.498   2.181   4.099 -0.1574 -0.0947  0.7439
19935TIP3    H181220   2.534   2.268   4.113 -2.3755  0.9852  0.2858
19935TIP3    H281221   2.544   2.148   4.022 -1.9581  2.4201 -1.6370
19936TIP3   OH281222   6.581   5.358   5.546  0.3896  0.7182 -0.2745
19936TIP3    H181223   6.623   5.281   5.585  0.3264  1.2569  0.8995
19936TIP3    H281224   6.623   5.432   5.589  0.3397  1.3489 -1.2874
19937TIP3   OH281225   0.294   5.259  11.165 -0.4591  0.7453 -1.0864
19937TIP3    H181226   0.214   5.225  11.125  0.9246 -3.8170 -0.5587
19937TIP3    H281227   0.363   5.234  11.103  0.9259  0.9428  0.3326
19938TIP3   OH281228   0.707   0.423  16.410  0.0119  0.5104 -0.2495
19938TIP3    H181229   0.696   0.511  16.448 -0.6158  0.4514 -0.2832
19938TIP3    H281230   0.758   0.439  16.331  3.5288  0.3551  1.7728
19939TIP3   OH281231   2.213   6.230  16.519 -0.4935  0.3710  0.4395
19939TIP3    H181232   2.304   6.212  16.540 -0.8053 -0.5577  1.0747
19939TIP3    H281233   2.169   6.146  16.526 -1.1375  0.5063 -1.3941
19940TIP3   OH281234   3.020   2.387   0.671 -0.2036  0.1785  0.0957
19940TIP3    H181235   3.037   2.316   0.609  0.5188  1.5698 -1.3761
19940TIP3    H281236   2.949   2.354   0.726  2.1887 -2.9347  1.6038
19941TIP3   OH281237   5.024   1.503   5.722  0.3437 -0.5764  0.4146
19941TIP3    H181238   4.955   1.450   5.761 -0.9582  0.1237 -0.8369
19941TIP3    H281239   4.981   1.548   5.649  2.1608 -0.2357 -0.5036
19942TIP3   OH281240   0.128   0.498  13.194  0.1465  0.4121  0.1329
19942TIP3    H181241   0.190   0.527  13.261  2.4991  0.5467 -1.9301
19942TIP3    H281242   0.127   0.569  13.130 -1.1423 -0.1849 -0.5480
19943TIP3   OH281243   3.709   5.431   2.548  0.0673 -0.3071  0.2077
19943TIP3    H181244   3.723   5.480   2.629  0.5042 -0.9225  0.5075
19943TIP3    H281245   3.664   5.493   2.491  0.8247  0.5325  0.4961
19944TIP3   OH281246   2.290   1.418  13.986  0.2186  0.3073 -0.2011
19944TIP3    H181247   2.354   1.350  14.005 -0.6026 -0.8795 -1.4436
19944TIP3    H281248   2.272   1.459  14.070  1.7818 -0.0616  0.3437
19945TIP3   OH281249   3.089   2.345  16.315 -0.3565  1.0971 -0.1207
19945TIP3    H181250   3.000   2.310  16.310 -1.0148  2.6413  0.1386
19945TIP3    H281251   3.116   2.329  16.406  0.9478 -2.2483 -0.9339
19946TIP3   OH281252   0.795   2.454  11.908 -0.0494 -0.3450  0.4724
19946TIP3    H181253   0.764   2.409  11.830  0.0416 -0.0437  0.2579
19946TIP3    H281254   0.761   2.403  11.982 -1.0481 -0.0098  0.2452
19947TIP3   OH281255   1.214   4.666  11.203  0.5720  0.0632  0.3816
19947TIP3    H181256   1.165   4.742  11.172 -0.2301 -0.7822 -0.5339
19947TIP3    H281257   1.162   4.591  11.173  1.4021 -0.8506  1.1452
19948TIP3   OH281258   2.605   4.941  16.780 -0.4984  0.2387 -0.8678
19948TIP3    H181259   2.699   4.936  16.761 -0.4930  0.1002 -0.8055
19948TIP3    H281260   2.600   4.967  16.872 -0.5070 -1.0969 -0.4700
19949TIP3   OH281261   4.638   2.848   5.311 -0.0411 -0.2059 -0.3444
19949TIP3    H181262   4.585   2.811   5.382  0.1592 -0.5929 -0.3977
19949TIP3    H281263   4.602   2.936   5.298 -1.9978 -1.1142 -1.7034
19950TIP3   OH281264   6.701   6.747  13.117  0.0139 -0.1136  0.3457
19950TIP3    H181265   6.646   6.731  13.195 -0.4086  0.0977  0.0950
19950TIP3    H281266   6.715   6.842  13.117  2.6659 -0.4017  1.9334
19951TIP3   OH281267   3.058   0.440   6.085  0.2486  0.3290  0.3091
19951TIP3    H181268   3.019   0.489   6.157 -0.2202  0.5805 -0.1117
19951TIP3    H281269   3.046   0.497   6.008  1.5769  0.4914  0.1914
19952LIG     O181270   1.650   4.924  15.462  0.0448  0.9754  0.2117
19952LIG     O281271   1.700   5.023  15.696 -0.0227  0.8501  0.1781
19952LIG     O381272   1.350   4.971  15.517  0.5124 -0.0945  0.0044
19952LIG     O481273   1.780   5.214  15.786  0.6113  0.3591  0.2400
19952LIG     O581274   1.562   5.202  15.479  0.2265 -0.0604 -0.0789
19952LIG     O681275   1.466   5.434  15.612  0.4917  0.2619 -0.1460
19952LIG     O781276   1.660   5.560  15.770 -0.0829  0.2945 -0.0199
19952LIG     O881277   1.842   5.355  16.022  0.2647  0.0251 -1.4311
19952LIG     O981278   1.922   5.530  15.908 -0.4497  0.1193  0.2207
19952LIG      N81279   1.820   4.435  15.465 -0.0149 -0.1251 -0.3407
19952LIG     C181280   1.767   4.721  15.499 -0.0343  0.4971 -0.3910
19952LIG     C281281   1.836   4.643  15.615 -0.0966  1.1218  0.8211
19952LIG     C381282   1.779   4.871  15.505  0.8762 -0.8056 -0.2282
19952LIG     C481283   1.793   4.490  15.599  0.5005 -0.3062  0.2730
19952LIG     C581284   1.801   4.663  15.366  0.6147 -0.6337  0.1195
19952LIG     C681285   1.621   4.699  15.518  0.2917  0.5244  0.5331
19952LIG     C781286   1.644   4.483  15.649 -0.3666  0.0091  0.0519
19952LIG     C881287   1.764   4.515  15.358 -0.3500  0.3525  0.1084
19952LIG     C981288   1.804   4.934  15.649  0.1823 -0.1791 -0.0273
19952LIG    C1081289   1.565   4.601  15.593  0.5135  0.8864  0.4258
19952LIG    C1181290   1.830   4.707  15.756 -0.1565 -0.0049 -0.0598
19952LIG    C1281291   1.560   4.821  15.494  0.6751 -0.2849 -0.1938
19952LIG    C1381292   1.812   4.841  15.766  0.0177  0.1707  0.0234
19952LIG    C1481293   1.959   4.403  15.433  0.6001 -0.1811 -0.1941
19952LIG    C1581294   1.428   4.624  15.626  0.1688  0.2974  0.3613
19952LIG    C1681295   1.427   4.850  15.530 -0.3003  0.0571 -0.1719
19952LIG    C1781296   1.362   4.742  15.600 -0.2915 -0.3294  0.9991
19952LIG    C1881297   1.724   5.160  15.663  0.1695 -0.0382 -1.1520
19952LIG    C1981298   1.588   5.224  15.621 -0.0012  0.1945 -0.1540
19952LIG    C2081299   1.599   5.374  15.627  0.5797  0.6561  0.0976
19952LIG    C2181300   1.649   5.414  15.765  0.2472  0.7316 -0.1140
19952LIG    C2281301   1.783   5.359  15.783  0.5415  0.1569  0.4389
19952LIG    C2381302   1.861   5.425  15.905  0.1422  0.1808  0.0656
19952LIG     H181303   1.946   4.643  15.595 -0.2584  0.7992 -0.1019
19952LIG     H281304   1.854   4.906  15.430 -0.2656  1.8416 -0.2221
19952LIG     H381305   1.857   4.437  15.672  1.5309  2.1197  1.2455
19952LIG     H481306   1.911   4.672  15.357  0.4986  0.9033 -0.1134
19952LIG     H581307   1.750   4.714  15.281 -2.2891 -1.5725  1.1823
19952LIG     H681308   1.648   4.485  15.760  1.2346 -1.4839  0.0770
19952LIG     H781309   1.582   4.399  15.612 -1.9661 -0.0511  2.6144
19952LIG     H881310   1.655   4.501  15.373 -0.8673  2.5948 -1.1068
19952LIG     H981311   1.790   4.472  15.258 -3.9460  1.1563 -1.3380
19952LIG    H1081312   1.897   4.994  15.646 -0.5393  0.9569 -0.7480
19952LIG    H1181313   1.775   4.642  15.826  1.0313 -0.0410  0.8738
19952LIG    H1281314   1.783   4.885  15.862  1.0436 -0.6853  0.7519
19952LIG    H1381315   1.959   4.343  15.339 -0.8936 -1.0712  0.3304
19952LIG    H1481316   1.993   4.328  15.508  0.1025  1.2418  1.5452
19952LIG    H1581317   2.025   4.490  15.416  1.7003 -1.1091 -0.7530
19952LIG    H1681318   1.380   4.547  15.685 -1.1668  0.2752 -0.7193
19952LIG    H1781319   1.263   4.753  15.641 -0.1581  1.8253  0.8091
19952LIG    H1881320   1.798   5.161  15.580  1.3539  1.8750 -0.1649
19952LIG    H1981321   1.505   5.189  15.685  0.7136 -0.6069  0.3517
19952LIG    H2081322   1.674   5.414  15.556  2.2297  2.5188  2.7263
19952LIG    H2181323   1.267   4.961  15.564 -0.6204  1.2703 -1.5993
19952LIG    H2281324   1.582   5.369  15.842  1.2910 -0.6412  0.0351
19952LIG    H2381325   1.842   5.386  15.693 -0.1685  0.0656 -0.0696
19952LIG    H2481326   1.497   5.131  15.477 -0.6694  0.7373 -0.4876
19952LIG    H2581327   1.451   5.439  15.517 -0.3765  0.6985  0.0041
19952LIG    H2681328   1.642   5.591  15.859 -0.5585  2.6431 -0.8692
19952LIG    H2781329   1.767   5.295  16.023 -1.1753  1.6146  1.9723
   6.79653   6.79653  17.17526
